 vasp.6.1.1 19Jun20 (build Dec 21 2021 08:45:49) complex                        
  
 executed on             LinuxIFC date 2023.10.04  09:50:33
 running on   40 total cores
 distrk:  each k-point on   40 cores,    1 groups
 distr:  one band on NCORE=   1 cores,   40 groups


--------------------------------------------------------------------------------------------------------


 INCAR:
 POTCAR:   PAW_PBE Te 08Apr2002                   
 POTCAR:   PAW_PBE Mo 08Apr2002                   
 -----------------------------------------------------------------------------
|                                                                             |
|           W    W    AA    RRRRR   N    N  II  N    N   GGGG   !!!           |
|           W    W   A  A   R    R  NN   N  II  NN   N  G    G  !!!           |
|           W    W  A    A  R    R  N N  N  II  N N  N  G       !!!           |
|           W WW W  AAAAAA  RRRRR   N  N N  II  N  N N  G  GGG   !            |
|           WW  WW  A    A  R   R   N   NN  II  N   NN  G    G                |
|           W    W  A    A  R    R  N    N  II  N    N   GGGG   !!!           |
|                                                                             |
|     For optimal performance we recommend to set                             |
|       NCORE = 4 - approx SQRT(number of cores).                             |
|     NCORE specifies how many cores store one orbital (NPAR=cpu/NCORE).      |
|     This setting can greatly improve the performance of VASP for DFT.       |
|     The default, NCORE=1 might be grossly inefficient on modern             |
|     multi-core architectures or massively parallel machines. Do your        |
|     own testing!!!!                                                         |
|     Unfortunately you need to use the default for GW and RPA                |
|     calculations (for HF NCORE is supported but not extensively tested      |
|     yet).                                                                   |
|                                                                             |
 -----------------------------------------------------------------------------

 POTCAR:   PAW_PBE Te 08Apr2002                   
   VRHFIN =Te: s2p4                                                                                 
   LEXCH  = PE                                                                                      
   EATOM  =   223.2721 eV,   16.4100 Ry                                                             
                                                                                                    
   TITEL  = PAW_PBE Te 08Apr2002                                                                    
   LULTRA =        F    use ultrasoft PP ?                                                          
   IUNSCR =        1    unscreen: 0-lin 1-nonlin 2-no                                               
   RPACOR =    2.200    partial core radius                                                         
   POMASS =  127.600; ZVAL   =    6.000    mass and valenz                                          
   RCORE  =    2.300    outmost cutoff radius                                                       
   RWIGS  =    2.900; RWIGS  =    1.535    wigner-seitz radius (au A)                               
   ENMAX  =  174.982; ENMIN  =  131.236 eV                                                          
   ICORE  =        3    local potential                                                             
   LCOR   =        T    correct aug charges                                                         
   LPAW   =        T    paw PP                                                                      
   EAUG   =  368.792                                                                                
   DEXC   =    -.169                                                                                
   RMAX   =    3.486    core radius for proj-oper                                                   
   RAUG   =    1.300    factor for augmentation sphere                                              
   RDEP   =    2.397    radius for radial grids                                                     
   QCUT   =   -3.586; QGAM   =    7.172    optimization parameters                                  
                                                                                                    
   Description                                                                                      
     l     E      TYP  RCUT    TYP  RCUT                                                            
     0   .000     23  2.300                                                                         
     0   .000     23  2.300                                                                         
     1   .000     23  2.300                                                                         
     1   .000     23  2.300                                                                         
     2   .000     23  2.300                                                                         
     3  -.100     23  2.300                                                                         
  local pseudopotential read in
  partial core-charges read in
  atomic valenz-charges read in
  non local Contribution for L=           0  read in
    real space projection operators read in
  non local Contribution for L=           0  read in
    real space projection operators read in
  non local Contribution for L=           1  read in
    real space projection operators read in
  non local Contribution for L=           1  read in
    real space projection operators read in
  non local Contribution for L=           2  read in
    real space projection operators read in
    PAW grid and wavefunctions read in
 
   number of l-projection  operators is LMAX  =           5
   number of lm-projection operators is LMMAX =          13
 
 POTCAR:   PAW_PBE Mo 08Apr2002                   
   VRHFIN =Mo: 4p5s4d                                                                               
   LEXCH  = PE                                                                                      
   EATOM  =   217.5180 eV,   15.9871 Ry                                                             
                                                                                                    
   TITEL  = PAW_PBE Mo 08Apr2002                                                                    
   LULTRA =        F    use ultrasoft PP ?                                                          
   IUNSCR =        1    unscreen: 0-lin 1-nonlin 2-no                                               
   RPACOR =    2.200    partial core radius                                                         
   POMASS =   95.940; ZVAL   =    6.000    mass and valenz                                          
   RCORE  =    2.750    outmost cutoff radius                                                       
   RWIGS  =    2.750; RWIGS  =    1.455    wigner-seitz radius (au A)                               
   ENMAX  =  224.584; ENMIN  =  168.438 eV                                                          
   RCLOC  =    2.111    cutoff for local pot                                                        
   LCOR   =        T    correct aug charges                                                         
   LPAW   =        T    paw PP                                                                      
   EAUG   =  345.278                                                                                
   DEXC   =    -.088                                                                                
   RMAX   =    3.077    core radius for proj-oper                                                   
   RAUG   =    1.300    factor for augmentation sphere                                              
   RDEP   =    2.815    radius for radial grids                                                     
   QCUT   =   -4.063; QGAM   =    8.126    optimization parameters                                  
                                                                                                    
   Description                                                                                      
     l     E      TYP  RCUT    TYP  RCUT                                                            
     2   .000     23  2.500                                                                         
     2   .000     23  2.500                                                                         
     0   .000     23  2.600                                                                         
     0  1.000     23  2.600                                                                         
     1   .400     23  2.750                                                                         
     1  2.000     23  2.750                                                                         
     3   .000      7   .000                                                                         
  local pseudopotential read in
  partial core-charges read in
  atomic valenz-charges read in
  non local Contribution for L=           2  read in
    real space projection operators read in
  non local Contribution for L=           2  read in
    real space projection operators read in
  non local Contribution for L=           0  read in
    real space projection operators read in
  non local Contribution for L=           0  read in
    real space projection operators read in
  non local Contribution for L=           1  read in
    real space projection operators read in
  non local Contribution for L=           1  read in
    real space projection operators read in
    PAW grid and wavefunctions read in
 
   number of l-projection  operators is LMAX  =           6
   number of lm-projection operators is LMMAX =          18
 
 -----------------------------------------------------------------------------
|                                                                             |
|               ----> ADVICE to this user running VASP <----                  |
|                                                                             |
|     You have a (more or less) 'large supercell' and for larger cells it     |
|     might be more efficient to use real-space projection operators.         |
|     Therefore, try LREAL= Auto in the INCAR file.                           |
|     Mind: If you want to do very accurate calculations, keep the            |
|     reciprocal projection scheme (i.e. LREAL=.FALSE.).                      |
|                                                                             |
 -----------------------------------------------------------------------------

 PAW_PBE Te 08Apr2002                   :
 energy of atom  1       EATOM= -223.2721
 kinetic energy error for atom=    0.0006 (will be added to EATOM!!)
 PAW_PBE Mo 08Apr2002                   :
 energy of atom  2       EATOM= -217.5180
 kinetic energy error for atom=    0.0009 (will be added to EATOM!!)
 
 
 POSCAR: Te Mo
  positions in cartesian coordinates
  No initial velocities read in
 exchange correlation table for  LEXCH =        8
   RHO(1)=    0.500       N(1)  =     2000
   RHO(2)=  100.500       N(2)  =     4000
 


--------------------------------------------------------------------------------------------------------


 ion  position               nearest neighbor table
   1  0.222  0.111  0.683-  40 2.69  41 2.69  37 2.71   2 3.43   3 3.44   7 3.51   4 3.52  19 3.56
                             5 3.57   9 3.57
   2  0.222  0.444  0.683-  41 2.68  42 2.69  38 2.72   1 3.43   3 3.44   5 3.52   8 3.53   7 3.56
                            20 3.56   6 3.57
   3  0.222  0.777  0.683-  42 2.67  40 2.69  39 2.71   2 3.44   1 3.44   9 3.52   6 3.52  21 3.55
                             8 3.56   4 3.57
   4  0.555  0.111  0.683-  44 2.68  43 2.69  40 2.71   5 3.43   6 3.44   1 3.52   7 3.53  22 3.55
                             3 3.57   8 3.58
   5  0.556  0.444  0.683-  44 2.67  45 2.69  41 2.71   4 3.43   6 3.43   8 3.51   2 3.52  23 3.54
                             9 3.57   1 3.57
   6  0.555  0.777  0.683-  45 2.68  43 2.69  42 2.70   5 3.43   4 3.44   3 3.52   9 3.52  24 3.56
                             2 3.57   7 3.58
   7  0.890  0.112  0.683-  38 2.68  37 2.68  43 2.72   8 3.44   9 3.44   1 3.51   4 3.53  25 3.55
                             2 3.56   6 3.58
   8  0.889  0.445  0.683-  38 2.68  39 2.68  44 2.71   9 3.42   7 3.44   5 3.51   2 3.53  26 3.55
                             3 3.56   4 3.58
   9  0.889  0.778  0.683-  39 2.67  37 2.68  45 2.71   8 3.42   7 3.44   3 3.52   6 3.52  27 3.55
                             5 3.57   1 3.57
  10  0.000  0.111  0.438-  46 2.68  47 2.69  52 2.71  12 3.43  11 3.43  13 3.52  16 3.53  28 3.55
                            14 3.57  18 3.57
  11  1.000  0.444  0.438-  47 2.69  48 2.69  53 2.71  10 3.43  12 3.44  14 3.52  17 3.52  29 3.56
                            16 3.57  15 3.58
  12  1.000  0.778  0.438-  46 2.68  48 2.69  54 2.72  10 3.43  11 3.44  18 3.52  15 3.52  30 3.56
                            17 3.57  13 3.57
  13  0.333  0.111  0.438-  49 2.69  50 2.69  46 2.71  14 3.43  15 3.44  16 3.51  10 3.52  31 3.56
                            17 3.57  12 3.57
  14  0.333  0.444  0.438-  50 2.69  51 2.69  47 2.71  13 3.43  15 3.44  17 3.51  11 3.52  32 3.56
                            10 3.57  18 3.57
  15  0.333  0.778  0.438-  51 2.69  49 2.69  48 2.71  14 3.44  13 3.44  18 3.52  12 3.52  33 3.55
                            16 3.57  11 3.58
  16  0.666  0.111  0.438-  52 2.68  53 2.68  49 2.71  17 3.44  18 3.44  13 3.51  10 3.53  34 3.55
                            15 3.57  11 3.57
  17  0.666  0.445  0.438-  54 2.69  53 2.69  50 2.71  18 3.43  16 3.44  14 3.51  11 3.52  35 3.55
                            12 3.57  13 3.57
  18  0.667  0.778  0.438-  54 2.69  52 2.69  51 2.72  17 3.43  16 3.44  12 3.52  15 3.52  36 3.55
                            10 3.57  14 3.57
  19  0.223  0.112  0.562-  40 2.66  41 2.69  37 2.75  20 3.43  21 3.44  22 3.52  25 3.52   1 3.56
                            23 3.57  27 3.57
  20  0.222  0.444  0.562-  41 2.65  42 2.70  38 2.75  19 3.43  21 3.44  23 3.51  26 3.52   2 3.56
                            24 3.57  25 3.57
  21  0.222  0.778  0.562-  42 2.66  40 2.70  39 2.74  20 3.44  19 3.44  27 3.52  24 3.53   3 3.55
                            22 3.57  26 3.58
  22  0.555  0.111  0.562-  43 2.65  44 2.70  40 2.74  24 3.44  23 3.44  19 3.52  25 3.52   4 3.55
                            26 3.57  21 3.57
  23  0.555  0.445  0.562-  44 2.66  45 2.69  41 2.74  24 3.42  22 3.44  20 3.51  26 3.52   5 3.54
                            19 3.57  27 3.57
  24  0.556  0.778  0.562-  45 2.64  43 2.69  42 2.75  23 3.42  22 3.44  27 3.51  21 3.53   6 3.56
                            25 3.57  20 3.57
  25  0.889  0.111  0.562-  37 2.66  38 2.70  43 2.74  27 3.43  26 3.43  22 3.52  19 3.52   7 3.55
                            24 3.57  20 3.57
  26  0.888  0.444  0.562-  38 2.65  39 2.70  44 2.74  25 3.43  27 3.44  23 3.52  20 3.52   8 3.55
                            22 3.57  21 3.58
  27  0.889  0.778  0.562-  39 2.66  37 2.69  45 2.74  25 3.43  26 3.44  24 3.51  21 3.52   9 3.55
                            23 3.57  19 3.57
  28  1.000  0.111  0.317-  46 2.66  47 2.69  52 2.74  29 3.43  30 3.44  31 3.52  34 3.52  10 3.55
                            36 3.57  32 3.58
  29  0.000  0.445  0.317-  47 2.65  48 2.70  53 2.74  30 3.43  28 3.43  32 3.52  35 3.53  11 3.56
                            33 3.57  34 3.58
  30  1.000  0.777  0.317-  48 2.66  46 2.70  54 2.74  29 3.43  28 3.44  33 3.52  36 3.52  12 3.56
                            35 3.56  31 3.58
  31  0.333  0.112  0.317-  49 2.65  50 2.69  46 2.74  32 3.43  33 3.44  28 3.52  34 3.52  13 3.56
                            35 3.57  30 3.58
  32  0.334  0.445  0.317-  50 2.66  51 2.69  47 2.75  31 3.43  33 3.43  35 3.51  29 3.52  14 3.56
                            36 3.57  28 3.58
  33  0.334  0.778  0.317-  51 2.65  49 2.69  48 2.74  32 3.43  31 3.44  36 3.52  30 3.52  15 3.55
                            34 3.57  29 3.57
  34  0.666  0.111  0.317-  52 2.66  53 2.69  49 2.74  36 3.44  35 3.44  31 3.52  28 3.52  16 3.55
                            33 3.57  29 3.58
  35  0.667  0.445  0.317-  53 2.65  54 2.68  50 2.73  36 3.43  34 3.44  32 3.51  29 3.53  17 3.55
                            30 3.56  31 3.57
  36  0.667  0.778  0.317-  54 2.65  52 2.70  51 2.74  35 3.43  34 3.44  33 3.52  30 3.52  18 3.55
                            32 3.57  28 3.57
  37  1.000  1.000  0.623-  25 2.66   7 2.68   9 2.68  27 2.69   1 2.71  19 2.75  39 3.43  38 3.44

  38  0.999  0.333  0.623-  26 2.65   7 2.68   8 2.68  25 2.70   2 2.72  20 2.75  39 3.44  37 3.44

  39  0.000  0.667  0.622-  27 2.66   9 2.67   8 2.68  26 2.70   3 2.71  21 2.74  37 3.43  38 3.44

  40  0.333  0.000  0.622-  19 2.66   1 2.69   3 2.69  21 2.70   4 2.71  22 2.74  41 3.43  42 3.44

  41  0.333  0.333  0.622-  20 2.65   2 2.68   1 2.69  19 2.69   5 2.71  23 2.74  40 3.43  42 3.44

  42  0.333  0.667  0.623-  21 2.66   3 2.67   2 2.69  20 2.70   6 2.70  24 2.75  41 3.44  40 3.44

  43  0.667  1.000  0.622-  22 2.65   4 2.69  24 2.69   6 2.69   7 2.72  25 2.74  45 3.43  44 3.43

  44  0.666  0.333  0.623-  23 2.66   5 2.67   4 2.68  22 2.70   8 2.71  26 2.74  43 3.43  45 3.44

  45  0.667  0.667  0.622-  24 2.64   6 2.68  23 2.69   5 2.69   9 2.71  27 2.74  43 3.43  44 3.44

  46  0.111  1.000  0.378-  28 2.66  10 2.68  12 2.68  30 2.70  13 2.71  31 2.74  47 3.44  48 3.44

  47  0.111  0.333  0.378-  29 2.65  11 2.69  10 2.69  28 2.69  14 2.71  32 2.75  48 3.43  46 3.44

  48  0.112  0.667  0.378-  30 2.66  12 2.69  11 2.69  29 2.70  15 2.71  33 2.74  47 3.43  46 3.44

  49  0.444  1.000  0.378-  31 2.65  33 2.69  15 2.69  13 2.69  16 2.71  34 2.74  50 3.43  51 3.44

  50  0.445  0.333  0.378-  32 2.66  14 2.69  31 2.69  13 2.69  17 2.71  35 2.73  49 3.43  51 3.44

  51  0.444  0.667  0.378-  33 2.65  15 2.69  14 2.69  32 2.69  18 2.72  36 2.74  49 3.44  50 3.44

  52  0.778  0.001  0.378-  34 2.66  16 2.68  18 2.69  36 2.70  10 2.71  28 2.74  53 3.43  54 3.44

  53  0.778  0.333  0.378-  35 2.65  16 2.68  34 2.69  17 2.69  11 2.71  29 2.74  52 3.43  54 3.44

  54  0.777  0.667  0.377-  36 2.65  35 2.68  18 2.69  17 2.69  12 2.72  30 2.74  53 3.44  52 3.44

 

IMPORTANT INFORMATION: All symmetrisations will be switched off!
NOSYMM: (Re-)initialisation of all symmetry stuff for point group C_1.


----------------------------------------------------------------------------------------

                                     Primitive cell                                     

  volume of cell :    2821.1330

  direct lattice vectors                    reciprocal lattice vectors
    10.559626424  0.000000000  0.000000000     0.094700320  0.050835466  0.001085395
    -4.874941595  9.081426069  0.000000000     0.000000000  0.110114864 -0.000264811
    -0.375154004  0.070747470 29.418528666     0.000000000  0.000000000  0.033992183

  length of vectors
    10.559626424 10.307150673 29.421005670     0.107487549  0.110115183  0.033992183

  position of ions in fractional coordinates (direct lattice)
     0.222268964  0.111291018  0.682843450
     0.222377525  0.443871475  0.683013144
     0.222191904  0.777298494  0.682585893
     0.555105056  0.110978402  0.682637341
     0.556012167  0.444149551  0.682545105
     0.555231893  0.776979306  0.682782624
     0.889677427  0.111698549  0.682662055
     0.889070063  0.445260841  0.682723493
     0.889236496  0.777513094  0.682567197
     0.000178676  0.111111185  0.438092456
     0.999581500  0.444061776  0.438133411
     0.999787554  0.777909666  0.437985602
     0.333260281  0.111417481  0.438195115
     0.333285700  0.444347767  0.438073429
     0.333354637  0.777852358  0.438122593
     0.665976321  0.111211975  0.437895243
     0.666388498  0.444960358  0.438105367
     0.666679303  0.777800507  0.438102220
     0.222520248  0.111941204  0.561697222
     0.222223274  0.444458999  0.561884415
     0.222141698  0.777687305  0.561831024
     0.555301140  0.110991166  0.561813698
     0.555403235  0.445120330  0.562052338
     0.556052896  0.777639062  0.561919515
     0.888555163  0.110951610  0.561940203
     0.888371689  0.443948652  0.562067046
     0.888900427  0.778389550  0.561740618
     0.999646206  0.111098849  0.317317719
     0.000348845  0.444603524  0.317251301
     0.999840386  0.777118673  0.317101836
     0.333072428  0.111676606  0.317242165
     0.333720402  0.444857495  0.316966652
     0.333565768  0.777893388  0.317306604
     0.666101024  0.111185056  0.317318626
     0.666684968  0.445304160  0.317369046
     0.666598604  0.777809544  0.317270917
     0.999937695  0.999715145  0.622502976
     0.999221875  0.333023044  0.622546071
     0.000215711  0.667134293  0.622477712
     0.333349106  0.000096542  0.622309400
     0.333318181  0.333332984  0.622347419
     0.333454255  0.666764461  0.622655427
     0.666547644  0.999846640  0.622281462
     0.666365370  0.332988374  0.622530559
     0.666878839  0.667321531  0.622129796
     0.110783735  0.999782258  0.377816940
     0.111149790  0.333344371  0.377645213
     0.111824630  0.666609596  0.377834473
     0.443521422  0.999568344  0.377539264
     0.445045268  0.333413579  0.377597407
     0.444187428  0.666607556  0.377599020
     0.778256497  0.000501999  0.377829042
     0.777753758  0.333233612  0.377621616
     0.777460351  0.666609685  0.377480804

  ion indices of the primitive-cell ions
   primitive index   ion index
                 1           1
                 2           2
                 3           3
                 4           4
                 5           5
                 6           6
                 7           7
                 8           8
                 9           9
                10          10
                11          11
                12          12
                13          13
                14          14
                15          15
                16          16
                17          17
                18          18
                19          19
                20          20
                21          21
                22          22
                23          23
                24          24
                25          25
                26          26
                27          27
                28          28
                29          29
                30          30
                31          31
                32          32
                33          33
                34          34
                35          35
                36          36
                37          37
                38          38
                39          39
                40          40
                41          41
                42          42
                43          43
                44          44
                45          45
                46          46
                47          47
                48          48
                49          49
                50          50
                51          51
                52          52
                53          53
                54          54

----------------------------------------------------------------------------------------

 
 

Automatic generation of k-mesh.
 generate k-points for:    3    3    1
Space group operators:
 irot       det(A)        alpha          n_x          n_y          n_z        tau_x        tau_y        tau_z
    1     1.000000     0.000000     1.000000     0.000000     0.000000     0.000000     0.000000     0.000000
 
 Subroutine IBZKPT returns following result:
 ===========================================
 
 Found      5 irreducible k-points:
 
 Following reciprocal coordinates:
            Coordinates               Weight
  0.000000  0.000000  0.000000      1.000000
  0.333333  0.000000  0.000000      2.000000
  0.000000  0.333333  0.000000      2.000000
  0.333333  0.333333  0.000000      2.000000
 -0.333333  0.333333  0.000000      2.000000
 
 Following cartesian coordinates:
            Coordinates               Weight
  0.000000  0.000000  0.000000      1.000000
  0.031567  0.016945  0.000362      2.000000
  0.000000  0.036705 -0.000088      2.000000
  0.031567  0.053650  0.000274      2.000000
 -0.031567  0.019760 -0.000450      2.000000
 


--------------------------------------------------------------------------------------------------------




 Dimension of arrays:
   k-points           NKPTS =      5   k-points in BZ     NKDIM =      5   number of bands    NBANDS=    200
   number of dos      NEDOS =    301   number of ions     NIONS =     54
   non local maximal  LDIM  =      6   non local SUM 2l+1 LMDIM =     18
   total plane-waves  NPLWV = ******
   max r-space proj   IRMAX =      1   max aug-charges    IRDMAX=  36900
   dimension x,y,z NGX =    84 NGY =   80 NGZ =  240
   dimension x,y,z NGXF=   168 NGYF=  160 NGZF=  480
   support grid    NGXF=   168 NGYF=  160 NGZF=  480
   ions per type =              36  18
   NGX,Y,Z   is equivalent  to a cutoff of  13.22, 12.90, 13.56 a.u.
   NGXF,Y,Z  is equivalent  to a cutoff of  26.45, 25.81, 27.12 a.u.

 SYSTEM =  dpgen_md                                
 POSCAR =  Te Mo                                   

 Startparameter for this run:
   NWRITE =      2    write-flag & timer
   PREC   = a         normal or accurate (medium, high low for compatibility)
   ISTART =      0    job   : 0-new  1-cont  2-samecut
   ICHARG =      2    charge: 1-file 2-atom 10-const
   ISPIN  =      1    spin polarized calculation?
   LNONCOLLINEAR =      F non collinear calculations
   LSORBIT =      F    spin-orbit coupling
   INIWAV =      1    electr: 0-lowe 1-rand  2-diag
   LASPH  =      F    aspherical Exc in radial PAW
   METAGGA=      F    non-selfconsistent MetaGGA calc.

 Electronic Relaxation 1
   ENCUT  =  550.0 eV  40.42 Ry    6.36 a.u.  20.19 19.71 56.26*2*pi/ulx,y,z
   ENINI  =  550.0     initial cutoff
   ENAUG  =  368.8 eV  augmentation charge cutoff
   NELM   =    100;   NELMIN=  6; NELMDL= -5     # of ELM steps 
   EDIFF  = 0.1E-05   stopping-criterion for ELM
   LREAL  =      F    real-space projection
   NLSPLINE    = F    spline interpolate recip. space projectors
   LCOMPAT=      F    compatible to vasp.4.4
   GGA_COMPAT  = T    GGA compatible to vasp.4.4-vasp.4.6
   LMAXPAW     = -100 max onsite density
   LMAXMIX     =    2 max onsite mixed and CHGCAR
   VOSKOWN=      0    Vosko Wilk Nusair interpolation
   ROPT   =    0.00000   0.00000
 Ionic relaxation
   EDIFFG = 0.1E-04   stopping-criterion for IOM
   NSW    =     10    number of steps for IOM
   NBLOCK =      1;   KBLOCK =      1    inner block; outer block 
   IBRION =      0    ionic relax: 0-MD 1-quasi-New 2-CG
   NFREE  =      0    steps in history (QN), initial steepest desc. (CG)
   ISIF   =      2    stress and relaxation
   IWAVPR =     11    prediction:  0-non 1-charg 2-wave 3-comb
   ISYM   =      0    0-nonsym 1-usesym 2-fastsym
   LCORR  =      T    Harris-Foulkes like correction to forces

   POTIM  = 2.0000    time-step for ionic-motion
   TEIN   =  100.0    initial temperature
   TEBEG  =  100.0;   TEEND  = 100.0 temperature during run
   SMASS  =   0.04    Nose mass-parameter (am)
   estimated Nose-frequenzy (Omega)   =  0.79E+14 period in steps = 0.40E+02 mass=   0.327E-28a.u.
   SCALEE = 1.0000    scale energy and forces
   NPACO  =    256;   APACO  = 16.0  distance and # of slots for P.C.
   PSTRESS=    0.0 pullay stress

  Mass of Ions in am
   POMASS = 127.60 95.94
  Ionic Valenz
   ZVAL   =   6.00  6.00
  Atomic Wigner-Seitz radii
   RWIGS  =  -1.00 -1.00
  virtual crystal weights 
   VCA    =   1.00  1.00
   NELECT =     324.0000    total number of electrons
   NUPDOWN=      -1.0000    fix difference up-down

 DOS related values:
   EMIN   =  10.00;   EMAX   =-10.00  energy-range for DOS
   EFERMI =   0.00
   ISMEAR =     0;   SIGMA  =   0.10  broadening in eV -4-tet -1-fermi 0-gaus

 Electronic relaxation 2 (details)
   IALGO  =     68    algorithm
   LDIAG  =      T    sub-space diagonalisation (order eigenvalues)
   LSUBROT=      F    optimize rotation matrix (better conditioning)
   TURBO    =      0    0=normal 1=particle mesh
   IRESTART =      0    0=no restart 2=restart with 2 vectors
   NREBOOT  =      0    no. of reboots
   NMIN     =      0    reboot dimension
   EREF     =   0.00    reference energy to select bands
   IMIX   =      4    mixing-type and parameters
     AMIX     =   0.40;   BMIX     =  1.00
     AMIX_MAG =   1.60;   BMIX_MAG =  1.00
     AMIN     =   0.10
     WC   =   100.;   INIMIX=   1;  MIXPRE=   1;  MAXMIX= -45

 Intra band minimization:
   WEIMIN = 0.0010     energy-eigenvalue tresh-hold
   EBREAK =  0.13E-08  absolut break condition
   DEPER  =   0.30     relativ break condition  

   TIME   =   0.40     timestep for ELM

  volume/ion in A,a.u.               =      52.24       352.55
  Fermi-wavevector in a.u.,A,eV,Ry     =   0.795760  1.503768  8.615666  0.633234
  Thomas-Fermi vector in A             =   1.902151
 
 Write flags
   LWAVE        =      F    write WAVECAR
   LDOWNSAMPLE  =      F    k-point downsampling of WAVECAR
   LCHARG       =      F    write CHGCAR
   LVTOT        =      F    write LOCPOT, total local potential
   LVHAR        =      F    write LOCPOT, Hartree potential only
   LELF         =      F    write electronic localiz. function (ELF)
   LORBIT       =      0    0 simple, 1 ext, 2 COOP (PROOUT), +10 PAW based schemes


 Dipole corrections
   LMONO  =      F    monopole corrections only (constant potential shift)
   LDIPOL =      F    correct potential (dipole corrections)
   IDIPOL =      0    1-x, 2-y, 3-z, 4-all directions 
   EPSILON=  1.0000000 bulk dielectric constant

 Exchange correlation treatment:
   GGA     =    --    GGA type
   LEXCH   =     8    internal setting for exchange type
   VOSKOWN=      0    Vosko Wilk Nusair interpolation
   LHFCALC =     F    Hartree Fock is set to
   LHFONE  =     F    Hartree Fock one center treatment
   AEXX    =    0.0000 exact exchange contribution

 Linear response parameters
   LEPSILON=     F    determine dielectric tensor
   LRPA    =     F    only Hartree local field effects (RPA)
   LNABLA  =     F    use nabla operator in PAW spheres
   LVEL    =     F    velocity operator in full k-point grid
   LINTERFAST=   F  fast interpolation
   KINTER  =     0    interpolate to denser k-point grid
   CSHIFT  =0.1000    complex shift for real part using Kramers Kronig
   OMEGAMAX=  -1.0    maximum frequency
   DEG_THRESHOLD= 0.2000000E-02 threshold for treating states as degnerate
   RTIME   =   -0.100 relaxation time in fs
  (WPLASMAI=    0.000 imaginary part of plasma frequency in eV, 0.658/RTIME)
   DFIELD  = 0.0000000 0.0000000 0.0000000 field for delta impulse in time
 
 Orbital magnetization related:
   ORBITALMAG=     F  switch on orbital magnetization
   LCHIMAG   =     F  perturbation theory with respect to B field
   DQ        =  0.001000  dq finite difference perturbation B field
   LLRAUG    =     F  two centre corrections for induced B field



--------------------------------------------------------------------------------------------------------


 molecular dynamics for ions
   using nose mass (canonical ensemble)
 charge density and potential will be updated during run
 non-spin polarized calculation
 RMM-DIIS sequential band-by-band and
  variant of blocked Davidson during initial phase
 perform sub-space diagonalisation
    before iterative eigenvector-optimisation
 modified Broyden-mixing scheme, WC =      100.0
 initial mixing is a Kerker type mixing with AMIX =  0.4000 and BMIX =      1.0000
 Hartree-type preconditioning will be used
 using additional bands           38
 reciprocal scheme for non local part
 use partial core corrections
 calculate Harris-corrections to forces 
   (improved forces if not selfconsistent)
 use gradient corrections 
 use of overlap-Matrix (Vanderbilt PP)
 Gauss-broadening in eV      SIGMA  =   0.10


--------------------------------------------------------------------------------------------------------


  energy-cutoff  :      550.00
  volume of cell :     2821.13
      direct lattice vectors                 reciprocal lattice vectors
    10.559626424  0.000000000  0.000000000     0.094700320  0.050835466  0.001085395
    -4.874941595  9.081426069  0.000000000     0.000000000  0.110114864 -0.000264811
    -0.375154004  0.070747470 29.418528666     0.000000000  0.000000000  0.033992183

  length of vectors
    10.559626424 10.307150673 29.421005670     0.107487549  0.110115183  0.033992183


 
 k-points in units of 2pi/SCALE and weight: read from INCAR                         
   0.00000000  0.00000000  0.00000000       0.111
   0.03156677  0.01694516  0.00036180       0.222
   0.00000000  0.03670495 -0.00008827       0.222
   0.03156677  0.05365011  0.00027353       0.222
  -0.03156677  0.01975980 -0.00045007       0.222
 
 k-points in reciprocal lattice and weights: read from INCAR                         
   0.00000000  0.00000000  0.00000000       0.111
   0.33333333  0.00000000  0.00000000       0.222
   0.00000000  0.33333333  0.00000000       0.222
   0.33333333  0.33333333  0.00000000       0.222
  -0.33333333  0.33333333  0.00000000       0.222
 
 position of ions in fractional coordinates (direct lattice) 
   0.22226896  0.11129102  0.68284345
   0.22237753  0.44387148  0.68301314
   0.22219190  0.77729849  0.68258589
   0.55510506  0.11097840  0.68263734
   0.55601217  0.44414955  0.68254510
   0.55523189  0.77697931  0.68278262
   0.88967743  0.11169855  0.68266206
   0.88907006  0.44526084  0.68272349
   0.88923650  0.77751309  0.68256720
   0.00017868  0.11111118  0.43809246
   0.99958150  0.44406178  0.43813341
   0.99978755  0.77790967  0.43798560
   0.33326028  0.11141748  0.43819511
   0.33328570  0.44434777  0.43807343
   0.33335464  0.77785236  0.43812259
   0.66597632  0.11121198  0.43789524
   0.66638850  0.44496036  0.43810537
   0.66667930  0.77780051  0.43810222
   0.22252025  0.11194120  0.56169722
   0.22222327  0.44445900  0.56188441
   0.22214170  0.77768730  0.56183102
   0.55530114  0.11099117  0.56181370
   0.55540324  0.44512033  0.56205234
   0.55605290  0.77763906  0.56191951
   0.88855516  0.11095161  0.56194020
   0.88837169  0.44394865  0.56206705
   0.88890043  0.77838955  0.56174062
   0.99964621  0.11109885  0.31731772
   0.00034884  0.44460352  0.31725130
   0.99984039  0.77711867  0.31710184
   0.33307243  0.11167661  0.31724216
   0.33372040  0.44485749  0.31696665
   0.33356577  0.77789339  0.31730660
   0.66610102  0.11118506  0.31731863
   0.66668497  0.44530416  0.31736905
   0.66659860  0.77780954  0.31727092
   0.99993770  0.99971514  0.62250298
   0.99922188  0.33302304  0.62254607
   0.00021571  0.66713429  0.62247771
   0.33334911  0.00009654  0.62230940
   0.33331818  0.33333298  0.62234742
   0.33345425  0.66676446  0.62265543
   0.66654764  0.99984664  0.62228146
   0.66636537  0.33298837  0.62253056
   0.66687884  0.66732153  0.62212980
   0.11078374  0.99978226  0.37781694
   0.11114979  0.33334437  0.37764521
   0.11182463  0.66660960  0.37783447
   0.44352142  0.99956834  0.37753926
   0.44504527  0.33341358  0.37759741
   0.44418743  0.66660756  0.37759902
   0.77825650  0.00050200  0.37782904
   0.77775376  0.33323361  0.37762162
   0.77746035  0.66660968  0.37748080
 
 position of ions in cartesian coordinates  (Angst):
   1.54836855  1.05899060 20.08824961
  -0.07185904  4.07930744 20.09324176
  -1.69909609  7.10727003 20.08067265
   5.06459466  1.05613702 20.08218620
   3.45001811  4.08179965 20.07947272
   1.81916399  7.10438527 20.08646020
   8.59403396  1.06267873 20.08291325
   6.96150068  4.09190437 20.08472066
   5.34360646  7.10921758 20.08012264
  -0.70412592  1.04004194 12.88803546
   8.22606450  4.06371102 12.88924032
   6.60080683  7.09551549 12.88489200
   2.81155970  1.04283081 12.89105554
   1.18885807  4.06630398 12.88747573
  -0.43624783  7.09500475 12.88892206
   6.32603112  1.04094331 12.88223376
   4.70330086  4.07186944 12.88841529
   3.08379654  7.09453242 12.88832272
   1.59330090  1.05632442 16.52430582
  -0.03091009  4.07607344 16.52981276
  -1.65622000  7.10225788 16.52824210
   5.11193048  1.04770496 16.52773238
   3.48405888  4.08209115 16.53475282
   1.86995949  7.10182603 16.53084535
   8.63111385  1.04735469 16.53145396
   7.00578771  4.07145169 16.53518552
   5.38111360  7.10862888 16.52558246
   9.89524708  1.03138541  9.33502043
  -2.28275064  4.06007876  9.33306650
   6.65057080  7.07977993  9.32866944
   2.85368881  1.03662693  9.33279772
   1.23639716  4.06236504  9.32469254
  -0.38889378  7.08682993  9.33469342
   6.37271396  1.03216835  9.33504709
   4.75005017  4.06644987  9.33653039
   3.12823069  7.08606598  9.33364358
   5.45188108  9.12287969 18.31312166
   8.69439118  3.06836771 18.31438945
  -3.48348790  6.10256948 18.31237840
   3.28610953  0.04490355 18.30742692
   1.66126052  3.07116836 18.30854537
   0.03712288  6.09922345 18.31760653
   1.93084876  9.12405818 18.30660502
   5.17972566  3.06805177 18.31393308
   3.55544344  6.10424526 18.30214323
  -3.84578480  9.10617826 11.11481849
  -0.59300920  3.05395970 11.10976654
  -2.21060265  6.08049660 11.11533427
  -0.33105214  9.10421596 11.10664966
   2.93248286  3.05458483 11.10836015
   1.29912261  6.08046141 11.10840760
   8.07390657  0.03128931 11.11517451
   6.44662847  3.05295219 11.10907235
   4.81839415  6.08047238 11.10492986
 


--------------------------------------------------------------------------------------------------------


 k-point   1 :   0.0000 0.0000 0.0000  plane waves:   82679
 k-point   2 :   0.3333 0.0000 0.0000  plane waves:   82646
 k-point   3 :   0.0000 0.3333 0.0000  plane waves:   82617
 k-point   4 :   0.3333 0.3333 0.0000  plane waves:   82622
 k-point   5 :  -0.3333 0.3333 0.0000  plane waves:   82641

 maximum and minimum number of plane-waves per node :     82679    82617

 maximum number of plane-waves:     82679
 maximum index in each direction: 
   IXMAX=   20   IYMAX=   19   IZMAX=   56
   IXMIN=  -20   IYMIN=  -20   IZMIN=  -56


 serial   3D FFT for wavefunctions
 parallel 3D FFT for charge:
    minimum data exchange during FFTs selected (reduces bandwidth)


 total amount of memory used by VASP MPI-rank0   359896. kBytes
=======================================================================

   base      :      30000. kBytes
   nonl-proj :     190494. kBytes
   fftplans  :      18984. kBytes
   grid      :      86187. kBytes
   one-center:        839. kBytes
   wavefun   :      33392. kBytes
 
     INWAV:  cpu time    0.0001: real time    0.0001
 Broyden mixing: mesh for mixing (old mesh)
   NGX = 41   NGY = 39   NGZ =113
  (NGX  =168   NGY  =160   NGZ  =480)
  gives a total of 180687 points

 initial charge density was supplied:
 charge density of overlapping atoms calculated
 number of electron     324.0000000 magnetization 
 keeping initial charge density in first step


--------------------------------------------------------------------------------------------------------


 Maximum index for augmentation-charges         2255 (set IRDMAX)


--------------------------------------------------------------------------------------------------------


 First call to EWALD:  gamma=   0.125
 Maximum number of real-space cells 4x 4x 2
 Maximum number of reciprocal cells 2x 2x 5

    FEWALD:  cpu time    0.0053: real time    0.0108


--------------------------------------- Iteration      1(   1)  ---------------------------------------


    POTLOK:  cpu time    0.3153: real time    0.3410
    SETDIJ:  cpu time    0.0232: real time    0.0513
     EDDAV:  cpu time   48.2914: real time   48.6832
       DOS:  cpu time    0.0050: real time    0.0218
    --------------------------------------------
      LOOP:  cpu time   48.6348: real time   49.0973

 eigenvalue-minimisations  :  2000
 total energy-change (2. order) : 0.2129499E+04  (-0.1161367E+05)
 number of electron     324.0000000 magnetization 
 augmentation part      324.0000000 magnetization 

 Free energy of the ion-electron system (eV)
  ---------------------------------------------------
  alpha Z        PSCENC =       254.38935008
  Ewald energy   TEWEN  =     58980.49548076
  -Hartree energ DENC   =    -70692.10306963
  -exchange      EXHF   =         0.00000000
  -V(xc)+E(xc)   XCENC  =     -2097.52861858
  PAW double counting   =      7476.04436201    -4809.59211051
  entropy T*S    EENTRO =        -0.12902536
  eigenvalues    EBANDS =      1064.83993688
  atomic energy  EATOM  =     11953.08265402
  Solvation  Ediel_sol  =         0.00000000
  ---------------------------------------------------
  free energy    TOTEN  =      2129.49895968 eV

  energy without entropy =     2129.62798504  energy(sigma->0) =     2129.56347236


--------------------------------------------------------------------------------------------------------




--------------------------------------- Iteration      1(   2)  ---------------------------------------


     EDDAV:  cpu time   68.4557: real time   68.6338
       DOS:  cpu time    0.0005: real time    0.0005
    --------------------------------------------
      LOOP:  cpu time   68.4562: real time   68.6344

 eigenvalue-minimisations  :  3080
 total energy-change (2. order) :-0.2231788E+04  (-0.2156414E+04)
 number of electron     324.0000000 magnetization 
 augmentation part      324.0000000 magnetization 

 Free energy of the ion-electron system (eV)
  ---------------------------------------------------
  alpha Z        PSCENC =       254.38935008
  Ewald energy   TEWEN  =     58980.49548076
  -Hartree energ DENC   =    -70692.10306963
  -exchange      EXHF   =         0.00000000
  -V(xc)+E(xc)   XCENC  =     -2097.52861858
  PAW double counting   =      7476.04436201    -4809.59211051
  entropy T*S    EENTRO =        -0.00001802
  eigenvalues    EBANDS =     -1167.07679922
  atomic energy  EATOM  =     11953.08265402
  Solvation  Ediel_sol  =         0.00000000
  ---------------------------------------------------
  free energy    TOTEN  =      -102.28876908 eV

  energy without entropy =     -102.28875106  energy(sigma->0) =     -102.28876007


--------------------------------------------------------------------------------------------------------




--------------------------------------- Iteration      1(   3)  ---------------------------------------


     EDDAV:  cpu time   57.3510: real time   57.5181
       DOS:  cpu time    0.0004: real time    0.0004
    --------------------------------------------
      LOOP:  cpu time   57.3515: real time   57.5186

 eigenvalue-minimisations  :  2480
 total energy-change (2. order) :-0.2207603E+03  (-0.2175399E+03)
 number of electron     324.0000000 magnetization 
 augmentation part      324.0000000 magnetization 

 Free energy of the ion-electron system (eV)
  ---------------------------------------------------
  alpha Z        PSCENC =       254.38935008
  Ewald energy   TEWEN  =     58980.49548076
  -Hartree energ DENC   =    -70692.10306963
  -exchange      EXHF   =         0.00000000
  -V(xc)+E(xc)   XCENC  =     -2097.52861858
  PAW double counting   =      7476.04436201    -4809.59211051
  entropy T*S    EENTRO =        -0.00000000
  eigenvalues    EBANDS =     -1387.83714018
  atomic energy  EATOM  =     11953.08265402
  Solvation  Ediel_sol  =         0.00000000
  ---------------------------------------------------
  free energy    TOTEN  =      -323.04909202 eV

  energy without entropy =     -323.04909202  energy(sigma->0) =     -323.04909202


--------------------------------------------------------------------------------------------------------




--------------------------------------- Iteration      1(   4)  ---------------------------------------


     EDDAV:  cpu time   70.0927: real time   70.2930
       DOS:  cpu time    0.0004: real time    0.0004
    --------------------------------------------
      LOOP:  cpu time   70.0931: real time   70.2934

 eigenvalue-minimisations  :  3160
 total energy-change (2. order) :-0.1141702E+02  (-0.1135310E+02)
 number of electron     324.0000000 magnetization 
 augmentation part      324.0000000 magnetization 

 Free energy of the ion-electron system (eV)
  ---------------------------------------------------
  alpha Z        PSCENC =       254.38935008
  Ewald energy   TEWEN  =     58980.49548076
  -Hartree energ DENC   =    -70692.10306963
  -exchange      EXHF   =         0.00000000
  -V(xc)+E(xc)   XCENC  =     -2097.52861858
  PAW double counting   =      7476.04436201    -4809.59211051
  entropy T*S    EENTRO =        -0.00000000
  eigenvalues    EBANDS =     -1399.25415561
  atomic energy  EATOM  =     11953.08265402
  Solvation  Ediel_sol  =         0.00000000
  ---------------------------------------------------
  free energy    TOTEN  =      -334.46610745 eV

  energy without entropy =     -334.46610745  energy(sigma->0) =     -334.46610745


--------------------------------------------------------------------------------------------------------




--------------------------------------- Iteration      1(   5)  ---------------------------------------


     EDDAV:  cpu time   67.0052: real time   67.1854
       DOS:  cpu time    0.0004: real time    0.0004
    CHARGE:  cpu time    1.1969: real time    1.2149
    MIXING:  cpu time    0.0131: real time    0.0169
    --------------------------------------------
      LOOP:  cpu time   68.2156: real time   68.4176

 eigenvalue-minimisations  :  3000
 total energy-change (2. order) :-0.2670175E+00  (-0.2666817E+00)
 number of electron     324.0000000 magnetization 
 augmentation part      -25.1586761 magnetization 

 Broyden mixing:
  rms(total) = 0.18498E+01    rms(broyden)= 0.18498E+01
  rms(prec ) = 0.19580E+01
  weight for this iteration     100.00

 Free energy of the ion-electron system (eV)
  ---------------------------------------------------
  alpha Z        PSCENC =       254.38935008
  Ewald energy   TEWEN  =     58980.49548076
  -Hartree energ DENC   =    -70692.10306963
  -exchange      EXHF   =         0.00000000
  -V(xc)+E(xc)   XCENC  =     -2097.52861858
  PAW double counting   =      7476.04436201    -4809.59211051
  entropy T*S    EENTRO =        -0.00000000
  eigenvalues    EBANDS =     -1399.52117312
  atomic energy  EATOM  =     11953.08265402
  Solvation  Ediel_sol  =         0.00000000
  ---------------------------------------------------
  free energy    TOTEN  =      -334.73312496 eV

  energy without entropy =     -334.73312496  energy(sigma->0) =     -334.73312496


--------------------------------------------------------------------------------------------------------




--------------------------------------- Iteration      1(   6)  ---------------------------------------


    POTLOK:  cpu time    0.2677: real time    0.2679
    SETDIJ:  cpu time    0.0129: real time    0.0129
    EDDIAG:  cpu time    2.6067: real time    2.6191
  RMM-DIIS:  cpu time   41.8109: real time   41.9405
    ORTHCH:  cpu time    0.2032: real time    0.2034
       DOS:  cpu time    0.0005: real time    0.0005
    CHARGE:  cpu time    1.2041: real time    1.2133
    MIXING:  cpu time    0.0082: real time    0.1118
    --------------------------------------------
      LOOP:  cpu time   46.1141: real time   46.3695

 eigenvalue-minimisations  :  2126
 total energy-change (2. order) : 0.8627634E+01  (-0.4321610E+01)
 number of electron     324.0000000 magnetization 
 augmentation part      -20.2957808 magnetization 

 Broyden mixing:
  rms(total) = 0.69662E+00    rms(broyden)= 0.69662E+00
  rms(prec ) = 0.79434E+00
  weight for this iteration     100.00

 eigenvalues of (default mixing * dielectric matrix)
  average eigenvalue GAMMA=   1.1241
  1.1241

 Free energy of the ion-electron system (eV)
  ---------------------------------------------------
  alpha Z        PSCENC =       254.38935008
  Ewald energy   TEWEN  =     58980.49548076
  -Hartree energ DENC   =    -70679.96941545
  -exchange      EXHF   =         0.00000000
  -V(xc)+E(xc)   XCENC  =     -2091.04463131
  PAW double counting   =      7746.68660515    -5092.31268025
  entropy T*S    EENTRO =        -0.00000000
  eigenvalues    EBANDS =     -1397.43285379
  atomic energy  EATOM  =     11953.08265402
  Solvation  Ediel_sol  =         0.00000000
  ---------------------------------------------------
  free energy    TOTEN  =      -326.10549077 eV

  energy without entropy =     -326.10549077  energy(sigma->0) =     -326.10549077


--------------------------------------------------------------------------------------------------------




--------------------------------------- Iteration      1(   7)  ---------------------------------------


    POTLOK:  cpu time    0.2711: real time    0.2714
    SETDIJ:  cpu time    0.0118: real time    0.0118
    EDDIAG:  cpu time    2.5929: real time    2.5956
  RMM-DIIS:  cpu time   38.8102: real time   38.9422
    ORTHCH:  cpu time    0.2131: real time    0.2133
       DOS:  cpu time    0.0004: real time    0.0004
    CHARGE:  cpu time    1.2032: real time    1.2073
    MIXING:  cpu time    0.0071: real time    0.0071
    --------------------------------------------
      LOOP:  cpu time   43.1098: real time   43.2491

 eigenvalue-minimisations  :  2008
 total energy-change (2. order) : 0.2844608E+01  (-0.9313855E+00)
 number of electron     324.0000000 magnetization 
 augmentation part      -21.7221238 magnetization 

 Broyden mixing:
  rms(total) = 0.44909E+00    rms(broyden)= 0.44909E+00
  rms(prec ) = 0.47552E+00
  weight for this iteration     100.00

 eigenvalues of (default mixing * dielectric matrix)
  average eigenvalue GAMMA=   1.4986
  0.7621  2.2351

 Free energy of the ion-electron system (eV)
  ---------------------------------------------------
  alpha Z        PSCENC =       254.38935008
  Ewald energy   TEWEN  =     58980.49548076
  -Hartree energ DENC   =    -70764.46229629
  -exchange      EXHF   =         0.00000000
  -V(xc)+E(xc)   XCENC  =     -2089.18127215
  PAW double counting   =      8077.16658725    -5428.83544779
  entropy T*S    EENTRO =        -0.00000000
  eigenvalues    EBANDS =     -1305.91593849
  atomic energy  EATOM  =     11953.08265402
  Solvation  Ediel_sol  =         0.00000000
  ---------------------------------------------------
  free energy    TOTEN  =      -323.26088260 eV

  energy without entropy =     -323.26088260  energy(sigma->0) =     -323.26088260


--------------------------------------------------------------------------------------------------------




--------------------------------------- Iteration      1(   8)  ---------------------------------------


    POTLOK:  cpu time    0.2681: real time    0.2683
    SETDIJ:  cpu time    0.0118: real time    0.0118
    EDDIAG:  cpu time    2.6433: real time    2.6464
  RMM-DIIS:  cpu time   38.8123: real time   38.9039
    ORTHCH:  cpu time    0.2058: real time    0.2060
       DOS:  cpu time    0.0004: real time    0.0004
    CHARGE:  cpu time    1.2009: real time    1.2021
    MIXING:  cpu time    0.0107: real time    0.0107
    --------------------------------------------
      LOOP:  cpu time   43.1533: real time   43.2495

 eigenvalue-minimisations  :  2002
 total energy-change (2. order) : 0.4242971E+00  (-0.6230681E+00)
 number of electron     324.0000000 magnetization 
 augmentation part      -21.4258913 magnetization 

 Broyden mixing:
  rms(total) = 0.11002E+00    rms(broyden)= 0.11002E+00
  rms(prec ) = 0.12718E+00
  weight for this iteration     100.00

 eigenvalues of (default mixing * dielectric matrix)
  average eigenvalue GAMMA=   1.3430
  2.1349  1.0815  0.8124

 Free energy of the ion-electron system (eV)
  ---------------------------------------------------
  alpha Z        PSCENC =       254.38935008
  Ewald energy   TEWEN  =     58980.49548076
  -Hartree energ DENC   =    -70821.30619311
  -exchange      EXHF   =         0.00000000
  -V(xc)+E(xc)   XCENC  =     -2085.25912372
  PAW double counting   =      8410.00756932    -5768.30981649
  entropy T*S    EENTRO =        -0.00000000
  eigenvalues    EBANDS =     -1245.93650635
  atomic energy  EATOM  =     11953.08265402
  Solvation  Ediel_sol  =         0.00000000
  ---------------------------------------------------
  free energy    TOTEN  =      -322.83658549 eV

  energy without entropy =     -322.83658549  energy(sigma->0) =     -322.83658549


--------------------------------------------------------------------------------------------------------




--------------------------------------- Iteration      1(   9)  ---------------------------------------


    POTLOK:  cpu time    0.2709: real time    0.2711
    SETDIJ:  cpu time    0.0121: real time    0.0121
    EDDIAG:  cpu time    2.6067: real time    2.6093
  RMM-DIIS:  cpu time   43.4183: real time   43.5562
    ORTHCH:  cpu time    0.2085: real time    0.2097
       DOS:  cpu time    0.0004: real time    0.0004
    CHARGE:  cpu time    1.2007: real time    1.2061
    MIXING:  cpu time    0.0073: real time    0.0074
    --------------------------------------------
      LOOP:  cpu time   47.7249: real time   47.8723

 eigenvalue-minimisations  :  2216
 total energy-change (2. order) :-0.4373178E-01  (-0.1178697E+00)
 number of electron     324.0000000 magnetization 
 augmentation part      -21.0477340 magnetization 

 Broyden mixing:
  rms(total) = 0.93191E-01    rms(broyden)= 0.93190E-01
  rms(prec ) = 0.10369E+00
  weight for this iteration     100.00

 eigenvalues of (default mixing * dielectric matrix)
  average eigenvalue GAMMA=   1.2388
  1.8578  1.8578  0.7469  0.4925

 Free energy of the ion-electron system (eV)
  ---------------------------------------------------
  alpha Z        PSCENC =       254.38935008
  Ewald energy   TEWEN  =     58980.49548076
  -Hartree energ DENC   =    -70819.69150623
  -exchange      EXHF   =         0.00000000
  -V(xc)+E(xc)   XCENC  =     -2084.91932580
  PAW double counting   =      8410.25550621    -5768.64419820
  entropy T*S    EENTRO =        -0.00000000
  eigenvalues    EBANDS =     -1247.84827812
  atomic energy  EATOM  =     11953.08265402
  Solvation  Ediel_sol  =         0.00000000
  ---------------------------------------------------
  free energy    TOTEN  =      -322.88031727 eV

  energy without entropy =     -322.88031727  energy(sigma->0) =     -322.88031727


--------------------------------------------------------------------------------------------------------




--------------------------------------- Iteration      1(  10)  ---------------------------------------


    POTLOK:  cpu time    0.2660: real time    0.2663
    SETDIJ:  cpu time    0.0128: real time    0.0128
    EDDIAG:  cpu time    2.5834: real time    2.5904
  RMM-DIIS:  cpu time   46.7375: real time   46.8951
    ORTHCH:  cpu time    0.2107: real time    0.2109
       DOS:  cpu time    0.0004: real time    0.0004
    CHARGE:  cpu time    1.1984: real time    1.1995
    MIXING:  cpu time    0.0074: real time    0.0074
    --------------------------------------------
      LOOP:  cpu time   51.0168: real time   51.1827

 eigenvalue-minimisations  :  2375
 total energy-change (2. order) :-0.3032224E-02  (-0.2989240E-01)
 number of electron     324.0000000 magnetization 
 augmentation part      -20.9636217 magnetization 

 Broyden mixing:
  rms(total) = 0.65507E-01    rms(broyden)= 0.65507E-01
  rms(prec ) = 0.74550E-01
  weight for this iteration     100.00

 eigenvalues of (default mixing * dielectric matrix)
  average eigenvalue GAMMA=   1.3169
  2.3848  1.9442  0.9279  0.9279  0.3998

 Free energy of the ion-electron system (eV)
  ---------------------------------------------------
  alpha Z        PSCENC =       254.38935008
  Ewald energy   TEWEN  =     58980.49548076
  -Hartree energ DENC   =    -70824.49083568
  -exchange      EXHF   =         0.00000000
  -V(xc)+E(xc)   XCENC  =     -2084.71638250
  PAW double counting   =      8428.19370059    -5786.62128196
  entropy T*S    EENTRO =        -0.00000000
  eigenvalues    EBANDS =     -1243.21603482
  atomic energy  EATOM  =     11953.08265402
  Solvation  Ediel_sol  =         0.00000000
  ---------------------------------------------------
  free energy    TOTEN  =      -322.88334949 eV

  energy without entropy =     -322.88334949  energy(sigma->0) =     -322.88334949


--------------------------------------------------------------------------------------------------------




--------------------------------------- Iteration      1(  11)  ---------------------------------------


    POTLOK:  cpu time    0.2786: real time    0.2788
    SETDIJ:  cpu time    0.0116: real time    0.0116
    EDDIAG:  cpu time    2.5707: real time    2.5778
  RMM-DIIS:  cpu time   41.1647: real time   41.2585
    ORTHCH:  cpu time    0.2095: real time    0.2097
       DOS:  cpu time    0.0004: real time    0.0004
    CHARGE:  cpu time    1.1901: real time    1.1912
    MIXING:  cpu time    0.0074: real time    0.0074
    --------------------------------------------
      LOOP:  cpu time   45.4329: real time   45.5353

 eigenvalue-minimisations  :  2118
 total energy-change (2. order) : 0.1011751E-01  (-0.1564854E-01)
 number of electron     324.0000000 magnetization 
 augmentation part      -21.2465546 magnetization 

 Broyden mixing:
  rms(total) = 0.30848E-01    rms(broyden)= 0.30847E-01
  rms(prec ) = 0.35361E-01
  weight for this iteration     100.00

 eigenvalues of (default mixing * dielectric matrix)
  average eigenvalue GAMMA=   1.2534
  2.5282  1.7057  1.4402  0.7274  0.7274  0.3916

 Free energy of the ion-electron system (eV)
  ---------------------------------------------------
  alpha Z        PSCENC =       254.38935008
  Ewald energy   TEWEN  =     58980.49548076
  -Hartree energ DENC   =    -70840.30535611
  -exchange      EXHF   =         0.00000000
  -V(xc)+E(xc)   XCENC  =     -2084.49079098
  PAW double counting   =      8472.43027524    -5831.06003393
  entropy T*S    EENTRO =        -0.00000000
  eigenvalues    EBANDS =     -1227.41481107
  atomic energy  EATOM  =     11953.08265402
  Solvation  Ediel_sol  =         0.00000000
  ---------------------------------------------------
  free energy    TOTEN  =      -322.87323198 eV

  energy without entropy =     -322.87323198  energy(sigma->0) =     -322.87323198


--------------------------------------------------------------------------------------------------------




--------------------------------------- Iteration      1(  12)  ---------------------------------------


    POTLOK:  cpu time    0.2774: real time    0.2776
    SETDIJ:  cpu time    0.0117: real time    0.0117
    EDDIAG:  cpu time    2.6061: real time    2.6129
  RMM-DIIS:  cpu time   47.3391: real time   47.4690
    ORTHCH:  cpu time    0.2107: real time    0.2111
       DOS:  cpu time    0.0005: real time    0.0005
    CHARGE:  cpu time    1.1825: real time    1.1840
    MIXING:  cpu time    0.0076: real time    0.0076
    --------------------------------------------
      LOOP:  cpu time   51.6356: real time   51.7743

 eigenvalue-minimisations  :  2422
 total energy-change (2. order) : 0.3687667E-03  (-0.2733181E-02)
 number of electron     324.0000000 magnetization 
 augmentation part      -21.2363674 magnetization 

 Broyden mixing:
  rms(total) = 0.22410E-01    rms(broyden)= 0.22410E-01
  rms(prec ) = 0.26137E-01
  weight for this iteration     100.00

 eigenvalues of (default mixing * dielectric matrix)
  average eigenvalue GAMMA=   1.2470
  2.5011  1.8908  1.8908  0.8243  0.8243  0.4164  0.3811

 Free energy of the ion-electron system (eV)
  ---------------------------------------------------
  alpha Z        PSCENC =       254.38935008
  Ewald energy   TEWEN  =     58980.49548076
  -Hartree energ DENC   =    -70843.40095216
  -exchange      EXHF   =         0.00000000
  -V(xc)+E(xc)   XCENC  =     -2084.40104630
  PAW double counting   =      8475.17899339    -5833.82054497
  entropy T*S    EENTRO =        -0.00000000
  eigenvalues    EBANDS =     -1224.39679803
  atomic energy  EATOM  =     11953.08265402
  Solvation  Ediel_sol  =         0.00000000
  ---------------------------------------------------
  free energy    TOTEN  =      -322.87286321 eV

  energy without entropy =     -322.87286321  energy(sigma->0) =     -322.87286321


--------------------------------------------------------------------------------------------------------




--------------------------------------- Iteration      1(  13)  ---------------------------------------


    POTLOK:  cpu time    0.2703: real time    0.2707
    SETDIJ:  cpu time    0.0118: real time    0.0118
    EDDIAG:  cpu time    2.5985: real time    2.6136
  RMM-DIIS:  cpu time   45.6994: real time   45.8424
    ORTHCH:  cpu time    0.2091: real time    0.2093
       DOS:  cpu time    0.0004: real time    0.0004
    CHARGE:  cpu time    1.1827: real time    1.1880
    MIXING:  cpu time    0.0076: real time    0.0076
    --------------------------------------------
      LOOP:  cpu time   49.9798: real time   50.1438

 eigenvalue-minimisations  :  2325
 total energy-change (2. order) : 0.8420825E-03  (-0.1744322E-02)
 number of electron     324.0000000 magnetization 
 augmentation part      -21.1446369 magnetization 

 Broyden mixing:
  rms(total) = 0.98143E-02    rms(broyden)= 0.98143E-02
  rms(prec ) = 0.12458E-01
  weight for this iteration     100.00

 eigenvalues of (default mixing * dielectric matrix)
  average eigenvalue GAMMA=   1.3571
  2.7107  2.7107  1.7109  1.2926  0.8142  0.8142  0.4218  0.3819

 Free energy of the ion-electron system (eV)
  ---------------------------------------------------
  alpha Z        PSCENC =       254.38935008
  Ewald energy   TEWEN  =     58980.49548076
  -Hartree energ DENC   =    -70845.83963985
  -exchange      EXHF   =         0.00000000
  -V(xc)+E(xc)   XCENC  =     -2084.32998639
  PAW double counting   =      8471.34839474    -5829.95004597
  entropy T*S    EENTRO =        -0.00000000
  eigenvalues    EBANDS =     -1222.06822854
  atomic energy  EATOM  =     11953.08265402
  Solvation  Ediel_sol  =         0.00000000
  ---------------------------------------------------
  free energy    TOTEN  =      -322.87202113 eV

  energy without entropy =     -322.87202113  energy(sigma->0) =     -322.87202113


--------------------------------------------------------------------------------------------------------




--------------------------------------- Iteration      1(  14)  ---------------------------------------


    POTLOK:  cpu time    0.2761: real time    0.2765
    SETDIJ:  cpu time    0.0117: real time    0.0117
    EDDIAG:  cpu time    2.6101: real time    2.6169
  RMM-DIIS:  cpu time   43.3419: real time   43.4683
    ORTHCH:  cpu time    0.2125: real time    0.2126
       DOS:  cpu time    0.0004: real time    0.0004
    CHARGE:  cpu time    1.1842: real time    1.1855
    MIXING:  cpu time    0.0078: real time    0.0078
    --------------------------------------------
      LOOP:  cpu time   47.6447: real time   47.7797

 eigenvalue-minimisations  :  2208
 total energy-change (2. order) :-0.5979476E-03  (-0.3903306E-03)
 number of electron     324.0000000 magnetization 
 augmentation part      -21.1588503 magnetization 

 Broyden mixing:
  rms(total) = 0.45456E-02    rms(broyden)= 0.45456E-02
  rms(prec ) = 0.63225E-02
  weight for this iteration     100.00

 eigenvalues of (default mixing * dielectric matrix)
  average eigenvalue GAMMA=   1.3500
  3.2075  2.5569  1.6398  1.6398  0.8094  0.8094  0.6828  0.4229  0.3818

 Free energy of the ion-electron system (eV)
  ---------------------------------------------------
  alpha Z        PSCENC =       254.38935008
  Ewald energy   TEWEN  =     58980.49548076
  -Hartree energ DENC   =    -70853.19761908
  -exchange      EXHF   =         0.00000000
  -V(xc)+E(xc)   XCENC  =     -2084.31102637
  PAW double counting   =      8469.94434695    -5828.44677320
  entropy T*S    EENTRO =        -0.00000000
  eigenvalues    EBANDS =     -1214.82903225
  atomic energy  EATOM  =     11953.08265402
  Solvation  Ediel_sol  =         0.00000000
  ---------------------------------------------------
  free energy    TOTEN  =      -322.87261908 eV

  energy without entropy =     -322.87261908  energy(sigma->0) =     -322.87261908


--------------------------------------------------------------------------------------------------------




--------------------------------------- Iteration      1(  15)  ---------------------------------------


    POTLOK:  cpu time    0.2790: real time    0.2793
    SETDIJ:  cpu time    0.0118: real time    0.0119
    EDDIAG:  cpu time    2.5893: real time    2.6044
  RMM-DIIS:  cpu time   50.8410: real time   50.9797
    ORTHCH:  cpu time    0.2141: real time    0.2143
       DOS:  cpu time    0.0004: real time    0.0004
    CHARGE:  cpu time    1.1834: real time    1.1843
    MIXING:  cpu time    0.0079: real time    0.0079
    --------------------------------------------
      LOOP:  cpu time   55.1268: real time   55.2821

 eigenvalue-minimisations  :  2564
 total energy-change (2. order) :-0.7495839E-03  (-0.1583152E-03)
 number of electron     324.0000000 magnetization 
 augmentation part      -21.1645762 magnetization 

 Broyden mixing:
  rms(total) = 0.41001E-02    rms(broyden)= 0.41001E-02
  rms(prec ) = 0.52363E-02
  weight for this iteration     100.00

 eigenvalues of (default mixing * dielectric matrix)
  average eigenvalue GAMMA=   1.3172
  3.3670  2.4845  1.8070  1.8070  0.8086  0.8086  0.8193  0.3816  0.4181  0.4709

 Free energy of the ion-electron system (eV)
  ---------------------------------------------------
  alpha Z        PSCENC =       254.38935008
  Ewald energy   TEWEN  =     58980.49548076
  -Hartree energ DENC   =    -70855.73627312
  -exchange      EXHF   =         0.00000000
  -V(xc)+E(xc)   XCENC  =     -2084.29756115
  PAW double counting   =      8470.08310356    -5828.58974255
  entropy T*S    EENTRO =        -0.00000000
  eigenvalues    EBANDS =     -1212.30038026
  atomic energy  EATOM  =     11953.08265402
  Solvation  Ediel_sol  =         0.00000000
  ---------------------------------------------------
  free energy    TOTEN  =      -322.87336866 eV

  energy without entropy =     -322.87336866  energy(sigma->0) =     -322.87336866


--------------------------------------------------------------------------------------------------------




--------------------------------------- Iteration      1(  16)  ---------------------------------------


    POTLOK:  cpu time    0.2685: real time    0.2688
    SETDIJ:  cpu time    0.0124: real time    0.0124
    EDDIAG:  cpu time    2.6042: real time    2.6111
  RMM-DIIS:  cpu time   47.4687: real time   47.6117
    ORTHCH:  cpu time    0.2145: real time    0.2147
       DOS:  cpu time    0.0004: real time    0.0004
    CHARGE:  cpu time    1.1994: real time    1.2045
    MIXING:  cpu time    0.0080: real time    0.0081
    --------------------------------------------
      LOOP:  cpu time   51.7762: real time   51.9317

 eigenvalue-minimisations  :  2449
 total energy-change (2. order) :-0.7951407E-03  (-0.4108757E-04)
 number of electron     324.0000000 magnetization 
 augmentation part      -21.1649700 magnetization 

 Broyden mixing:
  rms(total) = 0.27799E-02    rms(broyden)= 0.27798E-02
  rms(prec ) = 0.37129E-02
  weight for this iteration     100.00

 eigenvalues of (default mixing * dielectric matrix)
  average eigenvalue GAMMA=   1.3791
  3.8445  2.2638  2.2638  2.0485  1.0691  0.8210  0.8210  0.8325  0.4245  0.3809
  0.4003

 Free energy of the ion-electron system (eV)
  ---------------------------------------------------
  alpha Z        PSCENC =       254.38935008
  Ewald energy   TEWEN  =     58980.49548076
  -Hartree energ DENC   =    -70857.47627957
  -exchange      EXHF   =         0.00000000
  -V(xc)+E(xc)   XCENC  =     -2084.28649407
  PAW double counting   =      8469.73371558    -5828.25440493
  entropy T*S    EENTRO =        -0.00000000
  eigenvalues    EBANDS =     -1210.55818568
  atomic energy  EATOM  =     11953.08265402
  Solvation  Ediel_sol  =         0.00000000
  ---------------------------------------------------
  free energy    TOTEN  =      -322.87416380 eV

  energy without entropy =     -322.87416380  energy(sigma->0) =     -322.87416380


--------------------------------------------------------------------------------------------------------




--------------------------------------- Iteration      1(  17)  ---------------------------------------


    POTLOK:  cpu time    0.2776: real time    0.2779
    SETDIJ:  cpu time    0.0118: real time    0.0118
    EDDIAG:  cpu time    2.6129: real time    2.6198
  RMM-DIIS:  cpu time   40.6349: real time   40.7356
    ORTHCH:  cpu time    0.2129: real time    0.2131
       DOS:  cpu time    0.0004: real time    0.0004
    CHARGE:  cpu time    1.1985: real time    1.1998
    MIXING:  cpu time    0.0081: real time    0.0081
    --------------------------------------------
      LOOP:  cpu time   44.9572: real time   45.0664

 eigenvalue-minimisations  :  2072
 total energy-change (2. order) :-0.1413499E-02  (-0.3346741E-04)
 number of electron     324.0000000 magnetization 
 augmentation part      -21.1618432 magnetization 

 Broyden mixing:
  rms(total) = 0.13637E-02    rms(broyden)= 0.13636E-02
  rms(prec ) = 0.17965E-02
  weight for this iteration     100.00

 eigenvalues of (default mixing * dielectric matrix)
  average eigenvalue GAMMA=   1.4467
  4.5606  2.6527  2.3288  1.6733  1.6733  0.9366  0.8207  0.8207  0.6991  0.4230
  0.3803  0.3915

 Free energy of the ion-electron system (eV)
  ---------------------------------------------------
  alpha Z        PSCENC =       254.38935008
  Ewald energy   TEWEN  =     58980.49548076
  -Hartree energ DENC   =    -70860.72942296
  -exchange      EXHF   =         0.00000000
  -V(xc)+E(xc)   XCENC  =     -2084.26929211
  PAW double counting   =      8468.55043739    -5827.08332202
  entropy T*S    EENTRO =        -0.00000000
  eigenvalues    EBANDS =     -1207.31146247
  atomic energy  EATOM  =     11953.08265402
  Solvation  Ediel_sol  =         0.00000000
  ---------------------------------------------------
  free energy    TOTEN  =      -322.87557730 eV

  energy without entropy =     -322.87557730  energy(sigma->0) =     -322.87557730


--------------------------------------------------------------------------------------------------------




--------------------------------------- Iteration      1(  18)  ---------------------------------------


    POTLOK:  cpu time    0.2732: real time    0.2736
    SETDIJ:  cpu time    0.0118: real time    0.0118
    EDDIAG:  cpu time    2.5983: real time    2.6050
  RMM-DIIS:  cpu time   43.9171: real time   44.0477
    ORTHCH:  cpu time    0.2258: real time    0.2263
       DOS:  cpu time    0.0005: real time    0.0005
    CHARGE:  cpu time    1.2075: real time    1.2084
    MIXING:  cpu time    0.0103: real time    0.0103
    --------------------------------------------
      LOOP:  cpu time   48.2445: real time   48.3835

 eigenvalue-minimisations  :  2225
 total energy-change (2. order) :-0.5571718E-03  (-0.1218862E-04)
 number of electron     324.0000000 magnetization 
 augmentation part      -21.1612581 magnetization 

 Broyden mixing:
  rms(total) = 0.11980E-02    rms(broyden)= 0.11980E-02
  rms(prec ) = 0.14661E-02
  weight for this iteration     100.00

 eigenvalues of (default mixing * dielectric matrix)
  average eigenvalue GAMMA=   1.4282
  4.9453  2.7277  2.3158  1.8097  1.8097  0.9140  0.8241  0.8241  0.7314  0.4669
  0.4239  0.3809  0.3934

 Free energy of the ion-electron system (eV)
  ---------------------------------------------------
  alpha Z        PSCENC =       254.38935008
  Ewald energy   TEWEN  =     58980.49548076
  -Hartree energ DENC   =    -70861.93164088
  -exchange      EXHF   =         0.00000000
  -V(xc)+E(xc)   XCENC  =     -2084.26599291
  PAW double counting   =      8468.43154300    -5826.95632529
  entropy T*S    EENTRO =        -0.00000000
  eigenvalues    EBANDS =     -1206.12120325
  atomic energy  EATOM  =     11953.08265402
  Solvation  Ediel_sol  =         0.00000000
  ---------------------------------------------------
  free energy    TOTEN  =      -322.87613447 eV

  energy without entropy =     -322.87613447  energy(sigma->0) =     -322.87613447


--------------------------------------------------------------------------------------------------------




--------------------------------------- Iteration      1(  19)  ---------------------------------------


    POTLOK:  cpu time    0.2715: real time    0.2729
    SETDIJ:  cpu time    0.0120: real time    0.0120
    EDDIAG:  cpu time    2.5963: real time    2.5990
  RMM-DIIS:  cpu time   45.9098: real time   46.0062
    ORTHCH:  cpu time    0.2061: real time    0.2063
       DOS:  cpu time    0.0004: real time    0.0004
    CHARGE:  cpu time    1.2025: real time    1.2035
    MIXING:  cpu time    0.0083: real time    0.0083
    --------------------------------------------
      LOOP:  cpu time   50.2069: real time   50.3085

 eigenvalue-minimisations  :  2355
 total energy-change (2. order) :-0.2837807E-03  (-0.4427505E-05)
 number of electron     324.0000000 magnetization 
 augmentation part      -21.1611964 magnetization 

 Broyden mixing:
  rms(total) = 0.81870E-03    rms(broyden)= 0.81869E-03
  rms(prec ) = 0.10253E-02
  weight for this iteration     100.00

 eigenvalues of (default mixing * dielectric matrix)
  average eigenvalue GAMMA=   1.5703
  6.5543  2.9883  2.4858  1.9240  1.9240  1.0865  1.0865  0.8205  0.8205  0.7209
  0.4237  0.3960  0.3808  0.3720

 Free energy of the ion-electron system (eV)
  ---------------------------------------------------
  alpha Z        PSCENC =       254.38935008
  Ewald energy   TEWEN  =     58980.49548076
  -Hartree energ DENC   =    -70862.38182696
  -exchange      EXHF   =         0.00000000
  -V(xc)+E(xc)   XCENC  =     -2084.26530810
  PAW double counting   =      8468.56385758    -5827.08524989
  entropy T*S    EENTRO =        -0.00000000
  eigenvalues    EBANDS =     -1205.67537575
  atomic energy  EATOM  =     11953.08265402
  Solvation  Ediel_sol  =         0.00000000
  ---------------------------------------------------
  free energy    TOTEN  =      -322.87641825 eV

  energy without entropy =     -322.87641825  energy(sigma->0) =     -322.87641825


--------------------------------------------------------------------------------------------------------




--------------------------------------- Iteration      1(  20)  ---------------------------------------


    POTLOK:  cpu time    0.2749: real time    0.2751
    SETDIJ:  cpu time    0.0118: real time    0.0118
    EDDIAG:  cpu time    2.5920: real time    2.5988
  RMM-DIIS:  cpu time   41.2512: real time   41.3660
    ORTHCH:  cpu time    0.2151: real time    0.2156
       DOS:  cpu time    0.0004: real time    0.0004
    CHARGE:  cpu time    1.2009: real time    1.2018
    MIXING:  cpu time    0.0087: real time    0.0087
    --------------------------------------------
      LOOP:  cpu time   45.5550: real time   45.6782

 eigenvalue-minimisations  :  2089
 total energy-change (2. order) :-0.4194396E-03  (-0.4045751E-05)
 number of electron     324.0000000 magnetization 
 augmentation part      -21.1614966 magnetization 

 Broyden mixing:
  rms(total) = 0.31770E-03    rms(broyden)= 0.31770E-03
  rms(prec ) = 0.41265E-03
  weight for this iteration     100.00

 eigenvalues of (default mixing * dielectric matrix)
  average eigenvalue GAMMA=   1.5770
  6.7521  3.2383  2.4803  1.8884  1.8884  1.3362  1.2462  0.8186  0.8186  0.8355
  0.7792  0.4236  0.3996  0.3813  0.3694

 Free energy of the ion-electron system (eV)
  ---------------------------------------------------
  alpha Z        PSCENC =       254.38935008
  Ewald energy   TEWEN  =     58980.49548076
  -Hartree energ DENC   =    -70863.07464892
  -exchange      EXHF   =         0.00000000
  -V(xc)+E(xc)   XCENC  =     -2084.26438409
  PAW double counting   =      8468.90186846    -5827.42219399
  entropy T*S    EENTRO =        -0.00000000
  eigenvalues    EBANDS =     -1204.98496402
  atomic energy  EATOM  =     11953.08265402
  Solvation  Ediel_sol  =         0.00000000
  ---------------------------------------------------
  free energy    TOTEN  =      -322.87683769 eV

  energy without entropy =     -322.87683769  energy(sigma->0) =     -322.87683769


--------------------------------------------------------------------------------------------------------




--------------------------------------- Iteration      1(  21)  ---------------------------------------


    POTLOK:  cpu time    0.2755: real time    0.2757
    SETDIJ:  cpu time    0.0119: real time    0.0119
    EDDIAG:  cpu time    2.6148: real time    2.6216
  RMM-DIIS:  cpu time   35.0647: real time   35.1628
    ORTHCH:  cpu time    0.2062: real time    0.2064
       DOS:  cpu time    0.0004: real time    0.0004
    CHARGE:  cpu time    1.1841: real time    1.1853
    MIXING:  cpu time    0.0089: real time    0.0089
    --------------------------------------------
      LOOP:  cpu time   39.3665: real time   39.4729

 eigenvalue-minimisations  :  1699
 total energy-change (2. order) :-0.9135431E-04  (-0.8640954E-06)
 number of electron     324.0000000 magnetization 
 augmentation part      -21.1617702 magnetization 

 Broyden mixing:
  rms(total) = 0.27368E-03    rms(broyden)= 0.27368E-03
  rms(prec ) = 0.34231E-03
  weight for this iteration     100.00

 eigenvalues of (default mixing * dielectric matrix)
  average eigenvalue GAMMA=   1.5533
  6.8849  3.3062  2.4592  2.0486  2.0486  1.6303  1.0149  1.0149  0.8207  0.8207
  0.7510  0.4747  0.4241  0.4013  0.3813  0.3709

 Free energy of the ion-electron system (eV)
  ---------------------------------------------------
  alpha Z        PSCENC =       254.38935008
  Ewald energy   TEWEN  =     58980.49548076
  -Hartree energ DENC   =    -70863.23850490
  -exchange      EXHF   =         0.00000000
  -V(xc)+E(xc)   XCENC  =     -2084.26476994
  PAW double counting   =      8468.92259235    -5827.44459113
  entropy T*S    EENTRO =        -0.00000000
  eigenvalues    EBANDS =     -1204.81914030
  atomic energy  EATOM  =     11953.08265402
  Solvation  Ediel_sol  =         0.00000000
  ---------------------------------------------------
  free energy    TOTEN  =      -322.87692905 eV

  energy without entropy =     -322.87692905  energy(sigma->0) =     -322.87692905


--------------------------------------------------------------------------------------------------------




--------------------------------------- Iteration      1(  22)  ---------------------------------------


    POTLOK:  cpu time    0.2784: real time    0.2788
    SETDIJ:  cpu time    0.0119: real time    0.0119
    EDDIAG:  cpu time    2.6073: real time    2.6100
  RMM-DIIS:  cpu time   26.1210: real time   26.2031
    ORTHCH:  cpu time    0.2091: real time    0.2096
       DOS:  cpu time    0.0004: real time    0.0004
    CHARGE:  cpu time    1.1817: real time    1.1867
    MIXING:  cpu time    0.0114: real time    0.0114
    --------------------------------------------
      LOOP:  cpu time   30.4213: real time   30.5120

 eigenvalue-minimisations  :  1287
 total energy-change (2. order) :-0.4372254E-04  (-0.2377526E-06)
 number of electron     324.0000000 magnetization 
 augmentation part      -21.1618120 magnetization 

 Broyden mixing:
[...]
  0.000   0.000   0.000  -0.000   0.000   0.011   0.000  -0.000
 -0.000   0.000  -0.000   0.000   0.000   0.000   0.011  -0.000
 -0.000  -0.000   0.000   0.000   0.000  -0.000  -0.000   0.011
 -0.001  -0.000   0.001   0.000  -0.000  -0.000  -0.000   0.000
 -0.000   0.000  -0.016  -0.000   0.000  -0.000   0.000  -0.000
 -0.009  -0.000   0.000  -0.021  -0.000  -0.000  -0.000   0.000
 -0.000  -0.000   0.000   0.001  -0.016  -0.000  -0.000  -0.000
 -0.000   0.000   0.001  -0.000   0.001   0.000   0.000  -0.000
 total augmentation occupancy for first ion, spin component:           1
  1.930   0.241  -0.001   0.199  -0.003   0.003   0.049  -0.007   0.002   0.000   0.006  -0.001   0.001
  0.241   1.402  -0.005  -0.964   0.024   0.003   0.392  -0.012  -0.008   0.001  -0.021  -0.004   0.000
 -0.001  -0.005   1.340   0.006  -0.000  -0.494  -0.001  -0.003   0.007  -0.121   0.000   0.000  -0.045
  0.199  -0.964   0.006   1.514  -0.005  -0.001  -0.556   0.012  -0.002  -0.001  -0.039   0.004  -0.002
 -0.003   0.024  -0.000  -0.005   1.344  -0.003   0.012  -0.503  -0.046   0.000  -0.000  -0.122   0.002
  0.003   0.003  -0.494  -0.001  -0.003   0.320   0.000  -0.007  -0.001   0.041  -0.000   0.001   0.007
  0.049   0.392  -0.001  -0.556   0.012   0.000   0.306  -0.005   0.000   0.001   0.049  -0.002   0.000
 -0.007  -0.012  -0.003   0.012  -0.503  -0.007  -0.005   0.320   0.009   0.001   0.000   0.042  -0.001
  0.002  -0.008   0.007  -0.002  -0.046  -0.001   0.000   0.009   0.021  -0.000   0.001  -0.001   0.000
  0.000   0.001  -0.121  -0.001   0.000   0.041   0.001   0.001  -0.000   0.020   0.000  -0.000  -0.001
  0.006  -0.021   0.000  -0.039  -0.000  -0.000   0.049   0.000   0.001   0.000   0.021  -0.001  -0.000
 -0.001  -0.004   0.000   0.004  -0.122   0.001  -0.002   0.042  -0.001  -0.000  -0.001   0.020  -0.000
  0.001   0.000  -0.045  -0.002   0.002   0.007   0.000  -0.001   0.000  -0.001  -0.000  -0.000   0.022


------------------------ aborting loop because EDIFF is reached ----------------------------------------


    CHARGE:  cpu time    1.2040: real time    1.2053
    FORLOC:  cpu time    0.0761: real time    0.0786
    FORNL :  cpu time   12.9080: real time   12.9398
    STRESS:  cpu time   70.8260: real time   70.9967
    FORCOR:  cpu time    0.3114: real time    0.3116
    FORHAR:  cpu time    0.1277: real time    0.1278
    MIXING:  cpu time    0.0074: real time    0.0074
    OFIELD:  cpu time    0.0000: real time    0.0000

  Number of pair interactions contributing to vdW energy:  277384
  Edisp (eV):  -19.37843
    FORVDW:  cpu time    0.0300: real time    0.0300

  FORCE on cell =-STRESS in cart. coord.  units (eV):
  Direction    XX          YY          ZZ          XY          YZ          ZX
  --------------------------------------------------------------------------------------
  Alpha Z   254.38935   254.38935   254.38935
  Ewald   68069.03175 68085.98281-77284.20074   -70.27790    -3.70167     0.01945
  Hartree 70390.73952 70393.10321-70023.17109   -18.90347    -0.51862    -3.59421
  E(xc)   -1360.79635 -1361.54485 -1380.64749     1.18144     0.15569    -0.78106
  Local  ************************142228.83521    86.23548     4.09632     2.61154
  n-local  3571.85654  3571.47856  3759.51029     1.62097    -1.02675     6.22472
  augment  -760.52942  -759.71061  -801.93566    -1.77742     0.17670    -1.31847
  Kinetic  3297.50258  3304.05908  3287.48241   -18.33334    -0.65224    -0.90588
  Fock        0.00000     0.00000     0.00000     0.00000     0.00000     0.00000
  vdW       -13.09964   -13.26782    -9.94440    -0.09976     0.06751    -1.17524
  -------------------------------------------------------------------------------------
  Total      14.85974    21.58939    30.31789   -20.35401    -1.40307     1.08085
  in kB       8.43914    12.26105    17.21813   -11.55944    -0.79683     0.61384
  external pressure =       12.64 kB  Pullay stress =        0.00 kB

  kinetic pressure (ideal gas correction) =      0.27 kB
  total pressure  =     12.91 kB
  Total+kin.     8.769      12.419      17.544     -11.505      -0.840       0.749

 VOLUME and BASIS-vectors are now :
 -----------------------------------------------------------------------------
  energy-cutoff  :      550.00
  volume of cell :     2821.13
      direct lattice vectors                 reciprocal lattice vectors
    10.559626424  0.000000000  0.000000000     0.094700320  0.050835466  0.001085395
    -4.874941595  9.081426069  0.000000000     0.000000000  0.110114864 -0.000264811
    -0.375154004  0.070747470 29.418528666     0.000000000  0.000000000  0.033992183

  length of vectors
    10.559626424 10.307150673 29.421005670     0.107487549  0.110115183  0.033992183


 FORCES acting on ions
    electron-ion (+dipol)            ewald-force                    non-local-force                 convergence-correction
 -----------------------------------------------------------------------------------------------
   0.287E+01 -.647E+00 -.834E+03   -.282E+01 0.644E+00 0.839E+03   -.149E+00 0.148E+00 -.488E+01   0.193E-03 -.471E-03 -.892E-03
   0.261E+01 0.152E+01 -.832E+03   -.252E+01 -.153E+01 0.837E+03   -.311E+00 -.199E+00 -.522E+01   -.674E-04 -.774E-03 0.131E-03
   0.277E+01 0.226E+00 -.831E+03   -.275E+01 -.263E+00 0.836E+03   -.154E+00 0.185E+00 -.464E+01   -.769E-03 0.901E-03 -.443E-03
   0.375E+00 0.516E+00 -.833E+03   -.295E+00 -.543E+00 0.839E+03   -.570E-01 -.277E-01 -.475E+01   -.111E-02 -.130E-02 0.893E-03
   0.276E+01 0.313E+00 -.832E+03   -.274E+01 -.351E+00 0.837E+03   -.280E+00 0.495E-03 -.512E+01   -.116E-02 -.534E-03 0.166E-02
   0.326E+01 -.243E+00 -.834E+03   -.322E+01 0.271E+00 0.839E+03   -.458E+00 0.936E-02 -.494E+01   -.386E-03 0.405E-03 0.146E-02
   0.212E+01 0.378E+00 -.832E+03   -.210E+01 -.281E+00 0.837E+03   -.219E+00 -.214E+00 -.519E+01   0.904E-03 0.158E-03 0.296E-03
   0.145E+01 -.104E+01 -.832E+03   -.135E+01 0.102E+01 0.837E+03   -.198E+00 0.108E-01 -.502E+01   0.127E-02 0.758E-03 0.912E-03
   -.764E+00 0.108E+01 -.831E+03   0.851E+00 -.108E+01 0.837E+03   0.142E+00 -.360E-01 -.536E+01   0.116E-02 0.879E-03 0.456E-03
   0.194E+01 -.257E-01 0.104E+03   -.182E+01 0.199E-01 -.988E+02   -.173E-01 0.248E-02 -.522E+01   0.228E-02 -.722E-03 -.425E-03
   0.402E+00 -.133E+01 0.108E+03   -.349E+00 0.143E+01 -.102E+03   0.193E+00 -.118E-01 -.512E+01   0.487E-03 0.324E-03 0.869E-03
   -.177E+01 0.163E+00 0.106E+03   0.193E+01 -.160E+00 -.100E+03   0.736E-01 0.106E-01 -.527E+01   -.201E-03 0.173E-02 -.114E-02
   0.267E+01 0.277E+01 0.105E+03   -.260E+01 -.276E+01 -.994E+02   -.125E+00 -.337E-01 -.517E+01   -.142E-02 -.134E-02 -.826E-03
   0.391E+01 0.579E+00 0.102E+03   -.390E+01 -.606E+00 -.970E+02   0.171E+00 -.213E-01 -.453E+01   -.271E-03 -.115E-02 0.116E-02
   0.446E+01 0.109E+01 0.106E+03   -.448E+01 -.109E+01 -.101E+03   -.561E-01 -.901E-01 -.521E+01   -.108E-02 0.100E-02 0.696E-03
   -.158E+01 0.120E+01 0.103E+03   0.160E+01 -.116E+01 -.979E+02   0.254E+00 -.222E+00 -.506E+01   -.776E-03 -.442E-03 0.123E-02
   -.237E+01 0.105E+01 0.102E+03   0.245E+01 -.105E+01 -.968E+02   0.179E+00 -.176E+00 -.502E+01   -.250E-03 0.787E-03 0.696E-03
   0.983E+00 -.297E+01 0.101E+03   -.933E+00 0.303E+01 -.954E+02   0.495E-01 0.184E-01 -.500E+01   0.135E-02 -.207E-03 0.107E-02
   0.437E+01 0.204E+01 -.102E+03   -.435E+01 -.206E+01 0.964E+02   -.441E+00 -.115E+00 0.501E+01   0.155E-03 -.493E-03 0.765E-03
   0.519E+01 -.153E+01 -.106E+03   -.517E+01 0.158E+01 0.100E+03   -.555E+00 0.784E-01 0.513E+01   -.274E-04 -.853E-03 -.585E-04
   0.268E+01 0.150E+01 -.103E+03   -.267E+01 -.155E+01 0.975E+02   -.200E+00 0.172E+00 0.505E+01   -.871E-03 0.965E-03 0.416E-03
   0.254E+01 -.271E+01 -.104E+03   -.249E+01 0.271E+01 0.984E+02   -.467E+00 0.438E+00 0.469E+01   -.127E-02 -.133E-02 -.637E-03
   -.495E-01 -.119E+01 -.106E+03   0.983E-01 0.123E+01 0.101E+03   -.178E+00 0.319E-02 0.517E+01   -.128E-02 -.583E-03 -.142E-02
   0.172E+01 0.139E+01 -.104E+03   -.168E+01 -.144E+01 0.989E+02   -.435E+00 0.199E-01 0.482E+01   -.470E-03 0.355E-03 -.118E-02
   0.168E+01 0.227E+01 -.104E+03   -.163E+01 -.219E+01 0.982E+02   -.356E+00 -.350E+00 0.523E+01   0.101E-02 0.121E-03 -.980E-04
   0.301E+01 -.187E+01 -.103E+03   -.302E+01 0.182E+01 0.977E+02   -.274E+00 0.186E+00 0.519E+01   0.122E-02 0.831E-03 -.679E-03
   0.335E+01 0.128E+01 -.106E+03   -.335E+01 -.125E+01 0.101E+03   -.382E+00 -.688E-01 0.521E+01   0.125E-02 0.948E-03 -.329E-03
   0.272E+01 -.119E+01 0.831E+03   -.262E+01 0.120E+01 -.837E+03   -.137E+00 -.390E-02 0.507E+01   0.215E-02 -.742E-03 0.444E-03
   0.363E+01 0.223E+01 0.829E+03   -.357E+01 -.221E+01 -.834E+03   -.382E+00 -.180E+00 0.502E+01   0.410E-03 0.273E-03 -.905E-03
   0.147E+01 0.957E+00 0.834E+03   -.137E+01 -.948E+00 -.839E+03   -.298E+00 -.145E+00 0.534E+01   -.340E-03 0.166E-02 0.990E-03
   0.148E+01 0.270E+00 0.833E+03   -.139E+01 -.286E+00 -.838E+03   -.246E+00 0.250E+00 0.517E+01   -.139E-02 -.122E-02 0.911E-03
   0.538E+01 0.162E+01 0.836E+03   -.528E+01 -.169E+01 -.841E+03   -.487E+00 0.190E-01 0.494E+01   -.157E-03 -.104E-02 -.114E-02
   0.105E+01 -.233E+01 0.830E+03   -.982E+00 0.231E+01 -.835E+03   -.964E-02 0.354E+00 0.508E+01   -.101E-02 0.881E-03 -.711E-03
   0.716E+00 0.409E+00 0.832E+03   -.730E+00 -.389E+00 -.838E+03   -.718E-01 -.792E-01 0.478E+01   -.776E-03 -.385E-03 -.131E-02
   -.180E+01 0.336E+01 0.834E+03   0.196E+01 -.340E+01 -.840E+03   -.233E+00 -.271E+00 0.494E+01   -.263E-03 0.824E-03 -.917E-03
   0.376E+01 -.348E+01 0.834E+03   -.373E+01 0.353E+01 -.839E+03   -.388E+00 0.809E-01 0.472E+01   0.136E-02 -.276E-03 -.120E-02
   -.153E+01 0.551E+00 -.468E+03   0.164E+01 -.491E+00 0.468E+03   -.719E-01 0.182E-01 -.271E-01   0.124E-02 0.452E-03 -.215E-03
   -.556E+01 -.205E+01 -.469E+03   0.578E+01 0.212E+01 0.469E+03   0.435E+00 0.311E+00 0.636E-01   0.110E-02 -.259E-04 -.110E-03
   0.386E+00 0.120E+01 -.466E+03   -.378E+00 -.125E+01 0.466E+03   -.288E+00 -.209E+00 0.135E+00   0.811E-03 0.126E-02 -.157E-03
   -.154E+01 0.102E+01 -.470E+03   0.163E+01 -.107E+01 0.470E+03   0.111E+00 -.285E+00 -.154E+00   -.121E-02 -.385E-03 -.233E-03
   -.282E+01 -.177E+01 -.468E+03   0.303E+01 0.177E+01 0.469E+03   0.200E+00 0.361E-01 0.328E+00   -.813E-03 -.138E-02 -.210E-03
   -.403E+01 0.212E+01 -.471E+03   0.431E+01 -.218E+01 0.471E+03   0.254E+00 -.310E-01 -.181E+00   -.108E-02 0.389E-04 -.186E-03
   -.863E+01 -.108E+01 -.466E+03   0.902E+01 0.112E+01 0.466E+03   0.558E+00 -.742E-01 0.367E+00   -.322E-04 -.123E-04 -.138E-03
   -.408E+01 -.368E+01 -.470E+03   0.428E+01 0.370E+01 0.470E+03   -.324E-01 0.883E-01 -.229E+00   -.206E-03 -.593E-03 -.161E-03
   -.742E+01 0.563E+00 -.468E+03   0.769E+01 -.619E+00 0.468E+03   0.442E+00 -.608E-01 -.118E-01   0.189E-03 0.536E-03 -.235E-03
   -.443E+01 0.114E+01 0.467E+03   0.455E+01 -.114E+01 -.467E+03   0.986E-01 -.664E-01 -.503E-01   0.336E-03 -.202E-03 0.340E-03
   -.386E+00 0.133E+01 0.467E+03   0.525E+00 -.140E+01 -.467E+03   -.255E+00 -.880E-01 -.258E+00   0.816E-03 -.122E-02 0.227E-03
   -.142E+01 -.211E+01 0.468E+03   0.140E+01 0.225E+01 -.468E+03   -.859E-01 0.126E-01 0.184E+00   -.976E-03 0.156E-02 0.320E-03
   -.142E+01 0.232E+01 0.470E+03   0.146E+01 -.234E+01 -.470E+03   -.241E-01 -.402E+00 -.198E-01   -.202E-02 -.144E-03 0.238E-03
   -.409E+01 0.486E+01 0.468E+03   0.425E+01 -.500E+01 -.469E+03   0.179E+00 -.190E+00 -.249E+00   -.575E-03 -.141E-02 0.189E-03
   0.610E+00 -.385E+01 0.466E+03   -.496E+00 0.390E+01 -.466E+03   -.117E+00 0.120E+00 -.242E+00   -.189E-03 -.517E-05 0.154E-03
   -.306E+01 -.301E+01 0.468E+03   0.312E+01 0.303E+01 -.468E+03   -.102E+00 0.292E+00 0.192E+00   0.157E-02 -.273E-03 0.199E-03
   -.524E+01 -.214E+01 0.469E+03   0.520E+01 0.227E+01 -.469E+03   0.270E+00 0.224E+00 -.745E-01   -.290E-03 0.534E-03 0.150E-03
   -.975E+01 -.273E+01 0.469E+03   0.100E+02 0.283E+01 -.469E+03   0.353E+00 0.211E+00 0.281E-02   0.106E-02 0.108E-02 0.199E-03
 -----------------------------------------------------------------------------------------------
   0.457E+01 0.349E+00 0.419E+00   0.391E-13 0.888E-14 0.108E-11   -.458E+01 -.352E+00 -.420E+00   -.420E-03 -.262E-03 0.112E-02
 
 
 POSITION                                       TOTAL-FORCE (eV/Angst)
 -----------------------------------------------------------------------------------
      1.55199      1.04775     20.09549        -0.100887      0.139593      0.507085
     -0.05555      4.08982     20.10283        -0.219922     -0.201872      0.242364
     -1.68865      7.10576     20.06372        -0.136945      0.147828      0.845515
      5.06574      1.05525     20.08152         0.010409     -0.054229      0.688954
      3.46540      4.08071     20.10189        -0.262527     -0.041696      0.316065
      1.85567      7.12243     20.10114        -0.410888      0.040949      0.465503
      8.59810      1.05277     20.10438        -0.199863     -0.118187      0.191043
      6.98193      4.09386     20.09699        -0.097390     -0.006099      0.405628
      5.32517      7.10724     20.11209         0.211947     -0.040676      0.074674
     -0.69503      1.03161     12.90610         0.124617     -0.006395      0.326589
      8.21191      4.05254     12.86889         0.261622      0.083333      0.574217
      6.59549      7.07780     12.89712         0.243282      0.011231      0.250253
      2.83136      1.04570     12.90056        -0.026903     -0.021927      0.346167
      1.18555      4.07514     12.87747         0.200850     -0.046174      0.981614
     -0.41361      7.11431     12.88385        -0.041426     -0.085590      0.429526
      6.33560      1.04700     12.90152         0.288531     -0.181437      0.465399
      4.68395      4.07426     12.89915         0.267340     -0.164199      0.494262
      3.09629      7.07905     12.90746         0.125763      0.064528      0.492549
      1.59131      1.06560     16.50858        -0.451768     -0.124489     -0.450015
     -0.04019      4.07164     16.52786        -0.567000      0.124444     -0.417661
     -1.66714      7.10616     16.52684        -0.214401      0.119052     -0.518856
      5.08720      1.02200     16.53914        -0.450450      0.423094     -0.809584
      3.46522      4.07419     16.52944        -0.166690      0.033599     -0.398757
      1.84692      7.10330     16.53527        -0.430351     -0.027777     -0.709123
      8.62061      1.06901     16.50507        -0.343241     -0.262606     -0.276355
      6.98517      4.06338     16.50980        -0.312142      0.127901     -0.333694
      5.37517      7.11209     16.52251        -0.413657     -0.032746     -0.351797
      9.88036      1.03969      9.32598        -0.048804      0.014064     -0.364119
     -2.27918      4.06169      9.34777        -0.313990     -0.153620     -0.548322
      6.63761      7.10169      9.28741        -0.199629     -0.125969     -0.039880
      2.84238      1.01937      9.31002        -0.154428      0.227365     -0.222166
      1.25377      4.07488      9.31204        -0.379192     -0.042159     -0.415321
     -0.40662      7.06315      9.33707         0.048219      0.315506     -0.425138
      6.37106      1.03363      9.34084        -0.088215     -0.061409     -0.694677
      4.72813      4.07980      9.31915        -0.091217     -0.300848     -0.446139
      3.13190      7.06977      9.33257        -0.341601      0.117137     -0.658200
     -0.22186      0.04801     18.30801         0.026623      0.069145     -0.032581
      8.67658      3.05105     18.30526         0.679866      0.394569      0.159575
     -3.45956      6.10839     18.29291        -0.291265     -0.263809      0.216708
      3.27780      0.06719     18.31401         0.215039     -0.349222     -0.147619
      1.65643      3.06453     18.29138         0.404060      0.057395      0.558856
      0.03744      6.10567     18.32245         0.525372     -0.099133     -0.215167
      6.77755      0.04495     18.28415         0.965458     -0.048057      0.593538
      5.18996      3.06874     18.32333         0.157048      0.131786     -0.315805
      3.53525      6.10465     18.31303         0.747140     -0.123287     -0.030907
     -3.83440      9.10715     11.11228         0.243505     -0.076315     -0.047395
     -0.55105      3.05994     11.12510        -0.149794     -0.152294     -0.360830
     -2.20555      6.08444     11.09626        -0.083898      0.146027      0.300618
      4.57335      0.05997     11.10964         0.016351     -0.460538     -0.109497
      2.92239      3.07048     11.11984         0.369426     -0.346482     -0.357125
      1.33360      6.07576     11.12616        -0.030678      0.207270     -0.357488
      3.22047      9.08397     11.10767        -0.035760      0.346110      0.251980
      6.43080      3.03712     11.11532         0.274665      0.366611     -0.163954
      4.81527      6.06367     11.10746         0.641681      0.308163      0.039534
 -----------------------------------------------------------------------------------
    total drift:                               -0.006106     -0.002541      0.000047


--------------------------------------------------------------------------------------------------------



  FREE ENERGIE OF THE ION-ELECTRON SYSTEM (eV)
  ---------------------------------------------------
  free  energy   TOTEN  =      -342.30282204 eV

  energy  without entropy=     -342.30282204  energy(sigma->0) =     -342.30282204
 
 d Force = 0.4686351E-02[ 0.191E-02, 0.746E-02]  d Energy = 0.4636214E-02 0.501E-04
 d Force = 0.2068143E+02[ 0.207E+02, 0.207E+02]  d Ewald  = 0.2068143E+02 0.261E-05


--------------------------------------------------------------------------------------------------------


    POTLOK:  cpu time    0.2861: real time    0.2904


--------------------------------------------------------------------------------------------------------


           RANDOM_SEED =         139113237              324                0
   IONSTEP:  cpu time    0.0001: real time    0.0001

  ENERGY OF THE ELECTRON-ION-THERMOSTAT SYSTEM (eV)
  ---------------------------------------------------
% ion-electron   TOTEN  =      -342.302822  see above
  kinetic energy EKIN   =         0.715693
  kin. lattice  EKIN_LAT=         0.000000  (temperature  104.47 K)
  nose potential ES     =         0.019885
  nose kinetic   EPS    =         0.000852
  ---------------------------------------------------
  total energy   ETOTAL =      -341.566391 eV

  maximum distance moved by ions :      0.64E-03


 mean value of Nose-termostat <S>:     1.019 mean value of <T> :   104.468
 mean temperature <T/S>/<1/S>  :   104.468

    WAVPRE:  cpu time    0.0998: real time    0.1048
    FEWALD:  cpu time    0.0014: real time    0.0015
    ORTHCH:  cpu time    7.9298: real time    7.9473
    POTLOK:  cpu time    0.2885: real time    0.2888
    EDDIAG:  cpu time    2.6141: real time    2.6166
     LOOP+:  cpu time  469.7701: real time  471.0318
    4ORBIT:  cpu time    0.0000: real time    0.0000

 total amount of memory used by VASP MPI-rank0   359896. kBytes
=======================================================================

   base      :      30000. kBytes
   nonl-proj :     190494. kBytes
   fftplans  :      18984. kBytes
   grid      :      86187. kBytes
   one-center:        839. kBytes
   wavefun   :      33392. kBytes
 
  
  
 General timing and accounting informations for this job:
 ========================================================
  
                  Total CPU time used (sec):     5633.816
                            User time (sec):     5620.461
                          System time (sec):       13.355
                         Elapsed time (sec):     5651.232
  
                   Maximum memory used (kb):      801464.
                   Average memory used (kb):           0.
  
                          Minor page faults:       429547
                          Major page faults:            0
                 Voluntary context switches:         9096
