0.000000000000000000e+00 2.032270000000000021e+00 9.404519999999999769e+00 -1.760000000000000009e+00 5.080680000000000085e+00 9.404519999999999769e+00 -3.520000000000000018e+00 8.129089999999999705e+00 9.404519999999999769e+00 3.520000000000000018e+00 2.032270000000000021e+00 9.404519999999999769e+00 1.760000000000000009e+00 5.080680000000000085e+00 9.404519999999999769e+00 0.000000000000000000e+00 8.129089999999999705e+00 9.404519999999999769e+00 7.040000000000000036e+00 2.032270000000000021e+00 9.404519999999999769e+00 5.280000000000000249e+00 5.080680000000000085e+00 9.404519999999999769e+00 3.520000000000000018e+00 8.129089999999999705e+00 9.404519999999999769e+00 7.039999999999999591e-01 2.032270000000000021e+00 1.696837999999999980e+01 -1.056000000000000050e+00 5.080680000000000085e+00 1.696837999999999980e+01 -2.815999999999999837e+00 8.129089999999999705e+00 1.696837999999999980e+01 4.224000000000000199e+00 2.032270000000000021e+00 1.696837999999999980e+01 2.463999999999999968e+00 5.080680000000000085e+00 1.696837999999999980e+01 7.039999999999999591e-01 8.129089999999999705e+00 1.696837999999999980e+01 7.743999999999999773e+00 2.032270000000000021e+00 1.696837999999999980e+01 5.983999999999999986e+00 5.080680000000000085e+00 1.696837999999999980e+01 4.224000000000000199e+00 8.129089999999999705e+00 1.696837999999999980e+01 0.000000000000000000e+00 2.032270000000000021e+00 1.303163999999999945e+01 -1.760000000000000009e+00 5.080680000000000085e+00 1.303163999999999945e+01 -3.520000000000000018e+00 8.129089999999999705e+00 1.303163999999999945e+01 3.520000000000000018e+00 2.032270000000000021e+00 1.303163999999999945e+01 1.760000000000000009e+00 5.080680000000000085e+00 1.303163999999999945e+01 0.000000000000000000e+00 8.129089999999999705e+00 1.303163999999999945e+01 7.040000000000000036e+00 2.032270000000000021e+00 1.303163999999999945e+01 5.280000000000000249e+00 5.080680000000000085e+00 1.303163999999999945e+01 3.520000000000000018e+00 8.129089999999999705e+00 1.303163999999999945e+01 7.039999999999999591e-01 2.032270000000000021e+00 2.059549000000000163e+01 -1.056000000000000050e+00 5.080680000000000085e+00 2.059549000000000163e+01 -2.815999999999999837e+00 8.129089999999999705e+00 2.059549000000000163e+01 4.224000000000000199e+00 2.032270000000000021e+00 2.059549000000000163e+01 2.463999999999999968e+00 5.080680000000000085e+00 2.059549000000000163e+01 7.039999999999999591e-01 8.129089999999999705e+00 2.059549000000000163e+01 7.743999999999999773e+00 2.032270000000000021e+00 2.059549000000000163e+01 5.983999999999999986e+00 5.080680000000000085e+00 2.059549000000000163e+01 4.224000000000000199e+00 8.129089999999999705e+00 2.059549000000000163e+01 0.000000000000000000e+00 0.000000000000000000e+00 1.121761000000000053e+01 -1.760000000000000009e+00 3.048410000000000064e+00 1.121761000000000053e+01 -3.520000000000000018e+00 6.096820000000000128e+00 1.121761000000000053e+01 3.520000000000000018e+00 0.000000000000000000e+00 1.121761000000000053e+01 1.760000000000000009e+00 3.048410000000000064e+00 1.121761000000000053e+01 0.000000000000000000e+00 6.096820000000000128e+00 1.121761000000000053e+01 7.040000000000000036e+00 0.000000000000000000e+00 1.121761000000000053e+01 5.280000000000000249e+00 3.048410000000000064e+00 1.121761000000000053e+01 3.520000000000000018e+00 6.096820000000000128e+00 1.121761000000000053e+01 7.039999999999999591e-01 0.000000000000000000e+00 1.878240999999999872e+01 -1.056000000000000050e+00 3.048410000000000064e+00 1.878240999999999872e+01 -2.815999999999999837e+00 6.096820000000000128e+00 1.878240999999999872e+01 4.224000000000000199e+00 0.000000000000000000e+00 1.878240999999999872e+01 2.463999999999999968e+00 3.048410000000000064e+00 1.878240999999999872e+01 7.039999999999999591e-01 6.096820000000000128e+00 1.878240999999999872e+01 7.743999999999999773e+00 0.000000000000000000e+00 1.878240999999999872e+01 5.983999999999999986e+00 3.048410000000000064e+00 1.878240999999999872e+01 4.224000000000000199e+00 6.096820000000000128e+00 1.878240999999999872e+01
-2.840000000000000076e-03 2.030489999999999906e+00 9.404540000000000788e+00 -1.760939999999999950e+00 5.078529999999999767e+00 9.404059999999999420e+00 -3.518130000000000202e+00 8.130470000000000752e+00 9.403320000000000789e+00 3.519299999999999873e+00 2.032849999999999824e+00 9.402850000000000819e+00 1.763069999999999915e+00 5.077790000000000248e+00 9.401109999999999189e+00 -1.440000000000000091e-03 8.127560000000000784e+00 9.407230000000000203e+00 7.039019999999999833e+00 2.029659999999999798e+00 9.404909999999999215e+00 5.280100000000000016e+00 5.081690000000000040e+00 9.406029999999999447e+00 3.522029999999999994e+00 8.130390000000000228e+00 9.405889999999999418e+00 7.022399999999999753e-01 2.031080000000000219e+00 1.697139999999999915e+01 -1.053369999999999918e+00 5.081080000000000041e+00 1.696536000000000044e+01 -2.817600000000000104e+00 8.131460000000000576e+00 1.696702000000000155e+01 4.224210000000000242e+00 2.032200000000000006e+00 1.696948000000000079e+01 2.464100000000000179e+00 5.081389999999999851e+00 1.696671999999999869e+01 7.048299999999999566e-01 8.129970000000000141e+00 1.696839999999999904e+01 7.744670000000000165e+00 2.032630000000000159e+00 1.696825000000000117e+01 5.983920000000000350e+00 5.076430000000000220e+00 1.697055999999999898e+01 4.225439999999999863e+00 8.127150000000000318e+00 1.696986000000000061e+01 -1.299999999999999940e-03 2.032160000000000188e+00 1.303200000000000003e+01 -1.760939999999999950e+00 5.081439999999999735e+00 1.303054000000000023e+01 -3.521290000000000031e+00 8.127909999999999968e+00 1.303121999999999936e+01 3.518009999999999859e+00 2.036420000000000119e+00 1.303213000000000044e+01 1.762920000000000043e+00 5.082209999999999894e+00 1.303125000000000000e+01 -5.500000000000000331e-04 8.127689999999999415e+00 1.302988000000000035e+01 7.037740000000000329e+00 2.031340000000000146e+00 1.303311000000000064e+01 5.281819999999999737e+00 5.082429999999999559e+00 1.303213000000000044e+01 3.518330000000000179e+00 8.130549999999999500e+00 1.303289000000000009e+01 7.014899999999999469e-01 2.032690000000000108e+00 2.059393999999999991e+01 -1.053730000000000055e+00 5.081299999999999706e+00 2.059842000000000084e+01 -2.813740000000000130e+00 8.129229999999999734e+00 2.059457000000000093e+01 4.222089999999999677e+00 2.034660000000000135e+00 2.059617000000000075e+01 2.463839999999999808e+00 5.081710000000000171e+00 2.059431999999999974e+01 7.057900000000000285e-01 8.128320000000000434e+00 2.059718000000000160e+01 7.743549999999999933e+00 2.032599999999999962e+00 2.059684999999999988e+01 5.983780000000000321e+00 5.079869999999999663e+00 2.059565999999999875e+01 4.222909999999999719e+00 8.131420000000000314e+00 2.059609000000000023e+01 2.569999999999999802e-03 1.700000000000000122e-04 1.121706999999999965e+01 8.798659999999999926e+00 3.046920000000000073e+00 1.121366000000000085e+01 -3.517580000000000151e+00 6.096059999999999590e+00 1.121688999999999936e+01 3.521440000000000126e+00 4.250000000000000305e-03 1.121787999999999919e+01 1.760480000000000045e+00 3.046219999999999928e+00 1.121580999999999939e+01 1.399999999999999986e-03 6.095390000000000086e+00 1.122043999999999997e+01 7.038640000000000008e+00 4.499999999999999877e-04 1.121871999999999936e+01 5.279440000000000133e+00 3.047899999999999832e+00 1.121878000000000064e+01 3.522520000000000095e+00 6.096020000000000216e+00 1.121546000000000021e+01 -4.573220000000000063e+00 9.144310000000000827e+00 1.878172999999999959e+01 -1.054899999999999949e+00 3.044750000000000068e+00 1.878145999999999916e+01 -2.817029999999999923e+00 6.100010000000000154e+00 1.878199000000000041e+01 -1.055029999999999912e+00 9.143940000000000623e+00 1.878162999999999982e+01 2.464409999999999989e+00 3.048909999999999787e+00 1.878079999999999927e+01 7.022500000000000409e-01 6.095449999999999591e+00 1.878376000000000090e+01 7.742709999999999759e+00 1.500000000000000031e-03 1.878170000000000073e+01 5.982330000000000148e+00 3.047470000000000123e+00 1.878291000000000111e+01 4.220430000000000348e+00 6.099190000000000111e+00 1.878269999999999840e+01
-5.680000000000000153e-03 2.028709999999999791e+00 9.404540000000000788e+00 -1.761859999999999982e+00 5.076369999999999827e+00 9.403600000000000847e+00 -3.516259999999999941e+00 8.131840000000000401e+00 9.402129999999999654e+00 3.518609999999999793e+00 2.033430000000000071e+00 9.401180000000000092e+00 1.766129999999999978e+00 5.074910000000000032e+00 9.397719999999999629e+00 -2.870000000000000155e-03 8.126020000000000465e+00 9.409929999999999239e+00 7.038030000000000008e+00 2.027039999999999953e+00 9.405300000000000438e+00 5.280210000000000292e+00 5.082690000000000374e+00 9.407529999999999504e+00 3.524059999999999970e+00 8.131690000000000751e+00 9.407249999999999446e+00 7.005000000000000115e-01 2.029879999999999907e+00 1.697440999999999889e+01 -1.050729999999999942e+00 5.081470000000000375e+00 1.696236000000000033e+01 -2.819179999999999797e+00 8.133820000000000050e+00 1.696566999999999936e+01 4.224429999999999907e+00 2.032129999999999992e+00 1.697058000000000177e+01 2.464210000000000012e+00 5.082110000000000127e+00 1.696506000000000114e+01 7.056700000000000195e-01 8.130850000000000577e+00 1.696843000000000146e+01 7.745350000000000179e+00 2.032989999999999853e+00 1.696811999999999898e+01 5.983839999999999826e+00 5.072189999999999976e+00 1.697272999999999854e+01 4.226890000000000036e+00 8.125209999999999155e+00 1.697134000000000142e+01 -2.609999999999999907e-03 2.032039999999999846e+00 1.303234999999999921e+01 -1.761900000000000022e+00 5.082200000000000273e+00 1.302943999999999924e+01 -3.522590000000000110e+00 8.126730000000000231e+00 1.303079999999999927e+01 3.516010000000000080e+00 2.040560000000000151e+00 1.303261999999999965e+01 1.765830000000000011e+00 5.083719999999999573e+00 1.303086000000000055e+01 -1.119999999999999902e-03 8.126289999999999125e+00 1.302814000000000050e+01 7.035479999999999734e+00 2.030409999999999826e+00 1.303457000000000043e+01 5.283629999999999605e+00 5.084170000000000300e+00 1.303261999999999965e+01 3.516649999999999832e+00 8.131999999999999673e+00 1.303414000000000073e+01 6.989800000000000457e-01 2.033110000000000195e+00 2.059239000000000175e+01 -1.051479999999999970e+00 5.081909999999999705e+00 2.060134000000000043e+01 -2.811469999999999914e+00 8.129369999999999763e+00 2.059365999999999985e+01 4.220189999999999664e+00 2.037030000000000118e+00 2.059684999999999988e+01 2.463690000000000158e+00 5.082729999999999748e+00 2.059313999999999822e+01 7.075799999999999867e-01 8.127560000000000784e+00 2.059884999999999877e+01 7.743089999999999584e+00 2.032919999999999838e+00 2.059821000000000168e+01 5.983550000000000146e+00 5.079069999999999752e+00 2.059581999999999979e+01 4.221820000000000128e+00 8.133739999999999526e+00 2.059667999999999921e+01 5.120000000000000419e-03 3.499999999999999964e-04 1.121654999999999980e+01 8.797319999999999141e+00 3.045430000000000081e+00 1.120974999999999966e+01 -3.515169999999999906e+00 6.095309999999999562e+00 1.121616999999999997e+01 3.522870000000000168e+00 8.489999999999999283e-03 1.121815999999999924e+01 1.760950000000000015e+00 3.044049999999999923e+00 1.121402999999999928e+01 2.799999999999999972e-03 6.093960000000000043e+00 1.122324000000000055e+01 7.037289999999999601e+00 8.999999999999999754e-04 1.121982999999999997e+01 5.278870000000000395e+00 3.047400000000000109e+00 1.121995000000000076e+01 3.525020000000000042e+00 6.095229999999999926e+00 1.121332999999999913e+01 -4.570439999999999614e+00 9.143390000000000128e+00 1.878106000000000009e+01 -1.053819999999999979e+00 3.041139999999999954e+00 1.878052999999999884e+01 -2.818029999999999813e+00 6.103180000000000049e+00 1.878156999999999854e+01 -1.054059999999999997e+00 9.142670000000000741e+00 1.878085000000000093e+01 2.464809999999999945e+00 3.049420000000000019e+00 1.877919999999999945e+01 7.005200000000000315e-01 6.094089999999999563e+00 1.878509000000000029e+01 7.741430000000000256e+00 2.990000000000000036e-03 1.878099999999999881e+01 5.980669999999999931e+00 3.046530000000000182e+00 1.878341999999999956e+01 4.216879999999999740e+00 6.101549999999999585e+00 1.878299000000000163e+01
-8.500000000000000611e-03 2.026930000000000121e+00 9.404540000000000788e+00 -1.762769999999999948e+00 5.074230000000000018e+00 9.403130000000000877e+00 -3.514380000000000059e+00 8.133210000000000051e+00 9.400940000000000296e+00 3.517929999999999779e+00 2.034009999999999874e+00 9.399509999999999366e+00 1.769179999999999975e+00 5.072029999999999816e+00 9.394339999999999691e+00 -4.300000000000000003e-03 8.124489999999999768e+00 9.412630000000000052e+00 7.037029999999999674e+00 2.024430000000000174e+00 9.405680000000000263e+00 5.280330000000000190e+00 5.083680000000000199e+00 9.409019999999999939e+00 3.526079999999999881e+00 8.132989999999999498e+00 9.408609999999999474e+00 6.987900000000000222e-01 2.028690000000000104e+00 1.697738999999999976e+01 -1.048089999999999966e+00 5.081859999999999822e+00 1.695938999999999908e+01 -2.820730000000000182e+00 8.136169999999999902e+00 1.696430000000000149e+01 4.224669999999999703e+00 2.032049999999999912e+00 1.697166999999999959e+01 2.464319999999999844e+00 5.082819999999999894e+00 1.696340999999999966e+01 7.065299999999999914e-01 8.131719999999999615e+00 1.696845000000000070e+01 7.746039999999999814e+00 2.033339999999999925e+00 1.696798000000000073e+01 5.983769999999999811e+00 5.067980000000000373e+00 1.697491000000000128e+01 4.228349999999999831e+00 8.123290000000000788e+00 1.697280999999999906e+01 -3.939999999999999926e-03 2.031930000000000014e+00 1.303269000000000055e+01 -1.762860000000000094e+00 5.082930000000000170e+00 1.302834999999999965e+01 -3.523880000000000123e+00 8.125560000000000116e+00 1.303037999999999919e+01 3.513999999999999790e+00 2.044690000000000119e+00 1.303312000000000026e+01 1.768720000000000070e+00 5.085230000000000139e+00 1.303046999999999933e+01 -1.709999999999999932e-03 8.124900000000000233e+00 1.302641000000000027e+01 7.033210000000000406e+00 2.029479999999999951e+00 1.303603000000000023e+01 5.285420000000000229e+00 5.085910000000000153e+00 1.303311000000000064e+01 3.514969999999999928e+00 8.133440000000000225e+00 1.303537000000000035e+01 6.965000000000000080e-01 2.033520000000000216e+00 2.059084999999999965e+01 -1.049250000000000016e+00 5.082510000000000083e+00 2.060423000000000116e+01 -2.809219999999999828e+00 8.129509999999999792e+00 2.059275999999999840e+01 4.218289999999999651e+00 2.039390000000000036e+00 2.059751999999999938e+01 2.463529999999999998e+00 5.083739999999999704e+00 2.059197999999999951e+01 7.093599999999999905e-01 8.126789999999999736e+00 2.060051999999999950e+01 7.742639999999999745e+00 2.033240000000000158e+00 2.059956000000000031e+01 5.983319999999999972e+00 5.078280000000000349e+00 2.059597000000000122e+01 4.220740000000000158e+00 8.136060000000000514e+00 2.059725999999999857e+01 7.640000000000000090e-03 5.100000000000000366e-04 1.121603999999999957e+01 8.795970000000000510e+00 3.043950000000000156e+00 1.120589999999999975e+01 -3.512789999999999857e+00 6.094579999999999664e+00 1.121543999999999919e+01 3.524259999999999948e+00 1.268999999999999989e-02 1.121843999999999930e+01 1.761400000000000077e+00 3.041910000000000114e+00 1.121224999999999916e+01 4.199999999999999740e-03 6.092509999999999870e+00 1.122597999999999985e+01 7.035949999999999704e+00 1.330000000000000019e-03 1.122092999999999918e+01 5.278299999999999770e+00 3.046910000000000007e+00 1.122109999999999985e+01 3.527499999999999858e+00 6.094470000000000276e+00 1.121123000000000047e+01 -4.567700000000000315e+00 9.142469999999999430e+00 1.878041999999999945e+01 -1.052769999999999984e+00 3.037589999999999790e+00 1.877962000000000131e+01 -2.818999999999999950e+00 6.106290000000000440e+00 1.878114000000000061e+01 -1.053099999999999925e+00 9.141410000000000480e+00 1.878010000000000090e+01 2.465209999999999901e+00 3.049939999999999873e+00 1.877761999999999887e+01 6.988199999999999967e-01 6.092749999999999666e+00 1.878640000000000043e+01 7.740169999999999995e+00 4.479999999999999608e-03 1.878031999999999968e+01 5.979049999999999976e+00 3.045580000000000176e+00 1.878394000000000119e+01 4.213379999999999903e+00 6.103880000000000194e+00 1.878329000000000093e+01
-1.129999999999999928e-02 2.025150000000000006e+00 9.404510000000000147e+00 -1.763660000000000005e+00 5.072110000000000340e+00 9.402659999999999130e+00 -3.512490000000000112e+00 8.134570000000000078e+00 9.399770000000000181e+00 3.517259999999999831e+00 2.034590000000000121e+00 9.397830000000000794e+00 1.772210000000000063e+00 5.069169999999999732e+00 9.390990000000000393e+00 -5.720000000000000258e-03 8.122949999999999449e+00 9.415319999999999467e+00 7.036019999999999719e+00 2.021830000000000016e+00 9.406040000000000845e+00 5.280470000000000219e+00 5.084649999999999892e+00 9.410489999999999355e+00 3.528080000000000105e+00 8.134280000000000399e+00 9.409969999999999501e+00 6.971100000000000074e-01 2.027489999999999792e+00 1.698032999999999859e+01 -1.045469999999999899e+00 5.082239999999999647e+00 1.695645000000000024e+01 -2.822249999999999925e+00 8.138500000000000512e+00 1.696293000000000006e+01 4.224910000000000387e+00 2.031969999999999832e+00 1.697274000000000171e+01 2.464440000000000186e+00 5.083540000000000170e+00 1.696178000000000097e+01 7.073899999999999633e-01 8.132559999999999789e+00 1.696847999999999956e+01 7.746730000000000338e+00 2.033700000000000063e+00 1.696783999999999892e+01 5.983710000000000306e+00 5.063799999999999635e+00 1.697708000000000084e+01 4.229809999999999626e+00 8.121389999999999887e+00 1.697427000000000064e+01 -5.270000000000000379e-03 2.031829999999999803e+00 1.303301000000000087e+01 -1.763819999999999943e+00 5.083639999999999937e+00 1.302726000000000006e+01 -3.525160000000000071e+00 8.124409999999999243e+00 1.302994999999999948e+01 3.511989999999999945e+00 2.048799999999999955e+00 1.303364000000000011e+01 1.771600000000000064e+00 5.086700000000000443e+00 1.303006000000000064e+01 -2.309999999999999987e-03 8.123519999999999186e+00 1.302471000000000068e+01 7.030940000000000190e+00 2.028570000000000206e+00 1.303747000000000078e+01 5.287200000000000344e+00 5.087640000000000384e+00 1.303359000000000023e+01 3.513300000000000090e+00 8.134869999999999379e+00 1.303656999999999933e+01 6.940499999999999448e-01 2.033920000000000172e+00 2.058932000000000073e+01 -1.047050000000000036e+00 5.083090000000000330e+00 2.060707999999999984e+01 -2.806970000000000187e+00 8.129659999999999442e+00 2.059187999999999974e+01 4.216380000000000017e+00 2.041720000000000201e+00 2.059818999999999889e+01 2.463360000000000216e+00 5.084740000000000038e+00 2.059083000000000041e+01 7.111300000000000399e-01 8.126039999999999708e+00 2.060217000000000098e+01 7.742180000000000284e+00 2.033570000000000100e+00 2.060089999999999932e+01 5.983089999999999797e+00 5.077510000000000190e+00 2.059610999999999947e+01 4.219669999999999810e+00 8.138389999999999347e+00 2.059782999999999831e+01 1.010999999999999920e-02 6.700000000000000226e-04 1.121556999999999960e+01 8.794600000000000861e+00 3.042469999999999786e+00 1.120217000000000063e+01 -3.510440000000000005e+00 6.093869999999999898e+00 1.121470000000000056e+01 3.525599999999999845e+00 1.684000000000000080e-02 1.121874000000000038e+01 1.761810000000000098e+00 3.039820000000000189e+00 1.121049999999999969e+01 5.579999999999999891e-03 6.091029999999999944e+00 1.122861999999999938e+01 7.034629999999999939e+00 1.740000000000000010e-03 1.122200999999999915e+01 5.277720000000000411e+00 3.046440000000000037e+00 1.122222999999999971e+01 3.529929999999999790e+00 6.093729999999999869e+00 1.120917999999999992e+01 -4.564989999999999881e+00 9.141560000000000130e+00 1.877983000000000047e+01 -1.051770000000000094e+00 3.034139999999999837e+00 1.877873999999999910e+01 -2.819910000000000139e+00 6.109340000000000437e+00 1.878071999999999875e+01 -1.052140000000000075e+00 9.140190000000000481e+00 1.877937999999999974e+01 2.465580000000000105e+00 3.050460000000000171e+00 1.877607000000000070e+01 6.971699999999999564e-01 6.091440000000000410e+00 1.878766999999999854e+01 7.738949999999999996e+00 5.950000000000000427e-03 1.877965000000000018e+01 5.977479999999999905e+00 3.044630000000000170e+00 1.878449000000000169e+01 4.209939999999999571e+00 6.106150000000000411e+00 1.878359999999999985e+01
-1.405999999999999958e-02 2.023379999999999956e+00 9.404469999999999885e+00 -1.764510000000000023e+00 5.070000000000000284e+00 9.402179999999999538e+00 -3.510590000000000099e+00 8.135930000000000106e+00 9.398609999999999687e+00 3.516620000000000079e+00 2.035179999999999989e+00 9.396150000000000446e+00 1.775220000000000020e+00 5.066340000000000288e+00 9.387689999999999202e+00 -7.119999999999999593e-03 8.121420000000000528e+00 9.417999999999999261e+00 7.034989999999999633e+00 2.019239999999999924e+00 9.406390000000000029e+00 5.280640000000000001e+00 5.085600000000000342e+00 9.411929999999999907e+00 3.530069999999999819e+00 8.135569999999999524e+00 9.411319999999999908e+00 6.954799999999999871e-01 2.026289999999999925e+00 1.698321999999999932e+01 -1.042880000000000029e+00 5.082620000000000360e+00 1.695355999999999952e+01 -2.823719999999999786e+00 8.140810000000000102e+00 1.696154999999999902e+01 4.225170000000000314e+00 2.031870000000000065e+00 1.697379000000000104e+01 2.464560000000000084e+00 5.084249999999999936e+00 1.696014999999999873e+01 7.082600000000000007e-01 8.133390000000000342e+00 1.696849999999999881e+01 7.747419999999999973e+00 2.034050000000000136e+00 1.696770000000000067e+01 5.983649999999999913e+00 5.059660000000000046e+00 1.697925000000000040e+01 4.231259999999999799e+00 8.119510000000000005e+00 1.697569999999999979e+01 -6.620000000000000016e-03 2.031730000000000036e+00 1.303331000000000017e+01 -1.764780000000000015e+00 5.084310000000000329e+00 1.302618000000000009e+01 -3.526419999999999888e+00 8.123269999999999769e+00 1.302951000000000015e+01 3.509970000000000034e+00 2.052890000000000104e+00 1.303415999999999997e+01 1.774469999999999992e+00 5.088149999999999729e+00 1.302964000000000055e+01 -2.939999999999999905e-03 8.122170000000000556e+00 1.302304999999999957e+01 7.028669999999999973e+00 2.027670000000000083e+00 1.303889999999999993e+01 5.288960000000000328e+00 5.089360000000000106e+00 1.303405000000000058e+01 3.511639999999999873e+00 8.136290000000000688e+00 1.303773999999999944e+01 6.916400000000000325e-01 2.034310000000000063e+00 2.058780000000000143e+01 -1.044890000000000096e+00 5.083649999999999558e+00 2.060989000000000004e+01 -2.804720000000000102e+00 8.129810000000000869e+00 2.059102000000000032e+01 4.214480000000000004e+00 2.044020000000000170e+00 2.059883999999999915e+01 2.463179999999999925e+00 5.085729999999999862e+00 2.058970000000000056e+01 7.128799999999999581e-01 8.125289999999999679e+00 2.060379999999999967e+01 7.741710000000000313e+00 2.033889999999999976e+00 2.060221999999999909e+01 5.982840000000000380e+00 5.076760000000000161e+00 2.059622999999999848e+01 4.218600000000000350e+00 8.140710000000000335e+00 2.059840000000000160e+01 1.251000000000000029e-02 8.199999999999999824e-04 1.121513000000000027e+01 8.793219999999999814e+00 3.040999999999999925e+00 1.119856000000000051e+01 -3.508140000000000036e+00 6.093210000000000015e+00 1.121396000000000015e+01 3.526889999999999858e+00 2.093000000000000069e-02 1.121906000000000070e+01 1.762180000000000080e+00 3.037780000000000147e+00 1.120876999999999946e+01 6.960000000000000041e-03 6.089520000000000266e+00 1.123114999999999952e+01 7.033339999999999925e+00 2.129999999999999949e-03 1.122307999999999950e+01 5.277140000000000164e+00 3.045990000000000197e+00 1.122333000000000069e+01 3.532329999999999970e+00 6.093040000000000234e+00 1.120720000000000027e+01 -4.562330000000000219e+00 9.140650000000000830e+00 1.877928999999999959e+01 -1.050839999999999996e+00 3.030839999999999979e+00 1.877790999999999855e+01 -2.820759999999999934e+00 6.112289999999999779e+00 1.878028000000000119e+01 -1.051180000000000003e+00 9.138999999999999346e+00 1.877870000000000061e+01 2.465930000000000177e+00 3.051000000000000156e+00 1.877455000000000140e+01 6.955799999999999761e-01 6.090169999999999639e+00 1.878888999999999854e+01 7.737770000000000259e+00 7.389999999999999868e-03 1.877901999999999916e+01 5.975959999999999717e+00 3.043670000000000098e+00 1.878506000000000142e+01 4.206590000000000273e+00 6.108360000000000234e+00 1.878391999999999840e+01
-1.679999999999999896e-02 2.021609999999999907e+00 9.404389999999999361e+00 -1.765330000000000066e+00 5.067919999999999980e+00 9.401690000000000325e+00 -3.508680000000000021e+00 8.137290000000000134e+00 9.397460000000000591e+00 3.515989999999999949e+00 2.035769999999999857e+00 9.394470000000000098e+00 1.778200000000000003e+00 5.063519999999999577e+00 9.384420000000000428e+00 -8.500000000000000611e-03 8.119880000000000209e+00 9.420659999999999812e+00 7.033920000000000172e+00 2.016649999999999832e+00 9.406710000000000349e+00 5.280829999999999913e+00 5.086509999999999643e+00 9.413339999999999819e+00 3.532029999999999781e+00 8.136860000000000426e+00 9.412660000000000693e+00 6.938999999999999613e-01 2.025079999999999991e+00 1.698603999999999914e+01 -1.040310000000000068e+00 5.082980000000000054e+00 1.695073000000000008e+01 -2.825140000000000207e+00 8.143100000000000449e+00 1.696013999999999911e+01 4.225430000000000241e+00 2.031759999999999788e+00 1.697481000000000151e+01 2.464669999999999916e+00 5.084970000000000212e+00 1.695853999999999928e+01 7.091399999999999926e-01 8.134190000000000254e+00 1.696852000000000160e+01 7.748109999999999609e+00 2.034400000000000208e+00 1.696753999999999962e+01 5.983579999999999899e+00 5.055589999999999584e+00 1.698141999999999996e+01 4.232719999999999594e+00 8.117670000000000385e+00 1.697711999999999932e+01 -7.979999999999999247e-03 2.031649999999999956e+00 1.303358000000000061e+01 -1.765740000000000087e+00 5.084929999999999950e+00 1.302510000000000012e+01 -3.527660000000000018e+00 8.122149999999999537e+00 1.302907000000000082e+01 3.507950000000000124e+00 2.056960000000000122e+00 1.303471000000000046e+01 1.777330000000000076e+00 5.089559999999999640e+00 1.302919999999999945e+01 -3.589999999999999875e-03 8.120829999999999771e+00 1.302142000000000088e+01 7.026419999999999888e+00 2.026780000000000026e+00 1.304030999999999985e+01 5.290709999999999802e+00 5.091070000000000206e+00 1.303449999999999953e+01 3.509990000000000165e+00 8.137689999999999202e+00 1.303888000000000069e+01 6.892800000000000038e-01 2.034679999999999822e+00 2.058630000000000138e+01 -1.042790000000000106e+00 5.084179999999999922e+00 2.061262999999999934e+01 -2.802480000000000082e+00 8.129979999999999762e+00 2.059018000000000015e+01 4.212579999999999991e+00 2.046279999999999877e+00 2.059947999999999979e+01 2.462990000000000013e+00 5.086710000000000065e+00 2.058858999999999995e+01 7.146099999999999675e-01 8.124549999999999272e+00 2.060540999999999912e+01 7.741249999999999964e+00 2.034219999999999917e+00 2.060351999999999961e+01 5.982579999999999565e+00 5.076050000000000395e+00 2.059631999999999863e+01 4.217550000000000132e+00 8.143019999999999925e+00 2.059893999999999892e+01 1.484000000000000076e-02 9.499999999999999981e-04 1.121475000000000044e+01 8.791819999999999524e+00 3.039540000000000131e+00 1.119513000000000069e+01 -3.505879999999999885e+00 6.092600000000000016e+00 1.121320000000000050e+01 3.528099999999999792e+00 2.494999999999999996e-02 1.121939000000000064e+01 1.762489999999999890e+00 3.035829999999999806e+00 1.120707999999999949e+01 8.319999999999999271e-03 6.087979999999999947e+00 1.123353999999999964e+01 7.032090000000000174e+00 2.480000000000000000e-03 1.122413000000000061e+01 5.276550000000000296e+00 3.045570000000000110e+00 1.122439999999999927e+01 3.534660000000000135e+00 6.092410000000000103e+00 1.120528000000000013e+01 -4.559739999999999682e+00 9.139739999999999753e+00 1.877881999999999962e+01 -1.050000000000000044e+00 3.027699999999999836e+00 1.877712000000000003e+01 -2.821530000000000094e+00 6.115129999999999733e+00 1.877984000000000009e+01 -1.050240000000000062e+00 9.137869999999999493e+00 1.877805999999999997e+01 2.466250000000000053e+00 3.051550000000000207e+00 1.877308000000000021e+01 6.940600000000000103e-01 6.088949999999999640e+00 1.879004000000000119e+01 7.736629999999999896e+00 8.810000000000000123e-03 1.877842000000000056e+01 5.974510000000000431e+00 3.042689999999999895e+00 1.878567999999999927e+01 4.203319999999999723e+00 6.110500000000000043e+00 1.878425000000000011e+01