-3.428547218300000168e+02
-3.428522949900000185e+02
-3.428446855700000242e+02
-3.428321094300000027e+02
-3.428149034400000232e+02
-3.427935112100000197e+02
-3.427684571600000254e+02
-3.427403305199999863e+02
-3.427097560400000020e+02
-3.426773754499999995e+02
-3.416870476299999950e+02
-3.416863117699999748e+02
-3.416860032999999817e+02
-3.416862545100000261e+02
-3.416872312699999839e+02
-3.416891224500000135e+02
-3.416921423300000242e+02
-3.416965147199999819e+02
-3.417024636699999860e+02
-3.417102047399999947e+02
-3.421326113700000064e+02
-3.421348885500000279e+02
-3.421327963599999862e+02
-3.421263870700000211e+02
-3.421158345000000054e+02
-3.421014121499999874e+02
-3.420834857300000067e+02
-3.420624948000000245e+02
-3.420389255800000115e+02
-3.420132995499999993e+02
-3.419467396399999757e+02
-3.419406045599999970e+02
-3.419310933900000009e+02
-3.419184431900000050e+02
-3.419029921700000045e+02
-3.418851611299999718e+02
-3.418654479900000069e+02
-3.418443993600000113e+02
-3.418226016899999991e+02
-3.418006518099999766e+02
-3.420229786900000022e+02
-3.420284829600000194e+02
-3.420302697199999784e+02
-3.420283014899999898e+02
-3.420226570599999718e+02
-3.420135211400000230e+02
-3.420011824499999875e+02
-3.419860176600000159e+02
-3.419684701400000222e+02
-3.419490326299999765e+02
-3.421113028500000155e+02
-3.421155588699999726e+02
-3.421155610900000283e+02
-3.421114722899999947e+02
-3.421035726499999896e+02
-3.420922597900000142e+02
-3.420780277399999818e+02
-3.420614404500000205e+02
-3.420431183000000033e+02
-3.420237087900000006e+02
-3.406680293499999834e+02
-3.406663151500000026e+02
-3.406686479200000122e+02
-3.406750364200000263e+02
-3.406854568900000118e+02
-3.406998582699999929e+02
-3.407181578199999876e+02
-3.407402406100000007e+02
-3.407659649099999797e+02
-3.407951483400000257e+02
-3.420960141599999815e+02
-3.421045086299999980e+02
-3.421111429599999951e+02
-3.421158699299999739e+02
-3.421187393299999826e+02
-3.421198958599999855e+02
-3.421195647399999871e+02
-3.421180360399999927e+02
-3.421156345200000146e+02
-3.421127075100000070e+02
-3.418592051300000207e+02
-3.418586640600000237e+02
-3.418577412700000195e+02
-3.418565051100000005e+02
-3.418550436400000194e+02
-3.418534558000000061e+02
-3.418518503899999814e+02
-3.418503462799999966e+02
-3.418490590800000177e+02
-3.418481002099999841e+02
-3.419896786799999973e+02
-3.419850725200000170e+02
-3.419778842000000054e+02
-3.419683239799999797e+02
-3.419566702600000099e+02
-3.419432685500000275e+02
-3.419285123600000134e+02
-3.419128282600000261e+02
-3.418966680899999915e+02
-3.418804865299999847e+02
-3.418649820499999805e+02
-3.418686062900000024e+02
-3.418705676600000061e+02
-3.418708772100000033e+02
-3.418695948800000224e+02
-3.418668321900000251e+02
-3.418627555499999744e+02
-3.418575713700000165e+02
-3.418515216100000202e+02
-3.418448763499999927e+02
-3.420098966699999892e+02
-3.420063355899999920e+02
-3.419994020600000226e+02
-3.419893273900000281e+02
-3.419764413500000160e+02
-3.419611466700000051e+02
-3.419439002199999891e+02
-3.419252025600000024e+02
-3.419055644800000096e+02
-3.418854934500000127e+02
-3.422565741899999807e+02
-3.422558258600000158e+02
-3.422508779799999843e+02
-3.422418978000000038e+02
-3.422291543299999717e+02
-3.422130184999999756e+02
-3.421939369899999974e+02
-3.421724112599999899e+02
-3.421490003499999943e+02
-3.421242806999999857e+02
-3.412203078300000243e+02
-3.412325031099999819e+02
-3.412432931999999823e+02
-3.412525434099999870e+02
-3.412601854600000024e+02
-3.412662267900000188e+02
-3.412707565900000191e+02
-3.412739286300000003e+02
-3.412759641299999771e+02
-3.412771362199999885e+02
-3.417885412900000119e+02
-3.417947963299999969e+02
-3.417998807700000157e+02
-3.418039171899999928e+02
-3.418071570299999848e+02
-3.418099652899999796e+02
-3.418127862200000209e+02
-3.418161165600000118e+02
-3.418204686600000173e+02
-3.418263269799999762e+02
-3.425492229899999757e+02
-3.425473921700000233e+02
-3.425396881500000177e+02
-3.425263737700000206e+02
-3.425078743999999915e+02
-3.424847666200000162e+02
-3.424577528799999868e+02
-3.424276228300000184e+02
-3.423952183600000012e+02
-3.423614092700000242e+02
-3.421746388700000239e+02
-3.421748689799999852e+02
-3.421722010799999794e+02
-3.421667544599999928e+02
-3.421587124999999787e+02
-3.421483261199999788e+02
-3.421358946500000116e+02
-3.421217569600000274e+02
-3.421062841699999808e+02
-3.420898552099999961e+02
-3.421408184000000006e+02
-3.421379696299999864e+02
-3.421313365199999907e+02
-3.421211586599999919e+02
-3.421078060899999969e+02
-3.420917523499999788e+02
-3.420735660700000267e+02
-3.420538742800000023e+02
-3.420333501999999726e+02
-3.420126886499999728e+02
-3.422816060399999856e+02
-3.422809627999999975e+02
-3.422760374100000149e+02
-3.422669892600000026e+02
-3.422541117299999769e+02
-3.422378244600000130e+02
-3.422186609500000145e+02
-3.421972416199999998e+02
-3.421742618800000173e+02
-3.421504605999999740e+02
-3.418570670099999802e+02
-3.418538977100000125e+02
-3.418491132500000163e+02
-3.418428072099999895e+02
-3.418351216699999782e+02
-3.418262423799999965e+02
-3.418163910499999929e+02
-3.418058209299999817e+02
-3.417948056199999769e+02
-3.417836335100000156e+02
-3.420677013900000247e+02
-3.420684752299999900e+02
-3.420658378100000050e+02
-3.420598838899999805e+02
-3.420508464600000025e+02
-3.420390732100000264e+02
-3.420250141399999961e+02
-3.420092003699999736e+02
-3.419922077900000090e+02
-3.419746434499999737e+02
-3.423656583999999725e+02
-3.423598288200000184e+02
-3.423506254800000193e+02
-3.423383385000000203e+02
-3.423233929200000034e+02
-3.423063385599999719e+02
-3.422878126699999939e+02
-3.422685186900000076e+02
-3.422491960699999822e+02
-3.422305848600000218e+02
-3.420809997399999816e+02
-3.420733315499999776e+02
-3.420627357299999858e+02
-3.420495406599999910e+02
-3.420341710600000056e+02
-3.420171347300000093e+02
-3.419989883100000156e+02
-3.419803205599999956e+02
-3.419617251199999828e+02
-3.419437903200000051e+02
-3.425270997599999987e+02
-3.425230147899999906e+02
-3.425148981799999888e+02
-3.425030275400000050e+02
-3.424877818699999921e+02
-3.424696223600000167e+02
-3.424490697100000034e+02
-3.424266927400000213e+02
-3.424030756600000132e+02
-3.423788010700000086e+02
-3.423814421600000060e+02
-3.423812598800000160e+02
-3.423766511000000037e+02
-3.423677335300000095e+02
-3.423547636600000033e+02
-3.423381219600000236e+02
-3.423182887400000141e+02
-3.422958231700000056e+02
-3.422713306300000227e+02
-3.422454436200000032e+02
-3.418585071800000037e+02
-3.418641521800000191e+02
-3.418676056200000062e+02
-3.418688968000000159e+02
-3.418681476099999941e+02
-3.418655709999999885e+02
-3.418614582899999732e+02
-3.418561670600000184e+02
-3.418501055199999996e+02
-3.418437160899999867e+02
-3.409519101999999862e+02
-3.409560628099999917e+02
-3.409652962900000261e+02
-3.409795855200000005e+02
-3.409989079999999717e+02
-3.410232239299999719e+02
-3.410524455099999841e+02
-3.410864159800000266e+02
-3.411248870200000169e+02
-3.411674937600000135e+02
-3.423017485699999725e+02
-3.423006754900000033e+02
-3.422953939500000047e+02
-3.422860713900000178e+02
-3.422729767299999821e+02
-3.422564747100000204e+02
-3.422369970600000215e+02
-3.422150345599999923e+02
-3.421911121800000046e+02
-3.421657748299999753e+02
-3.417855076899999744e+02
-3.417909158499999762e+02
-3.417935577499999908e+02
-3.417935348199999908e+02
-3.417910597599999960e+02
-3.417864310599999840e+02
-3.417800203099999976e+02
-3.417722572199999718e+02
-3.417636067199999843e+02
-3.417545524299999897e+02
-3.416873739399999863e+02
-3.416942253400000027e+02
-3.416990119700000150e+02
-3.417016700899999933e+02
-3.417022816200000079e+02
-3.417010623200000055e+02
-3.416983512900000051e+02
-3.416945732400000111e+02
-3.416902143400000114e+02
-3.416857866099999796e+02
-3.419072752600000058e+02
-3.419122403499999905e+02
-3.419166292300000123e+02
-3.419203818799999794e+02
-3.419235244299999863e+02
-3.419261609900000281e+02
-3.419284707599999820e+02
-3.419306855400000131e+02
-3.419330797200000234e+02
-3.419359415800000193e+02
-3.424742607499999849e+02
-3.424723470000000134e+02
-3.424642687599999817e+02
-3.424503258999999957e+02
-3.424309931799999731e+02
-3.424069054299999948e+02
-3.423788199100000043e+02
-3.423475849100000232e+02
-3.423141031600000019e+02
-3.422792984600000068e+02
-3.419693855599999779e+02
-3.419654478900000072e+02
-3.419571603499999810e+02
-3.419449286500000085e+02
-3.419293307600000276e+02
-3.419110929299999952e+02
-3.418910554500000103e+02
-3.418701282499999934e+02
-3.418492519199999720e+02
-3.418293576699999790e+02
-3.418427160900000104e+02
-3.418482576299999778e+02
-3.418503191500000185e+02
-3.418489858199999958e+02
-3.418444898899999771e+02
-3.418372064399999886e+02
-3.418276209699999981e+02
-3.418163105099999939e+02
-3.418039065500000220e+02
-3.417910603299999934e+02
-3.422258741200000145e+02
-3.422261593800000128e+02
-3.422225740700000074e+02
-3.422152332200000160e+02
-3.422043577499999856e+02
-3.421902567000000204e+02
-3.421733183299999723e+02
-3.421539901300000110e+02
-3.421327712199999951e+02
-3.421101758300000029e+02
-3.425140265800000066e+02
-3.425094083999999839e+02
-3.425006269500000258e+02
-3.424880212400000232e+02
-3.424720537300000274e+02
-3.424532877799999824e+02
-3.424323659199999952e+02
-3.424099853999999823e+02
-3.423868632499999762e+02
-3.423637263300000200e+02
-3.422546594400000117e+02
-3.422529244799999901e+02
-3.422466293599999858e+02
-3.422359416900000042e+02
-3.422211658400000260e+02
-3.422027194699999768e+02
-3.421811164100000155e+02
-3.421569446299999981e+02
-3.421308386499999870e+02
-3.421034495299999776e+02
-3.423800884400000086e+02
-3.423802338699999837e+02
-3.423766180499999905e+02
-3.423693344499999967e+02
-3.423585779000000002e+02
-3.423446195899999793e+02
-3.423278066299999978e+02
-3.423085477700000183e+02
-3.422872902199999885e+02
-3.422645085799999833e+02
-3.416140457100000276e+02
-3.416076245300000096e+02
-3.415993604700000219e+02
-3.415894844800000101e+02
-3.415783093200000167e+02
-3.415662112699999966e+02
-3.415536270599999966e+02
-3.415410361400000170e+02
-3.415289391100000103e+02
-3.415178526199999851e+02
-3.421348015400000122e+02
-3.421307320600000139e+02
-3.421239538199999970e+02
-3.421146525699999756e+02
-3.421030600400000026e+02
-3.420894449799999961e+02
-3.420741009999999847e+02
-3.420573363600000221e+02
-3.420394601200000011e+02
-3.420207749400000239e+02
-3.420883397599999967e+02
-3.420925326500000097e+02
-3.420927886499999886e+02
-3.420892133799999897e+02
-3.420820181700000262e+02
-3.420715177600000061e+02
-3.420581036199999971e+02
-3.420422328299999890e+02
-3.420244060399999739e+02
-3.420051409700000136e+02
-3.418589152900000272e+02
-3.418561188699999889e+02
-3.418528546900000151e+02
-3.418492522199999826e+02
-3.418454803600000105e+02
-3.418417408500000079e+02
-3.418382616999999755e+02
-3.418352884099999756e+02
-3.418330805200000100e+02
-3.418318979599999921e+02
-3.418074414199999751e+02
-3.418106489300000135e+02
-3.418119360499999857e+02
-3.418113473999999883e+02
-3.418090127599999732e+02
-3.418051490099999796e+02
-3.418000404800000069e+02
-3.417940151199999832e+02
-3.417874333199999910e+02
-3.417806511399999749e+02
-3.419754121700000269e+02
-3.419735850100000221e+02
-3.419705324500000074e+02
-3.419665050400000155e+02
-3.419618276300000161e+02
-3.419568753799999854e+02
-3.419520575299999905e+02
-3.419477845399999865e+02
-3.419444501199999991e+02
-3.419424021099999891e+02
-3.418303034499999740e+02
-3.418299476099999765e+02
-3.418280616299999792e+02
-3.418247603699999786e+02
-3.418202005300000224e+02
-3.418145680000000084e+02
-3.418080707899999879e+02
-3.418009396400000242e+02
-3.417934041199999911e+02
-3.417857003400000053e+02
-3.422408639199999811e+02
-3.422386255000000119e+02
-3.422325469099999964e+02
-3.422228538400000275e+02
-3.422098951300000067e+02
-3.421941257199999882e+02
-3.421760904099999721e+02
-3.421563981699999886e+02
-3.421357012500000110e+02
-3.421146694199999843e+02
-3.421831253299999958e+02
-3.421777300699999955e+02
-3.421688379999999938e+02
-3.421567106100000046e+02
-3.421417433699999719e+02
-3.421244504399999755e+02
-3.421054286699999807e+02
-3.420853408799999897e+02
-3.420648776599999792e+02
-3.420447321199999919e+02
-3.418188752300000033e+02
-3.418136905399999819e+02
-3.418085911300000248e+02
-3.418037457699999777e+02
-3.417994116599999757e+02
-3.417959211400000186e+02
-3.417936597600000255e+02
-3.417930310300000087e+02
-3.417944374200000084e+02
-3.417982485499999825e+02
-3.416832932500000197e+02
-3.416776228300000184e+02
-3.416734931600000209e+02
-3.416710423000000105e+02
-3.416704079099999944e+02
-3.416717233699999952e+02
-3.416751086699999860e+02
-3.416806737499999826e+02
-3.416885085200000276e+02
-3.416986774999999739e+02
-3.409978299900000138e+02
-3.409956869700000084e+02
-3.409930655900000147e+02
-3.409901942600000098e+02
-3.409874035099999787e+02
-3.409851005599999780e+02
-3.409837544399999842e+02
-3.409838568299999793e+02
-3.409858877500000176e+02
-3.409902815099999884e+02
