1.155999999999999910e-03 4.739999999999999747e-04 -6.729999999999999871e-04 1.157000000000000042e-03 4.800000000000000122e-04 -6.790000000000000245e-04 1.152000000000000029e-03 4.789999999999999879e-04 -6.710000000000000469e-04 1.160000000000000007e-03 4.829999999999999767e-04 -6.719999999999999628e-04 1.157000000000000042e-03 4.800000000000000122e-04 -6.750000000000000357e-04 1.160999999999999923e-03 4.780000000000000178e-04 -6.719999999999999628e-04 1.154999999999999994e-03 4.789999999999999879e-04 -6.780000000000000002e-04 1.157999999999999958e-03 4.769999999999999934e-04 -6.750000000000000357e-04 1.160000000000000007e-03 4.820000000000000066e-04 -6.710000000000000469e-04 4.622400000000000120e-02 -7.590000000000000175e-04 4.970000000000000459e-04 4.622699999999999726e-02 -7.600000000000000418e-04 4.989999999999999861e-04 4.622500000000000220e-02 -7.609999999999999577e-04 5.019999999999999506e-04 4.622300000000000020e-02 -7.600000000000000418e-04 4.939999999999999730e-04 4.622199999999999920e-02 -7.600000000000000418e-04 4.979999999999999618e-04 4.622199999999999920e-02 -7.649999999999999465e-04 5.000000000000000104e-04 4.622199999999999920e-02 -7.600000000000000418e-04 4.879999999999999898e-04 4.622099999999999820e-02 -7.640000000000000306e-04 4.939999999999999730e-04 4.622099999999999820e-02 -7.630000000000000063e-04 4.979999999999999618e-04 -4.621399999999999814e-02 -7.510000000000000399e-04 -4.979999999999999618e-04 -4.621299999999999714e-02 -7.450000000000000025e-04 -4.920000000000000328e-04 -4.621800000000000214e-02 -7.450000000000000025e-04 -5.000000000000000104e-04 -4.621200000000000307e-02 -7.429999999999999539e-04 -4.979999999999999618e-04 -4.621499999999999914e-02 -7.450000000000000025e-04 -4.970000000000000459e-04 -4.621000000000000107e-02 -7.479999999999999670e-04 -5.000000000000000104e-04 -4.621600000000000014e-02 -7.460000000000000268e-04 -4.929999999999999487e-04 -4.621499999999999914e-02 -7.489999999999999913e-04 -4.949999999999999973e-04 -4.621299999999999714e-02 -7.439999999999999782e-04 -5.000000000000000104e-04 -1.149000000000000065e-03 4.659999999999999971e-04 6.830000000000000134e-04 -1.147000000000000016e-03 4.640000000000000027e-04 6.809999999999999647e-04 -1.146000000000000100e-03 4.659999999999999971e-04 6.800000000000000488e-04 -1.147999999999999932e-03 4.650000000000000270e-04 6.859999999999999779e-04 -1.149999999999999981e-03 4.650000000000000270e-04 6.819999999999999890e-04 -1.149999999999999981e-03 4.629999999999999784e-04 6.800000000000000488e-04 -1.149999999999999981e-03 4.659999999999999971e-04 6.920000000000000153e-04 -1.150999999999999896e-03 4.620000000000000083e-04 6.880000000000000265e-04 -1.149999999999999981e-03 4.629999999999999784e-04 6.830000000000000134e-04 -1.243599999999999914e-02 3.159999999999999832e-04 -5.159999999999999656e-04 -1.243400000000000061e-02 3.130000000000000187e-04 -5.150000000000000498e-04 -1.243799999999999940e-02 3.179999999999999776e-04 -5.140000000000000254e-04 -1.243499999999999987e-02 3.170000000000000075e-04 -5.130000000000000011e-04 -1.243299999999999961e-02 3.139999999999999888e-04 -5.140000000000000254e-04 -1.243200000000000034e-02 3.179999999999999776e-04 -5.140000000000000254e-04 -1.243499999999999987e-02 3.139999999999999888e-04 -5.130000000000000011e-04 -1.243799999999999940e-02 3.150000000000000131e-04 -5.150000000000000498e-04 -1.243400000000000061e-02 3.159999999999999832e-04 -5.150000000000000498e-04 1.244100000000000067e-02 3.190000000000000019e-04 5.069999999999999637e-04 1.244400000000000020e-02 3.240000000000000150e-04 5.060000000000000478e-04 1.244400000000000020e-02 3.209999999999999963e-04 5.069999999999999637e-04 1.244100000000000067e-02 3.170000000000000075e-04 5.069999999999999637e-04 1.243900000000000040e-02 3.209999999999999963e-04 5.069999999999999637e-04 1.243999999999999967e-02 3.190000000000000019e-04 5.069999999999999637e-04 1.243900000000000040e-02 3.150000000000000131e-04 5.079999999999999880e-04 1.243799999999999940e-02 3.220000000000000206e-04 5.069999999999999637e-04 1.243700000000000014e-02 3.200000000000000262e-04 5.060000000000000478e-04
2.750100000000000114e-02 4.739000000000000157e-03 -2.061599999999999891e-02 2.801299999999999971e-02 1.890100000000000113e-02 -5.557000000000000307e-03 9.747999999999999721e-03 -5.336999999999999730e-03 1.340700000000000051e-02 1.772100000000000064e-02 3.441000000000000048e-03 -2.481999999999999831e-03 -2.272599999999999967e-02 1.980300000000000116e-02 3.543799999999999728e-02 1.387900000000000071e-02 1.311000000000000099e-03 -1.199799999999999998e-02 -1.636400000000000007e-02 9.525000000000000480e-03 -1.614099999999999910e-02 2.041700000000000112e-02 -1.962399999999999908e-02 -2.308100000000000082e-02 -1.508499999999999945e-02 -3.516000000000000028e-03 -6.245999999999999816e-03 7.189099999999999657e-02 -2.318999999999999881e-03 -4.678000000000000214e-02 1.385100000000000046e-02 -8.517000000000000265e-03 4.476900000000000324e-02 7.092900000000000593e-02 -1.853199999999999986e-02 -9.653999999999999387e-03 4.295199999999999713e-02 -9.388999999999999777e-03 -1.995900000000000105e-02 3.332100000000000339e-02 1.170999999999999949e-03 1.171900000000000025e-02 4.105899999999999828e-02 -2.022499999999999992e-02 -1.013000000000000012e-03 3.308099999999999929e-02 -2.272999999999999847e-03 -5.624999999999999792e-03 3.413800000000000168e-02 4.086700000000000055e-02 -2.863000000000000093e-03 3.235400000000000081e-02 2.341000000000000025e-02 -1.470199999999999979e-02 -4.360599999999999893e-02 6.244999999999999683e-03 -2.112199999999999842e-02 -3.377600000000000047e-02 -3.183899999999999925e-02 4.426000000000000247e-03 -1.728100000000000122e-02 1.427100000000000070e-02 -6.083999999999999998e-03 -3.667900000000000327e-02 -2.235900000000000040e-02 1.144900000000000084e-02 -4.676400000000000001e-02 -2.772300000000000111e-02 -1.171299999999999945e-02 -5.239599999999999813e-02 1.590300000000000047e-02 3.023500000000000146e-02 -2.765700000000000103e-02 1.146699999999999976e-02 -1.485299999999999988e-02 -4.917400000000000243e-02 -9.369000000000000591e-03 -1.016899999999999922e-02 -2.369299999999999878e-02 -1.414600000000000059e-02 -2.901199999999999959e-02 3.492200000000000165e-02 -1.127900000000000083e-02 1.257499999999999937e-02 -3.932900000000000285e-02 -1.842699999999999894e-02 -4.565199999999999814e-02 -8.347999999999999518e-03 5.735999999999999779e-03 1.960800000000000043e-02 1.776999999999999934e-03 -2.907600000000000115e-02 -9.102999999999999980e-03 -7.816999999999999296e-03 -1.051700000000000031e-02 1.506500000000000027e-02 -1.507299999999999959e-02 7.052000000000000109e-03 -1.771599999999999911e-02 -3.354999999999999909e-03 7.849999999999999990e-04 -1.396200000000000045e-02 -9.586000000000000770e-03 2.320900000000000046e-02 -1.662900000000000142e-02 8.451999999999999444e-03 -2.442000000000000160e-03 -1.087699999999999952e-02 -5.058100000000000096e-02 -7.079000000000000223e-03 2.586400000000000157e-02 -1.795499999999999874e-02 5.436999999999999993e-03 8.861499999999999932e-02 -3.789900000000000213e-02 2.553800000000000167e-02 -5.886999999999999872e-03 -4.801699999999999718e-02 -4.165100000000000052e-02 1.038599999999999940e-02 -3.646300000000000235e-02 4.006900000000000045e-02 1.790699999999999931e-02 -1.469299999999999946e-02 -1.981099999999999875e-02 -7.772999999999999354e-02 9.209000000000000172e-03 -1.665700000000000167e-02 -1.142100000000000060e-02 -1.331599999999999971e-02 1.552300000000000034e-02 -1.781500000000000097e-02 -3.985600000000000254e-02 2.798600000000000046e-02 4.052499999999999852e-02 -2.532699999999999882e-02 2.742000000000000080e-03 3.661400000000000071e-02 -3.572499999999999981e-02 8.971200000000000008e-02 2.744999999999999871e-02 5.339499999999999802e-02 -6.112800000000000178e-02 -2.834000000000000147e-03 3.619999999999999954e-03 2.665100000000000108e-02 2.600500000000000034e-02 -6.853999999999999850e-03 8.463000000000000037e-03 2.522699999999999942e-02 4.838100000000000039e-02 2.606800000000000089e-02 -3.300700000000000162e-02 3.544900000000000134e-02 -1.381800000000000042e-02 1.884800000000000017e-02 4.745200000000000112e-02 -5.862000000000000023e-03 1.858299999999999882e-02 6.198300000000000337e-02 -4.236399999999999888e-02 7.492000000000000395e-03
5.384900000000000103e-02 9.011999999999999178e-03 -4.060799999999999826e-02 5.440500000000000197e-02 3.706899999999999779e-02 -1.092100000000000015e-02 1.812000000000000069e-02 -1.100499999999999916e-02 2.729699999999999835e-02 3.409899999999999737e-02 6.271999999999999797e-03 -4.282000000000000216e-03 -4.590400000000000036e-02 3.867799999999999710e-02 7.073400000000000520e-02 2.654700000000000115e-02 2.194999999999999903e-03 -2.331799999999999845e-02 -3.385200000000000015e-02 1.851099999999999968e-02 -3.165099999999999858e-02 3.985500000000000154e-02 -3.976400000000000073e-02 -4.573200000000000182e-02 -3.130499999999999949e-02 -7.630999999999999762e-03 -1.183799999999999956e-02 9.772400000000000531e-02 -3.963000000000000377e-03 -9.430099999999999594e-02 -1.797100000000000086e-02 -1.611299999999999885e-02 8.786599999999999966e-02 9.560499999999999554e-02 -3.635700000000000043e-02 -1.981600000000000028e-02 3.966499999999999887e-02 -1.800900000000000070e-02 -4.032600000000000073e-02 2.059800000000000172e-02 3.017000000000000150e-03 2.283500000000000113e-02 3.580400000000000249e-02 -3.948499999999999927e-02 -2.673000000000000029e-03 1.991800000000000168e-02 -3.765999999999999816e-03 -1.185899999999999975e-02 2.221000000000000058e-02 8.254699999999999538e-02 -6.680000000000000174e-03 1.859399999999999942e-02 4.771999999999999853e-02 -3.009200000000000069e-02 -4.082299999999999818e-02 1.307700000000000008e-02 -4.140100000000000030e-02 -2.123999999999999846e-02 -6.251199999999999812e-02 9.875999999999999363e-03 1.143399999999999972e-02 2.909899999999999987e-02 -1.122899999999999940e-02 -2.711999999999999827e-02 -4.385499999999999815e-02 2.334800000000000070e-02 -4.732900000000000301e-02 -5.424099999999999755e-02 -2.249599999999999864e-02 -5.848799999999999832e-02 3.252300000000000330e-02 6.093200000000000005e-02 -9.499000000000000499e-03 2.337900000000000048e-02 -2.878800000000000109e-02 -5.211199999999999860e-02 -1.792900000000000049e-02 -1.975700000000000026e-02 -1.433999999999999945e-03 -2.730700000000000141e-02 -5.675100000000000283e-02 7.100199999999999567e-02 -2.310100000000000001e-02 2.490600000000000105e-02 -7.683700000000000252e-02 -3.678499999999999825e-02 -9.048699999999999799e-02 -1.548500000000000050e-02 1.094400000000000060e-02 3.855499999999999899e-02 4.715999999999999706e-03 -5.814099999999999824e-02 -1.850500000000000062e-02 -1.450100000000000000e-02 -2.149300000000000169e-02 2.957299999999999859e-02 -2.884199999999999958e-02 1.352800000000000009e-02 -3.592499999999999860e-02 -5.544000000000000317e-03 1.098000000000000018e-03 -2.833300000000000055e-02 -1.777099999999999860e-02 4.572799999999999782e-02 -3.357999999999999874e-02 1.796599999999999933e-02 -5.497000000000000150e-03 -2.222400000000000070e-02 -8.820100000000000162e-02 -1.430099999999999948e-02 5.175899999999999945e-02 -2.339600000000000013e-02 1.048600000000000053e-02 1.766719999999999957e-01 -6.337700000000000278e-02 5.060800000000000021e-02 -1.128599999999999916e-02 -8.314599999999999769e-02 -8.326799999999999480e-02 2.104599999999999874e-02 -6.021699999999999969e-02 7.936200000000000199e-02 3.578699999999999937e-02 -1.725799999999999904e-02 -3.944700000000000290e-02 -1.535160000000000136e-01 3.058900000000000161e-02 -3.347499999999999781e-02 -2.211600000000000024e-02 -1.418900000000000022e-02 3.066100000000000075e-02 -3.492200000000000165e-02 -6.732200000000000684e-02 5.536200000000000149e-02 8.120700000000000141e-02 -6.287600000000000133e-02 5.291999999999999829e-03 7.259799999999999587e-02 -8.384300000000000086e-02 1.776419999999999944e-01 5.403000000000000164e-02 9.317300000000000582e-02 -1.214960000000000068e-01 -6.309000000000000372e-03 -5.154999999999999860e-03 5.258899999999999686e-02 5.085800000000000043e-02 -2.595700000000000091e-02 1.655799999999999980e-02 4.961800000000000238e-02 8.383699999999999486e-02 5.158499999999999891e-02 -6.612200000000000022e-02 5.824800000000000116e-02 -2.785299999999999929e-02 3.705900000000000166e-02 8.218999999999999917e-02 -1.230599999999999923e-02 3.677699999999999719e-02 1.109770000000000062e-01 -8.469599999999999351e-02 1.451200000000000059e-02
8.003599999999999604e-02 1.332099999999999951e-02 -6.046399999999999691e-02 8.018400000000000527e-02 5.484699999999999992e-02 -1.668400000000000091e-02 2.610700000000000173e-02 -1.648499999999999965e-02 4.092500000000000304e-02 5.020199999999999663e-02 8.944000000000000561e-03 -5.957999999999999755e-03 -6.830999999999999572e-02 5.714500000000000135e-02 1.050610000000000016e-01 3.909399999999999681e-02 3.163000000000000013e-03 -3.469799999999999968e-02 -5.115600000000000008e-02 2.748799999999999855e-02 -4.706099999999999867e-02 5.930799999999999961e-02 -5.981199999999999711e-02 -6.854599999999999582e-02 -4.744400000000000006e-02 -1.190599999999999992e-02 -1.754700000000000010e-02 1.235639999999999933e-01 -5.599999999999999943e-03 -1.417509999999999881e-01 -4.913000000000000006e-02 -2.349400000000000099e-02 1.295050000000000090e-01 1.201600000000000029e-01 -5.418499999999999706e-02 -2.981899999999999828e-02 3.631999999999999812e-02 -2.654400000000000162e-02 -6.042700000000000154e-02 8.184999999999999568e-03 4.675000000000000336e-03 3.375199999999999728e-02 3.048299999999999968e-02 -5.833900000000000197e-02 -4.479999999999999608e-03 6.808999999999999948e-03 -5.287000000000000033e-03 -1.813299999999999981e-02 1.054399999999999955e-02 1.241089999999999971e-01 -1.109199999999999943e-02 4.976999999999999653e-03 7.209400000000000530e-02 -4.559099999999999958e-02 -3.787399999999999795e-02 1.968599999999999864e-02 -6.113400000000000084e-02 -8.606000000000000802e-03 -9.254500000000000226e-02 1.579200000000000048e-02 3.978600000000000192e-02 4.370299999999999879e-02 -1.584599999999999898e-02 -1.753000000000000044e-02 -6.522699999999999332e-02 3.509600000000000219e-02 -4.804800000000000043e-02 -8.012900000000000578e-02 -3.278199999999999864e-02 -6.446799999999999753e-02 4.893499999999999933e-02 9.141900000000000026e-02 8.142999999999999197e-03 3.494099999999999984e-02 -4.223600000000000271e-02 -5.505100000000000271e-02 -2.641599999999999851e-02 -2.919700000000000073e-02 2.050099999999999839e-02 -4.019299999999999956e-02 -8.344200000000000228e-02 1.069110000000000060e-01 -3.488499999999999934e-02 3.765399999999999997e-02 -1.134759999999999935e-01 -5.446200000000000346e-02 -1.335860000000000103e-01 -2.258399999999999991e-02 1.601699999999999999e-02 5.745200000000000307e-02 7.672000000000000000e-03 -8.660800000000000443e-02 -2.746099999999999930e-02 -2.115900000000000072e-02 -3.244999999999999968e-02 4.421499999999999736e-02 -4.242300000000000237e-02 1.993199999999999833e-02 -5.387999999999999734e-02 -7.669999999999999735e-03 1.356999999999999916e-03 -4.228400000000000214e-02 -2.560799999999999882e-02 6.788600000000000190e-02 -4.991999999999999910e-02 2.736600000000000144e-02 -8.786000000000000407e-03 -3.321600000000000247e-02 -1.250950000000000117e-01 -2.129800000000000096e-02 7.688200000000000589e-02 -2.869599999999999929e-02 1.550200000000000015e-02 2.629130000000000078e-01 -8.873499999999999444e-02 7.535000000000000031e-02 -1.665300000000000114e-02 -1.175999999999999962e-01 -1.243709999999999954e-01 3.139499999999999930e-02 -8.351200000000000290e-02 1.179639999999999994e-01 5.301199999999999662e-02 -2.018800000000000108e-02 -5.838999999999999746e-02 -2.272689999999999988e-01 5.153599999999999848e-02 -5.002399999999999902e-02 -3.258300000000000085e-02 -1.501599999999999983e-02 4.561799999999999883e-02 -5.176800000000000151e-02 -9.470800000000000052e-02 8.225599999999999579e-02 1.212099999999999983e-01 -1.000100000000000017e-01 8.000999999999999432e-03 1.080829999999999985e-01 -1.314780000000000115e-01 2.635089999999999932e-01 7.999399999999999566e-02 1.315389999999999893e-01 -1.803460000000000063e-01 -9.858000000000000443e-03 -1.386500000000000059e-02 7.800899999999999501e-02 7.485100000000000087e-02 -4.473099999999999993e-02 2.447999999999999829e-02 7.349700000000000677e-02 1.186119999999999952e-01 7.673800000000000066e-02 -9.859199999999999908e-02 8.074599999999999833e-02 -4.171199999999999908e-02 5.495300000000000185e-02 1.163460000000000050e-01 -1.900100000000000053e-02 5.485099999999999698e-02 1.591819999999999902e-01 -1.264200000000000046e-01 2.148600000000000163e-02
1.058859999999999940e-01 1.769700000000000092e-02 -7.993100000000000205e-02 1.051880000000000037e-01 7.208799999999999930e-02 -2.273700000000000027e-02 3.354900000000000243e-02 -2.175099999999999950e-02 5.427699999999999886e-02 6.590400000000000424e-02 1.142699999999999966e-02 -7.374000000000000346e-03 -8.987199999999999356e-02 7.523000000000000520e-02 1.382970000000000033e-01 5.147499999999999992e-02 4.264000000000000429e-03 -4.614599999999999952e-02 -6.811200000000000587e-02 3.648099999999999954e-02 -6.220599999999999741e-02 7.862099999999999644e-02 -7.960899999999999921e-02 -9.138599999999999501e-02 -6.346699999999999564e-02 -1.635199999999999848e-02 -2.338000000000000148e-02 1.491730000000000000e-01 -7.152999999999999636e-03 -1.887490000000000001e-01 -7.950200000000000322e-02 -3.060799999999999979e-02 1.695339999999999903e-01 1.444630000000000081e-01 -7.200299999999999756e-02 -3.937500000000000028e-02 3.293999999999999706e-02 -3.487099999999999922e-02 -8.009099999999999553e-02 -3.791999999999999798e-03 6.113999999999999643e-03 4.449299999999999783e-02 2.511000000000000038e-02 -7.664999999999999591e-02 -6.400999999999999572e-03 -6.185999999999999659e-03 -6.823000000000000072e-03 -2.435500000000000165e-02 -7.569999999999999689e-04 1.653689999999999882e-01 -1.608000000000000054e-02 -8.422000000000000666e-03 9.639699999999999658e-02 -6.106899999999999828e-02 -3.473199999999999898e-02 2.602700000000000152e-02 -8.013599999999999890e-02 4.106000000000000275e-03 -1.217150000000000037e-01 2.211700000000000124e-02 6.762300000000000255e-02 5.802700000000000219e-02 -1.983700000000000047e-02 -7.927999999999999284e-03 -8.645799999999999319e-02 4.656899999999999928e-02 -4.907000000000000250e-02 -1.052560000000000023e-01 -4.247200000000000281e-02 -7.027400000000000313e-02 6.495199999999999585e-02 1.214269999999999933e-01 2.515500000000000028e-02 4.606199999999999878e-02 -5.514499999999999957e-02 -5.799800000000000094e-02 -3.479999999999999760e-02 -3.847099999999999825e-02 4.202000000000000179e-02 -5.275699999999999834e-02 -1.089019999999999988e-01 1.424120000000000108e-01 -4.650399999999999673e-02 5.076499999999999763e-02 -1.490410000000000068e-01 -7.129800000000000026e-02 -1.748180000000000012e-01 -2.968300000000000105e-02 2.083000000000000129e-02 7.619900000000000284e-02 1.068400000000000079e-02 -1.143440000000000012e-01 -3.590100000000000235e-02 -2.774599999999999983e-02 -4.331999999999999740e-02 5.895600000000000146e-02 -5.577900000000000219e-02 2.623899999999999844e-02 -7.151499999999999524e-02 -9.700999999999999554e-03 1.559999999999999972e-03 -5.568000000000000033e-02 -3.298100000000000337e-02 8.955799999999999872e-02 -6.556800000000000128e-02 3.664900000000000102e-02 -1.243000000000000008e-02 -4.376399999999999735e-02 -1.609909999999999952e-01 -2.801700000000000024e-02 1.009649999999999992e-01 -3.385300000000000115e-02 2.045399999999999996e-02 3.465809999999999724e-01 -1.137429999999999969e-01 9.957499999999999685e-02 -2.194300000000000070e-02 -1.511079999999999923e-01 -1.646799999999999931e-01 4.131800000000000056e-02 -1.061460000000000042e-01 1.555779999999999941e-01 6.945199999999999985e-02 -2.347199999999999981e-02 -7.647099999999999731e-02 -2.984029999999999738e-01 7.186399999999999733e-02 -6.615899999999999559e-02 -4.276100000000000040e-02 -1.578099999999999989e-02 6.025300000000000100e-02 -6.825199999999999323e-02 -1.218010000000000065e-01 1.084679999999999950e-01 1.601940000000000031e-01 -1.364789999999999892e-01 1.082999999999999935e-02 1.426759999999999973e-01 -1.781800000000000050e-01 3.466790000000000149e-01 1.050849999999999979e-01 1.682289999999999897e-01 -2.372150000000000092e-01 -1.345299999999999968e-02 -2.245600000000000027e-02 1.027239999999999959e-01 9.775399999999999368e-02 -6.301800000000000457e-02 3.216000000000000109e-02 9.664000000000000368e-02 1.524310000000000109e-01 1.013170000000000043e-01 -1.301640000000000019e-01 1.028300000000000047e-01 -5.529599999999999793e-02 7.235500000000000265e-02 1.495960000000000067e-01 -2.585600000000000051e-02 7.257099999999999662e-02 2.062859999999999971e-01 -1.672019999999999895e-01 2.830299999999999830e-02
1.312210000000000043e-01 2.218099999999999933e-02 -9.873800000000000632e-02 1.292889999999999873e-01 8.863300000000000345e-02 -2.897100000000000022e-02 4.031499999999999667e-02 -2.675500000000000100e-02 6.731399999999999884e-02 8.108600000000000529e-02 1.369300000000000031e-02 -8.378000000000000030e-03 -1.105140000000000011e-01 9.293600000000000472e-02 1.703099999999999892e-01 6.362199999999999800e-02 5.523000000000000131e-03 -5.766000000000000292e-02 -8.456099999999999728e-02 4.553200000000000303e-02 -7.691099999999999326e-02 9.760699999999999932e-02 -9.900899999999999979e-02 -1.141110000000000041e-01 -7.930900000000000449e-02 -2.099799999999999930e-02 -2.935899999999999968e-02 1.742920000000000025e-01 -8.531999999999999654e-03 -2.349030000000000007e-01 -1.089640000000000053e-01 -3.740899999999999781e-02 2.077690000000000092e-01 1.684049999999999991e-01 -8.975600000000000245e-02 -4.827499999999999847e-02 2.954999999999999988e-02 -4.292100000000000082e-02 -9.913800000000000390e-02 -1.523000000000000048e-02 7.309999999999999658e-03 5.500399999999999734e-02 1.969200000000000117e-02 -9.426199999999999857e-02 -8.370000000000000703e-03 -1.898499999999999840e-02 -8.370999999999999969e-03 -3.043799999999999978e-02 -1.159100000000000061e-02 2.061209999999999987e-01 -2.163299999999999945e-02 -2.154199999999999865e-02 1.204879999999999979e-01 -7.641799999999999982e-02 -3.139399999999999830e-02 3.208199999999999941e-02 -9.826799999999999424e-02 1.687299999999999911e-02 -1.498440000000000050e-01 2.876099999999999837e-02 9.479799999999999338e-02 7.202100000000000168e-02 -2.313499999999999931e-02 1.659000000000000101e-03 -1.074979999999999963e-01 5.762300000000000061e-02 -5.050999999999999934e-02 -1.295010000000000050e-01 -5.153800000000000048e-02 -7.587399999999999700e-02 8.038199999999999512e-02 1.507249999999999979e-01 4.143600000000000061e-02 5.669899999999999940e-02 -6.748800000000000632e-02 -6.095600000000000324e-02 -4.305500000000000299e-02 -4.755100000000000299e-02 6.304899999999999394e-02 -6.496799999999999797e-02 -1.329319999999999946e-01 1.772569999999999979e-01 -5.782099999999999740e-02 6.418999999999999706e-02 -1.833370000000000000e-01 -8.716100000000000236e-02 -2.140710000000000113e-01 -3.676900000000000307e-02 2.527099999999999833e-02 9.469600000000000239e-02 1.377199999999999952e-02 -1.412490000000000134e-01 -4.376599999999999935e-02 -3.422300000000000342e-02 -5.403600000000000070e-02 7.376299999999999524e-02 -6.888199999999999878e-02 3.244199999999999862e-02 -8.878300000000000081e-02 -1.158499999999999981e-02 1.690000000000000096e-03 -6.839599999999999846e-02 -3.979200000000000098e-02 1.106329999999999952e-01 -8.038900000000000212e-02 4.578600000000000031e-02 -1.651499999999999843e-02 -5.374700000000000311e-02 -1.956539999999999946e-01 -3.439299999999999996e-02 1.237550000000000039e-01 -3.882399999999999740e-02 2.533499999999999988e-02 4.269240000000000257e-01 -1.382009999999999905e-01 1.230910000000000060e-01 -2.710100000000000009e-02 -1.834520000000000040e-01 -2.039370000000000072e-01 5.076399999999999663e-02 -1.279279999999999862e-01 1.919440000000000035e-01 8.497799999999999798e-02 -2.709999999999999909e-02 -9.354999999999999427e-02 -3.663170000000000037e-01 9.141699999999999826e-02 -8.174900000000000222e-02 -5.257400000000000267e-02 -1.648300000000000112e-02 7.443800000000000416e-02 -8.426200000000000356e-02 -1.483980000000000021e-01 1.337839999999999863e-01 1.978129999999999888e-01 -1.720530000000000115e-01 1.376100000000000066e-02 1.759850000000000025e-01 -2.235199999999999965e-01 4.265869999999999940e-01 1.290560000000000040e-01 2.030730000000000035e-01 -2.917080000000000228e-01 -1.704100000000000059e-02 -3.085999999999999854e-02 1.265749999999999931e-01 1.193519999999999998e-01 -8.066399999999999959e-02 3.952300000000000257e-02 1.188260000000000011e-01 1.850410000000000110e-01 1.251609999999999945e-01 -1.605650000000000133e-01 1.243729999999999974e-01 -6.851000000000000145e-02 8.908099999999999352e-02 1.816419999999999979e-01 -3.281200000000000089e-02 8.970300000000000495e-02 2.519879999999999898e-01 -2.067400000000000071e-01 3.487599999999999728e-02
1.558960000000000068e-01 2.682500000000000162e-02 -1.166520000000000057e-01 1.523430000000000062e-01 1.043710000000000054e-01 -3.526200000000000168e-02 4.626799999999999663e-02 -3.149500000000000216e-02 8.001600000000000379e-02 9.562400000000000067e-02 1.571499999999999980e-02 -8.833999999999999839e-03 -1.301910000000000012e-01 1.102930000000000021e-01 2.010379999999999945e-01 7.550400000000000167e-02 7.003999999999999809e-03 -6.925800000000000012e-02 -1.003460000000000046e-01 5.466499999999999831e-02 -9.102300000000000668e-02 1.161169999999999980e-01 -1.178499999999999964e-01 -1.365959999999999952e-01 -9.496599999999999486e-02 -2.585600000000000051e-02 -3.551499999999999796e-02 1.986850000000000005e-01 -9.631000000000000671e-03 -2.798200000000000132e-01 -1.374479999999999869e-01 -4.385800000000000115e-02 2.441339999999999899e-01 1.918719999999999870e-01 -1.074480000000000018e-01 -5.625800000000000245e-02 2.616399999999999976e-02 -5.056499999999999884e-02 -1.173809999999999992e-01 -2.602700000000000152e-02 8.215999999999999345e-03 6.533100000000000018e-02 1.425000000000000051e-02 -1.110489999999999949e-01 -1.034000000000000023e-02 -3.153500000000000053e-02 -9.934999999999999387e-03 -3.626800000000000163e-02 -2.186700000000000102e-02 2.461879999999999902e-01 -2.771699999999999858e-02 -3.433900000000000147e-02 1.442489999999999883e-01 -9.150700000000000500e-02 -2.781899999999999998e-02 3.783199999999999757e-02 -1.153570000000000012e-01 2.966500000000000040e-02 -1.767320000000000002e-01 3.566600000000000326e-02 1.212040000000000062e-01 8.563300000000000078e-02 -2.565699999999999925e-02 1.118800000000000003e-02 -1.283219999999999916e-01 6.814399999999999624e-02 -5.251600000000000018e-02 -1.527729999999999921e-01 -5.991400000000000198e-02 -8.120800000000000241e-02 9.504700000000000648e-02 1.790579999999999949e-01 5.691399999999999931e-02 6.677500000000000102e-02 -7.920900000000000163e-02 -6.393200000000000272e-02 -5.115000000000000102e-02 -5.640300000000000175e-02 8.351600000000000690e-02 -7.680299999999999627e-02 -1.553779999999999883e-01 2.112449999999999883e-01 -6.869699999999999418e-02 7.785999999999999865e-02 -2.162119999999999875e-01 -1.019369999999999998e-01 -2.512989999999999946e-01 -4.387499999999999734e-02 2.921699999999999992e-02 1.128610000000000030e-01 1.696900000000000144e-02 -1.672190000000000065e-01 -5.102500000000000091e-02 -4.055799999999999683e-02 -6.456699999999999939e-02 8.860600000000000420e-02 -8.169200000000000073e-02 3.853000000000000175e-02 -1.056430000000000008e-01 -1.329600000000000053e-02 1.734999999999999997e-03 -8.033300000000000163e-02 -4.593799999999999967e-02 1.309990000000000043e-01 -9.432400000000000506e-02 5.477400000000000324e-02 -2.114500000000000060e-02 -6.308199999999999918e-02 -2.288499999999999979e-01 -4.038300000000000223e-02 1.450200000000000100e-01 -4.358999999999999680e-02 3.012899999999999953e-02 5.032670000000000199e-01 -1.618850000000000011e-01 1.457309999999999994e-01 -3.209900000000000253e-02 -2.143919999999999992e-01 -2.419000000000000039e-01 5.961600000000000232e-02 -1.486719999999999986e-01 2.268159999999999898e-01 9.949399999999999911e-02 -3.105199999999999974e-02 -1.094860000000000000e-01 -4.305220000000000158e-01 1.100229999999999958e-01 -9.666900000000000492e-02 -6.198000000000000037e-02 -1.711299999999999974e-02 8.804599999999999926e-02 -9.971900000000000208e-02 -1.743149999999999977e-01 1.580209999999999948e-01 2.337579999999999936e-01 -2.065039999999999931e-01 1.676400000000000112e-02 2.076469999999999982e-01 -2.670629999999999948e-01 5.027139999999999942e-01 1.516800000000000093e-01 2.358820000000000083e-01 -3.434429999999999983e-01 -2.059100000000000166e-02 -3.902300000000000213e-02 1.494139999999999913e-01 1.394610000000000016e-01 -9.752299999999999858e-02 4.649600000000000261e-02 1.398580000000000101e-01 2.162040000000000073e-01 1.480859999999999954e-01 -1.895840000000000025e-01 1.452720000000000122e-01 -8.125400000000000678e-02 1.049699999999999939e-01 2.121919999999999917e-01 -3.978799999999999698e-02 1.060230000000000061e-01 2.960329999999999906e-01 -2.447620000000000073e-01 4.109399999999999858e-02