4.861782507378162865e-01 7.233180848587611607e-05 2.351163517785524792e+00 7.233180848587611607e-05 9.477275206861918155e-02 1.808295212146902902e-05 2.351163517785524792e+00 1.808295212146902902e-05 -1.949884727258005268e-01
4.915488875178926631e-01 -3.457460445624878365e-02 2.435014166772776711e+00 -3.457460445624878365e-02 4.538820982488726147e-02 -2.323840177129985196e-01 2.435014166772776711e+00 -2.323840177129985196e-01 -2.721303464759874391e-01
5.067024013956836770e-01 -7.130108021495237813e-02 2.518774400999421292e+00 -7.130108021495237813e-02 7.323595609194956217e-03 -4.626884959320280433e-01 2.518774400999421292e+00 -4.626884959320280433e-01 -3.348781903374849489e-01
5.323078615996837959e-01 -1.097454364251955333e-01 2.602498469321822938e+00 -1.097454364251955333e-01 -1.842652821177694078e-02 -6.908772687528457190e-01 2.602498469321822938e+00 -6.908772687528457190e-01 -3.810982159599597963e-01
5.673164569068478436e-01 -1.496002629009132723e-01 2.686240620596346051e+00 -1.496002629009132723e-01 -3.258547972288719508e-02 -9.167152577978724404e-01 2.686240620596346051e+00 -9.167152577978724404e-01 -4.121828106567650418e-01
6.104804636207944446e-01 -1.903411540305830207e-01 2.770235933200569267e+00 -1.903411540305830207e-01 -3.607548948233071234e-02 -1.140148214210743749e+00 2.770235933200569267e+00 -1.140148214210743749e+00 -4.294881958370109221e-01
6.601724160505912931e-01 -2.315522019154109268e-01 2.854647153703586682e+00 -2.315522019154109268e-01 -3.028894480346062609e-02 -1.361121889135095353e+00 2.854647153703586682e+00 -1.361121889135095353e+00 -4.356544825104318175e-01
7.148914291701566892e-01 -2.727270838959959254e-01 2.939980604764799388e+00 -2.727270838959959254e-01 -1.643740347841534874e-02 -1.579835195044263285e+00 2.939980604764799388e+00 -1.579835195044263285e+00 -4.324899658891747656e-01
7.724494657727924984e-01 -3.134137261693012433e-01 3.026579862474514382e+00 -3.134137261693012433e-01 3.544258615807929606e-03 -1.796432795555219286e+00 3.026579862474514382e+00 -1.796432795555219286e+00 -4.237378170623837814e-01
8.315626362578747433e-01 -3.530696401716827970e-01 3.115059747204862450e+00 -3.530696401716827970e-01 2.849873254343518805e-02 -2.011366764471000046e+00 3.115059747204862450e+00 -2.011366764471000046e+00 -4.109350869603837220e-01
-5.498110014255100708e+00 8.063551589458231916e+00 1.913303425369820232e+01 8.063551589458231916e+00 -2.716861588805471683e+01 5.435550548010922078e+00 1.913303425369820232e+01 5.435550548010922078e+00 -4.433094304519600115e+01
-5.468144869022792065e+00 8.071383176886714139e+00 1.907370065560908756e+01 8.071383176886714139e+00 -2.719248358307484992e+01 5.295122726763557885e+00 1.907370065560908756e+01 5.295122726763557885e+00 -4.433353492770209670e+01
-5.386584479946179727e+00 8.071271297066306971e+00 1.899111470151207826e+01 8.071271297066306971e+00 -2.715161015535286992e+01 5.149865426601964558e+00 1.899111470151207826e+01 5.149865426601964558e+00 -4.417731340514062310e+01
-5.251955762723238941e+00 8.062992190356197852e+00 1.888471699230514034e+01 8.062992190356197852e+00 -2.704407500130512787e+01 4.999219248424106254e+00 1.888471699230514034e+01 4.999219248424106254e+00 -4.386177501831976855e+01
-5.066067441117215076e+00 8.046396683662511151e+00 1.875413459525358206e+01 8.046396683662511151e+00 -2.687150037832752147e+01 4.842718026311621848e+00 1.875413459525358206e+01 4.842718026311621848e+00 -4.339016428203132136e+01
-4.830243426336254586e+00 8.021447483711778403e+00 1.859893863771251077e+01 8.021447483711778403e+00 -2.663515425771799627e+01 4.679914240982882667e+00 1.859893863771251077e+01 4.679914240982882667e+00 -4.276486796577729166e+01
-4.546273795506869497e+00 7.987976770773388857e+00 1.841864430712682932e+01 7.987976770773388857e+00 -2.633641649059490675e+01 4.510211200062386183e+00 1.841864430712682932e+01 4.510211200062386183e+00 -4.198916787762295399e+01
-4.215016293918845136e+00 7.945965898210605616e+00 1.821295325730879000e+01 7.945965898210605616e+00 -2.597584647606027985e+01 4.333142737631771269e+00 1.821295325730879000e+01 4.333142737631771269e+00 -4.106651364536418214e+01
-3.841207167302737702e+00 7.895470805933635816e+00 1.798102638960533284e+01 7.895470805933635816e+00 -2.555795670020386012e+01 4.147869755037985051e+00 1.798102638960533284e+01 4.147869755037985051e+00 -4.000305865912336145e+01
-3.426300853323838602e+00 7.836472847305742562e+00 1.772265859101239016e+01 7.836472847305742562e+00 -2.508379137468278941e+01 3.953944732999399747e+00 1.772265859101239016e+01 3.953944732999399747e+00 -3.880426638346368406e+01
-1.096711690781213733e+01 -1.205498957556215522e+01 -3.886829036907466950e+00 -1.205498957556215522e+01 -2.841138509725312389e+01 9.592598133419526496e-01 -3.886829036907466950e+00 9.592598133419526496e-01 7.335264652067396973e+00
-1.110710343731978256e+01 -1.194593501820539672e+01 -3.849887635125360585e+00 -1.194593501820539672e+01 -2.841802127721398463e+01 8.364536163996396656e-01 -3.849887635125360585e+00 8.364536163996396656e-01 7.143847727863106734e+00
-1.125724700893418451e+01 -1.182049278311196616e+01 -3.795176018114734262e+00 -1.182049278311196616e+01 -2.841328378207525773e+01 7.130944044605884713e-01 -3.795176018114734262e+00 7.130944044605884713e-01 6.941573275889525441e+00
-1.141585170999867849e+01 -1.167969516494243720e+01 -3.722878524207837270e+00 -1.167969516494243720e+01 -2.839647212617442307e+01 5.892559128576975169e-01 -3.722878524207837270e+00 5.892559128576975169e-01 6.728091053315384151e+00
-1.158238295934975248e+01 -1.152451915685771944e+01 -3.633382263902383613e+00 -1.152451915685771944e+01 -2.836858173650559323e+01 4.652515167557851328e-01 -3.633382263902383613e+00 4.652515167557851328e-01 6.504249016469016098e+00
-1.175676702165450749e+01 -1.135616295801741060e+01 -3.527148083028989856e+00 -1.135616295801741060e+01 -2.833095828289417639e+01 3.411918191541989387e-01 -3.527148083028989856e+00 3.411918191541989387e-01 6.269862827018172879e+00
-1.193889329391359766e+01 -1.117595380441367858e+01 -3.404563092085372222e+00 -1.117595380441367858e+01 -2.828513177349780960e+01 2.172242907187357519e-01 -3.404563092085372222e+00 2.172242907187357519e-01 6.024950918796081467e+00
-1.212881707762669414e+01 -1.098516363053902722e+01 -3.266088136902145500e+00 -1.098516363053902722e+01 -2.823276125330670894e+01 9.333049761617100148e-02 -3.266088136902145500e+00 9.333049761617100148e-02 5.769402688803394241e+00
-1.232672271112604534e+01 -1.078510123855239833e+01 -3.112128761810251110e+00 -1.078510123855239833e+01 -2.817576384097623432e+01 -3.045269248704611867e-02 -3.112128761810251110e+00 -3.045269248704611867e-02 5.502867894208842259e+00
-1.253314477557516327e+01 -1.057709386444596333e+01 -2.943072077307406165e+00 -1.057709386444596333e+01 -2.811629629499365990e+01 -1.542727502567124431e-01 -2.943072077307406165e+00 -1.542727502567124431e-01 5.223908696020907350e+00
5.194594713075810333e+00 3.968614360359868698e+00 1.901460573029137535e+01 3.968614360359868698e+00 -3.370227202353149920e+01 4.081317999965404120e+00 1.901460573029137535e+01 4.081317999965404120e+00 -1.996235937571724861e+01
5.360839054463101938e+00 3.887628269478240917e+00 1.908370005217622278e+01 3.887628269478240917e+00 -3.376653935986711730e+01 4.049360026673910262e+00 1.908370005217622278e+01 4.049360026673910262e+00 -1.984604936759791372e+01
5.548925043105750632e+00 3.802517972552629910e+00 1.912238991336014138e+01 3.802517972552629910e+00 -3.378135321206994490e+01 4.009782444009675650e+00 1.912238991336014138e+01 4.009782444009675650e+00 -1.964636751711859475e+01
5.757724532955847963e+00 3.713764318718208113e+00 1.913034241828800219e+01 3.713764318718208113e+00 -3.374734238285521570e+01 3.962899653330313576e+00 1.913034241828800219e+01 3.962899653330313576e+00 -1.936590301193022157e+01
5.985166173892650043e+00 3.621922133900175922e+00 1.910707671782463279e+01 3.621922133900175922e+00 -3.366548706469077246e+01 3.909100032783463519e+00 1.910707671782463279e+01 3.909100032783463519e+00 -1.900754094684383588e+01
6.229382051967985667e+00 3.527472267233705772e+00 1.905209346863735576e+01 3.527472267233705772e+00 -3.353661949646442508e+01 3.848771960516765844e+00 1.905209346863735576e+01 3.848771960516765844e+00 -1.857379653272032982e+01
6.488115875086043260e+00 3.430932556248983634e+00 1.896481935060346657e+01 3.430932556248983634e+00 -3.336212674298916170e+01 3.782303814677859144e+00 1.896481935060346657e+01 3.782303814677859144e+00 -1.806827613807351440e+01
6.758944903373451218e+00 3.332783850081183274e+00 1.884468104360025720e+01 3.332783850081183274e+00 -3.314358081105306297e+01 3.710083973414384229e+00 1.884468104360025720e+01 3.710083973414384229e+00 -1.749434570684958956e+01
7.039483385351850586e+00 3.233488503667970360e+00 1.869093877972746043e+01 3.233488503667970360e+00 -3.288251671904916407e+01 3.632519309071487346e+00 1.869093877972746043e+01 3.632519309071487346e+00 -1.685599998570999958e+01
7.326975685592751475e+00 3.133564354539531305e+00 1.850296375626985323e+01 3.133564354539531305e+00 -3.258065442734559269e+01 3.549942717204287224e+00 1.850296375626985323e+01 3.549942717204287224e+00 -1.615680835477352773e+01
-7.999414267246217847e+00 1.276203193274258041e+01 1.062558966629074142e+01 1.276203193274258041e+01 2.269574568512654622e+01 1.389667011749547854e+01 1.062558966629074142e+01 1.389667011749547854e+01 -1.746958218163956289e+01
-7.802187251378479793e+00 1.272332027985256886e+01 1.057057646769261261e+01 1.272332027985256886e+01 2.276763875477942634e+01 1.397094877920320499e+01 1.057057646769261261e+01 1.397094877920320499e+01 -1.710727942464327000e+01
-7.560302675150694540e+00 1.267676508944889413e+01 1.050564137486636973e+01 1.267676508944889413e+01 2.285483937345090055e+01 1.401889556497220646e+01 1.050564137486636973e+01 1.401889556497220646e+01 -1.667854154345291207e+01
-7.275061770592779808e+00 1.262256516086946156e+01 1.043076631514493258e+01 1.262256516086946156e+01 2.295689572446392646e+01 1.404060083813789461e+01 1.043076631514493258e+01 1.404060083813789461e+01 -1.618542882211585976e+01
-6.947783842401733523e+00 1.256099158412050265e+01 1.034578863452456154e+01 1.256099158412050265e+01 2.307317526447061695e+01 1.403613688936859738e+01 1.034578863452456154e+01 1.403613688936859738e+01 -1.563070637869568102e+01
-6.580727973962827271e+00 1.249231544920825066e+01 1.025041917033194139e+01 1.249231544920825066e+01 2.320262977878021360e+01 1.400550371866431654e+01 1.025041917033194139e+01 1.400550371866431654e+01 -1.501692245925096891e+01
-6.176315902665073132e+00 1.241688013680726499e+01 1.014431454189251092e+01 1.241688013680726499e+01 2.334406647136528790e+01 1.394870132602505208e+01 1.014431454189251092e+01 1.394870132602505208e+01 -1.434760123386274344e+01
-5.737240455903712899e+00 1.233495673692378247e+01 1.002696871452797112e+01 1.233495673692378247e+01 2.349620218286300855e+01 1.386565742078247432e+01 1.002696871452797112e+01 1.386565742078247432e+01 -1.362661025328658937e+01
-5.266230606408155879e+00 1.224688863023235896e+01 9.897875653560019416e+00 1.224688863023235896e+01 2.365791640791427852e+01 1.375626356693408781e+01 9.897875653560019416e+00 1.375626356693408781e+01 -1.285823273962098057e+01
-4.766774378925260791e+00 1.215309148807588890e+01 9.756438960974945118e+00 1.215309148807588890e+01 2.382740187981088553e+01 1.362061012781530778e+01 9.756438960974945118e+00 1.362061012781530778e+01 -1.204622780761900813e+01
-2.705334009548913343e+01 -5.620548372449391650e+00 4.161784638300117578e+00 -5.620548372449391650e+00 -2.254124001777888608e+01 1.884778943863599210e+01 4.161784638300117578e+00 1.884778943863599210e+01 -7.352213881841670684e+00
-2.720997250205035911e+01 -5.600729730060452383e+00 4.208288663962052034e+00 -5.600729730060452383e+00 -2.257843951649765657e+01 1.858703937558076191e+01 4.208288663962052034e+00 1.858703937558076191e+01 -7.641249706804122077e+00
-2.734066388749404553e+01 -5.577226495002020279e+00 4.257025776090345381e+00 -5.577226495002020279e+00 -2.259982131941304928e+01 1.829253248877573057e+01 4.257025776090345381e+00 1.829253248877573057e+01 -7.890164411587648807e+00
-2.744379526413207415e+01 -5.550020058220207275e+00 4.307698229822817027e+00 -5.550020058220207275e+00 -2.260467828247737998e+01 1.796430599632867242e+01 4.307698229822817027e+00 1.796430599632867242e+01 -8.098008934444049345e+00
-2.751921775953336535e+01 -5.519222074038333758e+00 4.359766362596764644e+00 -5.519222074038333758e+00 -2.259381059500776345e+01 1.760275068837119861e+01 4.359766362596764644e+00 1.760275068837119861e+01 -8.264262221864507652e+00
-2.756765712679947455e+01 -5.484925587725831164e+00 4.412653293741708893e+00 -5.484925587725831164e+00 -2.256880002658454032e+01 1.720822013692715302e+01 4.412653293741708893e+00 1.720822013692715302e+01 -8.389873335597222592e+00
-2.758970885565477715e+01 -5.447186426444357465e+00 4.465819360694949225e+00 -5.447186426444357465e+00 -2.253089338381808915e+01 1.678119817739758091e+01 4.465819360694949225e+00 1.678119817739758091e+01 -8.475121411450491138e+00
-2.758667557987130436e+01 -5.406097635463344986e+00 4.518613246570462039e+00 -5.406097635463344986e+00 -2.248202600831259090e+01 1.632200116369854470e+01 4.518613246570462039e+00 1.632200116369854470e+01 -8.521811527651289353e+00
-2.756008324186774061e+01 -5.361677823836679124e+00 4.570439461643887036e+00 -5.361677823836679124e+00 -2.242424489599553894e+01 1.583077796826113470e+01 4.570439461643887036e+00 1.583077796826113470e+01 -8.531711544318817175e+00
-2.751168109270939865e+01 -5.314020036833792204e+00 4.620721125244745764e+00 -5.314020036833792204e+00 -2.235965286995609702e+01 1.530778911783976248e+01 4.620721125244745764e+00 1.530778911783976248e+01 -8.506980111703885683e+00
-5.201597797009957702e+01 1.051527817971158640e+01 -8.892889254035400981e+00 1.051527817971158640e+01 -4.307984416216935131e+01 5.641822697359011762e+00 -8.892889254035400981e+00 5.641822697359011762e+00 -6.240167776480135586e+01
-5.208876391134983663e+01 1.044666529909300579e+01 -8.883902616489036674e+00 1.044666529909300579e+01 -4.303366876104018246e+01 5.518862980606901836e+00 -8.883902616489036674e+00 5.518862980606901836e+00 -6.244684386754519778e+01
-5.209146184357218345e+01 1.037442282620407852e+01 -8.869287199485983209e+00 1.037442282620407852e+01 -4.291884166012376767e+01 5.395650939258457512e+00 -8.869287199485983209e+00 5.395650939258457512e+00 -6.228230882115093436e+01
-5.202191730290559946e+01 1.029855076104480460e+01 -8.849062412610578576e+00 1.029855076104480460e+01 -4.273332485306509909e+01 5.271662514536676447e+00 -8.849062412610578576e+00 5.271662514536676447e+00 -6.190914015275691895e+01
-5.188119781648842377e+01 1.021922378987418512e+01 -8.823305894200151656e+00 1.021922378987418512e+01 -4.247822468617118119e+01 5.146490105170559382e+00 -8.823305894200151656e+00 5.146490105170559382e+00 -6.132949232622416247e+01
-5.167004094852532603e+01 1.013663600853555380e+01 -8.791959415501704456e+00 1.013663600853555380e+01 -4.215462809616468576e+01 5.019667881136101961e+00 -8.791959415501704456e+00 5.019667881136101961e+00 -6.054499574663666550e+01
-5.138821378400431428e+01 1.005080682661324509e+01 -8.754945338177904546e+00 1.005080682661324509e+01 -4.176257390221427102e+01 4.890730012409303384e+00 -8.754945338177904546e+00 4.890730012409303384e+00 -5.955875594748777502e+01
-5.103988938355706040e+01 9.962066207040924937e+00 -8.711797832204750236e+00 9.962066207040924937e+00 -4.130687568123462938e+01 4.758744838942161159e+00 -8.711797832204750236e+00 4.758744838942161159e+00 -5.837649875615584705e+01
-5.062588294972556469e+01 9.870588836077594408e+00 -8.662283982570237129e+00 9.870588836077594408e+00 -4.078893092329775527e+01 4.623265940295005372e+00 -8.662283982570237129e+00 4.623265940295005372e+00 -5.700464874505523483e+01
-5.014836835595517783e+01 9.776588219150923464e+00 -8.605918549666032646e+00 9.776588219150923464e+00 -4.021165106605367612e+01 4.483458704341501289e+00 -8.605918549666032646e+00 4.483458704341501289e+00 -5.545093092875062979e+01
-3.384835526742527190e+00 1.571807863254236937e+00 8.721174114245505038e+00 1.571807863254236937e+00 1.839082106650189274e+01 8.404186099981014735e+00 8.721174114245505038e+00 8.404186099981014735e+00 4.100802442962453398e+01
-3.543258356595270442e+00 1.649604629750495599e+00 8.592894862262083322e+00 1.649604629750495599e+00 1.822859025219576523e+01 8.439205321496256573e+00 8.592894862262083322e+00 8.439205321496256573e+00 4.059471576187325326e+01
-3.732785657590615980e+00 1.722490163961080123e+00 8.459384080235222925e+00 1.722490163961080123e+00 1.799991544747403083e+01 8.449721764542754698e+00 8.459384080235222925e+00 8.449721764542754698e+00 4.004294949116968638e+01
-3.952581096694409712e+00 1.789770487410841104e+00 8.320801917043809226e+00 1.789770487410841104e+00 1.770668285024351007e+01 8.435806606400012342e+00 8.320801917043809226e+00 8.435806606400012342e+00 3.935493211317841400e+01
-4.201559220394238459e+00 1.850751621624628029e+00 8.177468670445600551e+00 1.850751621624628029e+00 1.735088542433026859e+01 8.397780144825787829e+00 8.177468670445600551e+00 8.397780144825787829e+00 3.853591295226274838e+01
-4.479986943488237117e+00 1.904881942686297736e+00 8.029722432518237696e+00 1.904881942686297736e+00 1.693410686420323685e+01 8.336051649177223410e+00 8.029722432518237696e+00 8.336051649177223410e+00 3.758806291544750877e+01
-4.787615145498145708e+00 1.951716592598958355e+00 7.877972472618855804e+00 1.951716592598958355e+00 1.645848248824749760e+01 8.251226126330090338e+00 7.877972472618855804e+00 8.251226126330090338e+00 3.651702280213328322e+01
-5.124959861700357777e+00 1.990953067924724929e+00 7.722628060104598013e+00 1.990953067924724929e+00 1.592591628868973785e+01 8.144033143399290964e+00 7.722628060104598013e+00 8.144033143399290964e+00 3.532457204430762232e+01
-5.492038886414749577e+00 2.022413425464840486e+00 7.564151847292228226e+00 2.022413425464840486e+00 1.533909520783117841e+01 8.015326827738851634e+00 7.564151847292228226e+00 8.015326827738851634e+00 3.401695644824688003e+01
-5.889884290194107308e+00 2.045901927700673362e+00 7.403077663778015349e+00 2.045901927700673362e+00 1.469940720262212253e+01 7.866157044221437467e+00 7.403077663778015349e+00 7.866157044221437467e+00 3.259858900528020342e+01
1.343007517182309130e+01 7.978492179989689959e+00 -1.256023644577271448e+01 7.978492179989689959e+00 -2.416454995476323120e+01 6.763139139439722669e+00 -1.256023644577271448e+01 6.763139139439722669e+00 -3.518415683813545769e+01
1.353282796450041836e+01 7.998969146551885956e+00 -1.264674381035083428e+01 7.998969146551885956e+00 -2.410113207179837147e+01 6.673651299944196147e+00 -1.264674381035083428e+01 6.673651299944196147e+00 -3.495556177116754526e+01
1.366803481738952897e+01 8.013466765285947702e+00 -1.271209348261401573e+01 8.013466765285947702e+00 -2.398301695470106765e+01 6.579287992219574832e+00 -1.271209348261401573e+01 6.579287992219574832e+00 -3.461148250014670680e+01
1.383575092447037314e+01 8.021819454252018033e+00 -1.275597269667586353e+01 8.021819454252018033e+00 -2.381007581751810065e+01 6.480104410245810520e+00 -1.275597269667586353e+01 6.480104410245810520e+00 -3.415366683443809848e+01
1.403511158005703763e+01 8.023880029503558831e+00 -1.277779271675022521e+01 8.023880029503558831e+00 -2.358304457998216108e+01 6.376137350009538629e+00 -1.277779271675022521e+01 6.376137350009538629e+00 -3.358463529912618384e+01
1.426471853665740142e+01 8.019556501073985544e+00 -1.277702000103089652e+01 8.019556501073985544e+00 -2.330343187754527179e+01 6.267478801477347261e+00 -1.277702000103089652e+01 6.267478801477347261e+00 -3.290690841929544064e+01
1.452352310865238216e+01 8.008664889030121969e+00 -1.275301061975177142e+01 8.008664889030121969e+00 -2.297201042592676501e+01 6.153981580702694743e+00 -1.275301061975177142e+01 6.153981580702694743e+00 -3.212370584377639915e+01
1.481075258032264763e+01 7.991131601398699047e+00 -1.270523103110664742e+01 7.991131601398699047e+00 -2.258973692077913498e+01 6.035719279658851910e+00 -1.270523103110664742e+01 6.035719279658851910e+00 -3.123775047558003592e+01
1.512333448678420389e+01 7.966938240186402176e+00 -1.263277973342297500e+01 7.966938240186402176e+00 -2.215944465307325473e+01 5.912213550519568983e+00 -1.263277973342297500e+01 5.912213550519568983e+00 -3.025432253878841848e+01
1.546016494843801148e+01 7.936029611413276008e+00 -1.253508638890791538e+01 7.936029611413276008e+00 -2.168236628836138991e+01 5.783298811344987911e+00 -1.253508638890791538e+01 5.783298811344987911e+00 -2.917752478591132004e+01
-3.528842242886116054e+01 -1.067521392559358873e+01 6.742116550709052802e+00 -1.067521392559358873e+01 -8.178536202110789688e+00 -1.139824106924664271e+01 6.742116550709052802e+00 -1.139824106924664271e+01 -2.789822723938306481e+01
-3.526650176500121603e+01 -1.069621967247812044e+01 6.768163676845871279e+00 -1.069621967247812044e+01 -8.143097173144710155e+00 -1.144990587069508514e+01 6.768163676845871279e+00 -1.144990587069508514e+01 -2.784691720165978168e+01
-3.519162794721724907e+01 -1.071225872721039707e+01 6.787843727704800045e+00 -1.071225872721039707e+01 -8.077185807364802628e+00 -1.147938860343346157e+01 6.787843727704800045e+00 -1.147938860343346157e+01 -2.768895398508811212e+01
-3.506363292953417243e+01 -1.072331241801541246e+01 6.801380764585942096e+00 -1.072331241801541246e+01 -7.981063509621191265e+00 -1.148637184728662852e+01 6.801380764585942096e+00 -1.148637184728662852e+01 -2.742614875184387202e+01
-3.488337561360238936e+01 -1.072932472956813932e+01 6.809036192339415372e+00 -1.072932472956813932e+01 -7.856130663039506246e+00 -1.147057552562946370e+01 6.809036192339415372e+00 -1.147057552562946370e+01 -2.706051805362797680e+01
-3.465218169544748861e+01 -1.073014628766851253e+01 6.811071415815338703e+00 -1.073014628766851253e+01 -7.704049055595502793e+00 -1.143183159248688341e+01 6.811071415815338703e+00 -1.143183159248688341e+01 -2.659504937444178196e+01
-3.437154491707016035e+01 -1.072560904634145551e+01 6.807673152763797475e+00 -1.072560904634145551e+01 -7.526797895440080488e+00 -1.137019606318391673e+01 6.807673152763797475e+00 -1.137019606318391673e+01 -2.603203934261133057e+01
-3.404305237934611483e+01 -1.071552628783687844e+01 6.799121479809916657e+00 -1.071552628783687844e+01 -7.326300375399109832e+00 -1.128557557884552409e+01 6.799121479809916657e+00 -1.128557557884552409e+01 -2.537583848171359691e+01
-3.366864594687623224e+01 -1.069967395085468809e+01 6.785584442928774607e+00 -1.069967395085468809e+01 -7.104778436698600430e+00 -1.117802615479672568e+01 6.785584442928774607e+00 -1.117802615479672568e+01 -2.462934091687489513e+01
-3.324925920841094751e+01 -1.067784664586978316e+01 6.767211416320438211e+00 -1.067784664586978316e+01 -6.863613790689178984e+00 -1.104779052411263507e+01 6.767211416320438211e+00 -1.104779052411263507e+01 -2.379678514102214493e+01
3.480585681150893063e+00 1.445224613000057445e+01 1.598450853482696488e+01 1.445224613000057445e+01 8.569673767102891304e+00 -4.155706404908873886e+00 1.598450853482696488e+01 -4.155706404908873886e+00 -3.353655795029619924e+01
3.633519598699597175e+00 1.446110660153847860e+01 1.596341044481253135e+01 1.446110660153847860e+01 8.557926379633581604e+00 -3.999921884836704411e+00 1.596341044481253135e+01 -3.999921884836704411e+00 -3.335039726448035680e+01
3.834078550764537408e+00 1.446159683254569650e+01 1.592233998042986443e+01 1.446159683254569650e+01 8.595674167189528703e+00 -3.840796531233849898e+00 1.592233998042986443e+01 -3.840796531233849898e+00 -3.303871928411219017e+01
4.080483180356543116e+00 1.445369866631826206e+01 1.586120635815912117e+01 1.445369866631826206e+01 8.681991137868211084e+00 -3.678275873988396949e+00 1.586120635815912117e+01 -3.678275873988396949e+00 -3.260304917232527799e+01
4.371389891381752157e+00 1.443743025956014314e+01 1.577975538414469803e+01 1.443743025956014314e+01 8.816459687478291229e+00 -3.512577793547998262e+00 1.577975538414469803e+01 -3.512577793547998262e+00 -3.204612859141926151e+01
4.705091953666880933e+00 1.441288239579119335e+01 1.567796890168262536e+01 1.441288239579119335e+01 8.998208294229156579e+00 -3.343883856952365896e+00 1.567796890168262536e+01 -3.343883856952365896e+00 -3.137057210676596952e+01
5.079810010222758798e+00 1.438007323171538943e+01 1.555562903032524957e+01 1.438007323171538943e+01 9.226310966218276732e+00 -3.172357474537239153e+00 1.555562903032524957e+01 -3.172357474537239153e+00 -3.058088258095024869e+01
5.494000741211841898e+00 1.433923880448435106e+01 1.541279024018448496e+01 1.433923880448435106e+01 9.499769084727246238e+00 -2.998234683454243488e+00 1.541279024018448496e+01 -2.998234683454243488e+00 -2.968127236929340285e+01
5.944214372879616626e+00 1.429014307694645503e+01 1.524912571058885113e+01 1.429014307694645503e+01 9.816549098911295346e+00 -2.821279446551753445e+00 1.524912571058885113e+01 -2.821279446551753445e+00 -2.867593567041274838e+01
6.427709242926447075e+00 1.423307655636523883e+01 1.506463544153834988e+01 1.423307655636523883e+01 1.017425432384623640e+01 -2.641637017461538672e+00 1.506463544153834988e+01 -2.641637017461538672e+00 -2.757180834522525359e+01
-1.878134882980108600e+01 -1.192717907629271323e+00 1.530815165613482520e+01 -1.192717907629271323e+00 -8.348459894067765674e+00 -8.885883392454031693e+00 1.530815165613482520e+01 -8.885883392454031693e+00 2.639272335760300692e+01
-1.899784679342823068e+01 -1.081668990065696834e+00 1.524002292632208722e+01 -1.081668990065696834e+00 -8.195913557408077921e+00 -8.861495678462162573e+00 1.524002292632208722e+01 -8.861495678462162573e+00 2.631556551901990204e+01
-1.922477839385668830e+01 -9.690878601047275831e-01 1.515027905733181335e+01 -9.690878601047275831e-01 -8.077367743471537409e+00 -8.816222450243898834e+00 1.515027905733181335e+01 -8.816222450243898834e+00 2.616750637580972949e+01
-1.946114039677863161e+01 -8.560324739255169568e-01 1.503977735848159369e+01 -8.560324739255169568e-01 -7.994354664655532794e+00 -8.750063707799240476e+00 1.503977735848159369e+01 -8.750063707799240476e+00 2.594613816563372310e+01
-1.970618493661914528e+01 -7.435425470834401418e-01 1.490959402657436073e+01 -7.435425470834401418e-01 -7.948643661466585186e+00 -8.662837044890400406e+00 1.490959402657436073e+01 -8.662837044890400406e+00 2.565122376038275931e+01
-1.995954720090266576e+01 -6.327125170052079195e-01 1.476078701778926749e+01 -6.327125170052079195e-01 -7.941858149420978563e+00 -8.554505980269823340e+00 1.476078701778926749e+01 -8.554505980269823340e+00 2.528252603194771453e+01
-2.022115422713406474e+01 -5.245638586224167232e-01 1.459450549142436238e+01 -5.245638586224167232e-01 -7.975566822163666636e+00 -8.425106995185068115e+00 1.459450549142436238e+01 -8.425106995185068115e+00 2.483986257409081233e+01
-2.049104249656091170e+01 -4.200268437477707173e-01 1.441188036615391255e+01 -4.200268437477707173e-01 -8.051083004606702787e+00 -8.274621849012353536e+00 1.441188036615391255e+01 -8.274621849012353536e+00 2.432303273995048798e+01
-2.076997811538190319e+01 -3.201047066890879700e-01 1.421389663566195516e+01 -3.201047066890879700e-01 -8.169865946652365096e+00 -8.103014060504122540e+00 1.421389663566195516e+01 -8.103014060504122540e+00 2.373139810769448488e+01
-2.105843533981527571e+01 -2.256365161401799602e-01 1.400159401550386740e+01 -2.256365161401799602e-01 -8.332845920113360449e+00 -7.910356592155490141e+00 1.400159401550386740e+01 -7.910356592155490141e+00 2.306484923358013717e+01
-1.858045894413037047e+01 -4.680559249954308054e-01 1.237922142439409434e+01 -4.680559249954308054e-01 -3.234231011190239968e+01 4.350756975473464294e+00 1.237922142439409434e+01 4.350756975473464294e+00 -1.411591403023769864e+01
-1.839459785232043032e+01 -3.702303719067443488e-01 1.230873332094856742e+01 -3.702303719067443488e-01 -3.226124879294004444e+01 4.291438812230019550e+00 1.230873332094856742e+01 4.291438812230019550e+00 -1.377947319363341094e+01
-1.818317083727668049e+01 -2.730574864425535098e-01 1.222010105754206144e+01 -2.730574864425535098e-01 -3.214580121398997647e+01 4.225090486288435976e+00 1.222010105754206144e+01 4.225090486288435976e+00 -1.337487520938536889e+01
-1.794718487190547762e+01 -1.770780503488689761e-01 1.211315680535684969e+01 -1.770780503488689761e-01 -3.199637762327330748e+01 4.151693350002298999e+00 1.211315680535684969e+01 4.151693350002298999e+00 -1.290538341561604874e+01
-1.768844877790899872e+01 -8.273960713963053604e-02 1.198803109791783150e+01 -8.273960713963053604e-02 -3.181420876545337251e+01 4.071172812785953887e+00 1.198803109791783150e+01 4.071172812785953887e+00 -1.237452221749772541e+01
-1.740923756814976997e+01 9.361118499908616108e-03 1.184487311639632168e+01 9.361118499908616108e-03 -3.160080509988971542e+01 3.983491579346571054e+00 1.184487311639632168e+01 3.983491579346571054e+00 -1.178553630550646325e+01
-1.711191949372239662e+01 9.868334482373784800e-02 1.168383204196363145e+01 9.868334482373784800e-02 -3.135778897182037994e+01 3.888668297330564627e+00 1.168383204196363145e+01 3.888668297330564627e+00 -1.114200602775378002e+01
-1.679908657747843748e+01 1.845930518537756693e-01 1.150518758931597318e+01 1.845930518537756693e-01 -3.108693190765469438e+01 3.786609728505863082e+00 1.150518758931597318e+01 3.786609728505863082e+00 -1.044797792351155152e+01
-1.647359190931926420e+01 2.665121625511831516e-01 1.130910758727107357e+01 2.665121625511831516e-01 -3.079030379614464152e+01 3.677203986993983431e+00 1.130910758727107357e+01 3.677203986993983431e+00 -9.707237465001851362e+00
-1.613800886445002902e+01 3.439371904627779308e-01 1.109587175052514851e+01 3.439371904627779308e-01 -3.046967616369956744e+01 3.560301891623610437e+00 1.109587175052514851e+01 3.560301891623610437e+00 -8.924092258546348688e+00