0.000000000000000000e+00 2.032270000000000021e+00 9.342779999999999418e+00 -1.760000000000000009e+00 5.080680000000000085e+00 9.342779999999999418e+00 -3.520000000000000018e+00 8.129089999999999705e+00 9.342779999999999418e+00 3.520000000000000018e+00 2.032270000000000021e+00 9.342779999999999418e+00 1.760000000000000009e+00 5.080680000000000085e+00 9.342779999999999418e+00 0.000000000000000000e+00 8.129089999999999705e+00 9.342779999999999418e+00 7.040000000000000036e+00 2.032270000000000021e+00 9.342779999999999418e+00 5.280000000000000249e+00 5.080680000000000085e+00 9.342779999999999418e+00 3.520000000000000018e+00 8.129089999999999705e+00 9.342779999999999418e+00 1.759999999999999898e-01 2.032270000000000021e+00 1.702990000000000137e+01 -1.584000000000000075e+00 5.080680000000000085e+00 1.702990000000000137e+01 -3.343999999999999861e+00 8.129089999999999705e+00 1.702990000000000137e+01 3.696000000000000174e+00 2.032270000000000021e+00 1.702990000000000137e+01 1.935999999999999943e+00 5.080680000000000085e+00 1.702990000000000137e+01 1.759999999999999898e-01 8.129089999999999705e+00 1.702990000000000137e+01 7.216000000000000192e+00 2.032270000000000021e+00 1.702990000000000137e+01 5.456000000000000405e+00 5.080680000000000085e+00 1.702990000000000137e+01 3.696000000000000174e+00 8.129089999999999705e+00 1.702990000000000137e+01 0.000000000000000000e+00 2.032270000000000021e+00 1.297011000000000003e+01 -1.760000000000000009e+00 5.080680000000000085e+00 1.297011000000000003e+01 -3.520000000000000018e+00 8.129089999999999705e+00 1.297011000000000003e+01 3.520000000000000018e+00 2.032270000000000021e+00 1.297011000000000003e+01 1.760000000000000009e+00 5.080680000000000085e+00 1.297011000000000003e+01 0.000000000000000000e+00 8.129089999999999705e+00 1.297011000000000003e+01 7.040000000000000036e+00 2.032270000000000021e+00 1.297011000000000003e+01 5.280000000000000249e+00 5.080680000000000085e+00 1.297011000000000003e+01 3.520000000000000018e+00 8.129089999999999705e+00 1.297011000000000003e+01 1.759999999999999898e-01 2.032270000000000021e+00 2.065722999999999843e+01 -1.584000000000000075e+00 5.080680000000000085e+00 2.065722999999999843e+01 -3.343999999999999861e+00 8.129089999999999705e+00 2.065722999999999843e+01 3.696000000000000174e+00 2.032270000000000021e+00 2.065722999999999843e+01 1.935999999999999943e+00 5.080680000000000085e+00 2.065722999999999843e+01 1.759999999999999898e-01 8.129089999999999705e+00 2.065722999999999843e+01 7.216000000000000192e+00 2.032270000000000021e+00 2.065722999999999843e+01 5.456000000000000405e+00 5.080680000000000085e+00 2.065722999999999843e+01 3.696000000000000174e+00 8.129089999999999705e+00 2.065722999999999843e+01 0.000000000000000000e+00 0.000000000000000000e+00 1.115592000000000006e+01 -1.760000000000000009e+00 3.048410000000000064e+00 1.115592000000000006e+01 -3.520000000000000018e+00 6.096820000000000128e+00 1.115592000000000006e+01 3.520000000000000018e+00 0.000000000000000000e+00 1.115592000000000006e+01 1.760000000000000009e+00 3.048410000000000064e+00 1.115592000000000006e+01 0.000000000000000000e+00 6.096820000000000128e+00 1.115592000000000006e+01 7.040000000000000036e+00 0.000000000000000000e+00 1.115592000000000006e+01 5.280000000000000249e+00 3.048410000000000064e+00 1.115592000000000006e+01 3.520000000000000018e+00 6.096820000000000128e+00 1.115592000000000006e+01 1.759999999999999898e-01 0.000000000000000000e+00 1.884410000000000096e+01 -1.584000000000000075e+00 3.048410000000000064e+00 1.884410000000000096e+01 -3.343999999999999861e+00 6.096820000000000128e+00 1.884410000000000096e+01 3.696000000000000174e+00 0.000000000000000000e+00 1.884410000000000096e+01 1.935999999999999943e+00 3.048410000000000064e+00 1.884410000000000096e+01 1.759999999999999898e-01 6.096820000000000128e+00 1.884410000000000096e+01 7.216000000000000192e+00 0.000000000000000000e+00 1.884410000000000096e+01 5.456000000000000405e+00 3.048410000000000064e+00 1.884410000000000096e+01 3.696000000000000174e+00 6.096820000000000128e+00 1.884410000000000096e+01
-1.809999999999999977e-03 2.032779999999999809e+00 9.340159999999999130e+00 -1.761710000000000109e+00 5.081920000000000215e+00 9.343640000000000612e+00 -3.518450000000000077e+00 8.128000000000000114e+00 9.342660000000000409e+00 3.519149999999999778e+00 2.031559999999999810e+00 9.342209999999999681e+00 1.759830000000000005e+00 5.079509999999999970e+00 9.339040000000000674e+00 2.900000000000000017e-04 8.129220000000000113e+00 9.343600000000000350e+00 7.040130000000000443e+00 2.033160000000000078e+00 9.342760000000000176e+00 5.280350000000000321e+00 5.077519999999999811e+00 9.344480000000000786e+00 3.519600000000000062e+00 8.130160000000000053e+00 9.339529999999999887e+00 1.735099999999999976e-01 2.032540000000000013e+00 1.703106000000000009e+01 -1.582240000000000091e+00 5.081100000000000172e+00 1.703122000000000114e+01 -3.344440000000000079e+00 8.130570000000000519e+00 1.702991000000000099e+01 3.696499999999999897e+00 2.033949999999999925e+00 1.702881000000000000e+01 1.935529999999999973e+00 5.080499999999999794e+00 1.703080999999999889e+01 1.760200000000000098e-01 8.129360000000000142e+00 1.702909999999999968e+01 7.219699999999999562e+00 2.033319999999999794e+00 1.702865999999999858e+01 5.455339999999999634e+00 5.081389999999999851e+00 1.702975999999999956e+01 3.696969999999999867e+00 8.127340000000000231e+00 1.702824999999999989e+01 6.700000000000000226e-04 2.031400000000000095e+00 1.297001999999999988e+01 -1.761349999999999971e+00 5.077049999999999841e+00 1.297153999999999918e+01 -3.520750000000000046e+00 8.129659999999999442e+00 1.297368999999999950e+01 3.515769999999999840e+00 2.028369999999999784e+00 1.296793000000000085e+01 1.759409999999999918e+00 5.082239999999999647e+00 1.297119000000000000e+01 -7.100000000000000191e-04 8.131539999999999324e+00 1.297017999999999915e+01 7.041229999999999656e+00 2.033079999999999998e+00 1.297104000000000035e+01 5.281889999999999752e+00 5.082139999999999880e+00 1.296869000000000050e+01 3.521040000000000170e+00 8.130860000000000198e+00 1.296823999999999977e+01 1.767400000000000082e-01 2.035359999999999836e+00 2.065765999999999991e+01 -1.581630000000000091e+00 5.078140000000000320e+00 2.065800000000000125e+01 -3.347140000000000004e+00 8.127679999999999794e+00 2.065729999999999933e+01 3.694510000000000183e+00 2.031870000000000065e+00 2.065671999999999997e+01 1.934479999999999977e+00 5.081660000000000288e+00 2.065411999999999892e+01 1.763500000000000068e-01 8.127919999999999590e+00 2.065619999999999834e+01 7.216770000000000351e+00 2.032770000000000188e+00 2.065992999999999924e+01 5.457670000000000243e+00 5.081990000000000229e+00 2.065856000000000137e+01 3.694339999999999957e+00 8.129749999999999588e+00 2.065809000000000140e+01 1.055943000000000076e+01 1.000000000000000048e-04 1.115767999999999915e+01 -1.759290000000000020e+00 3.047829999999999817e+00 1.115856999999999921e+01 7.039920000000000400e+00 6.096160000000000245e+00 1.115407000000000082e+01 3.522930000000000117e+00 9.899999999999999946e-04 1.115775000000000006e+01 1.760709999999999997e+00 3.047959999999999781e+00 1.115353999999999957e+01 8.400000000000000348e-04 6.098060000000000258e+00 1.115474999999999994e+01 1.763619999999999965e+00 9.143810000000000215e+00 1.115451999999999977e+01 5.280179999999999652e+00 3.048360000000000181e+00 1.115626999999999924e+01 3.523839999999999861e+00 6.097620000000000040e+00 1.115854000000000035e+01 -5.103839999999999932e+00 9.144109999999999516e+00 1.884683000000000064e+01 -1.583299999999999930e+00 3.047320000000000029e+00 1.884400000000000119e+01 -3.345229999999999926e+00 6.096989999999999910e+00 1.884466000000000108e+01 3.693179999999999907e+00 2.079999999999999818e-03 1.884448000000000079e+01 1.933920000000000083e+00 3.048519999999999897e+00 1.884286000000000172e+01 1.764400000000000135e-01 6.096470000000000056e+00 1.883965999999999852e+01 1.932670000000000110e+00 9.143359999999999488e+00 1.884863999999999962e+01 5.459130000000000038e+00 3.048589999999999911e+00 1.884583999999999904e+01 3.694760000000000044e+00 6.094960000000000377e+00 1.884485000000000099e+01
-3.619999999999999954e-03 2.033290000000000042e+00 9.337550000000000239e+00 -1.763419999999999987e+00 5.083149999999999835e+00 9.344490000000000407e+00 -3.516900000000000137e+00 8.126910000000000522e+00 9.342539999999999623e+00 3.518299999999999983e+00 2.030860000000000110e+00 9.341639999999999944e+00 1.759679999999999911e+00 5.078339999999999854e+00 9.335309999999999775e+00 5.800000000000000034e-04 8.129339999999999122e+00 9.344419999999999504e+00 7.040269999999999584e+00 2.034050000000000136e+00 9.342750000000000554e+00 5.280700000000000394e+00 5.074370000000000047e+00 9.346170000000000755e+00 3.519200000000000106e+00 8.131209999999999383e+00 9.336289999999999978e+00 1.710399999999999976e-01 2.032789999999999875e+00 1.703221999999999881e+01 -1.580480000000000107e+00 5.081509999999999749e+00 1.703254000000000090e+01 -3.344879999999999853e+00 8.132039999999999935e+00 1.702992000000000061e+01 3.697000000000000064e+00 2.035620000000000207e+00 1.702772999999999826e+01 1.935060000000000002e+00 5.080320000000000391e+00 1.703170000000000073e+01 1.760400000000000020e-01 8.129640000000000200e+00 1.702828999999999837e+01 7.223390000000000200e+00 2.034359999999999946e+00 1.702742999999999896e+01 5.454679999999999751e+00 5.082089999999999996e+00 1.702961000000000169e+01 3.697940000000000005e+00 8.125590000000000757e+00 1.702659999999999840e+01 1.330000000000000019e-03 2.030539999999999790e+00 1.296992999999999974e+01 -1.762690000000000090e+00 5.073419999999999597e+00 1.297295000000000087e+01 -3.521500000000000075e+00 8.130219999999999558e+00 1.297724999999999973e+01 3.511550000000000171e+00 2.024480000000000057e+00 1.296575999999999951e+01 1.758820000000000050e+00 5.083789999999999587e+00 1.297225000000000072e+01 -1.420000000000000038e-03 8.133990000000000720e+00 1.297025000000000006e+01 7.042449999999999655e+00 2.033879999999999910e+00 1.297195999999999927e+01 5.283780000000000143e+00 5.083599999999999675e+00 1.296726999999999919e+01 3.522079999999999878e+00 8.132630000000000692e+00 1.296636999999999951e+01 1.774699999999999889e-01 2.038440000000000030e+00 2.065808000000000177e+01 -1.579269999999999952e+00 5.075610000000000177e+00 2.065875000000000128e+01 -3.350270000000000081e+00 8.126279999999999504e+00 2.065737000000000023e+01 3.693029999999999813e+00 2.031480000000000175e+00 2.065621000000000151e+01 1.932960000000000012e+00 5.082629999999999981e+00 2.065100999999999942e+01 1.766999999999999960e-01 8.126749999999999474e+00 2.065516999999999825e+01 7.217539999999999623e+00 2.033259999999999845e+00 2.066263000000000005e+01 5.459340000000000082e+00 5.083300000000000374e+00 2.065989000000000075e+01 3.692680000000000184e+00 8.130409999999999471e+00 2.065895000000000081e+01 1.055888000000000027e+01 2.100000000000000087e-04 1.115940999999999939e+01 -1.758580000000000032e+00 3.047260000000000080e+00 1.116121000000000052e+01 7.039850000000000385e+00 6.095509999999999984e+00 1.115224000000000082e+01 3.525840000000000085e+00 1.959999999999999937e-03 1.115956000000000081e+01 1.761400000000000077e+00 3.047520000000000007e+00 1.115117000000000047e+01 1.670000000000000043e-03 6.099289999999999878e+00 1.115358999999999945e+01 1.767220000000000013e+00 9.142400000000000304e+00 1.115311999999999948e+01 5.280350000000000321e+00 3.048299999999999788e+00 1.115663999999999945e+01 3.527649999999999952e+00 6.098419999999999952e+00 1.116113999999999962e+01 -5.103679999999999772e+00 9.143000000000000682e+00 1.884955000000000069e+01 -1.582610000000000072e+00 3.046229999999999993e+00 1.884391000000000105e+01 -3.346449999999999925e+00 6.097150000000000070e+00 1.884522000000000119e+01 3.690370000000000150e+00 4.139999999999999583e-03 1.884485000000000099e+01 1.931859999999999911e+00 3.048639999999999795e+00 1.884161999999999892e+01 1.768800000000000094e-01 6.096129999999999605e+00 1.883526000000000167e+01 1.929359999999999964e+00 9.141519999999999868e+00 1.885313999999999979e+01 5.462250000000000050e+00 3.048770000000000202e+00 1.884758000000000067e+01 3.693540000000000045e+00 6.093119999999999870e+00 1.884560000000000102e+01
-5.429999999999999931e-03 2.033790000000000209e+00 9.334949999999999193e+00 -1.765109999999999957e+00 5.084369999999999834e+00 9.345349999999999824e+00 -3.515350000000000197e+00 8.125840000000000174e+00 9.342439999999999856e+00 3.517459999999999809e+00 2.030149999999999899e+00 9.341070000000000206e+00 1.759530000000000038e+00 5.077189999999999870e+00 9.331619999999999138e+00 8.800000000000000313e-04 8.129479999999999151e+00 9.345219999999999416e+00 7.040399999999999991e+00 2.034940000000000193e+00 9.342739999999999156e+00 5.281049999999999578e+00 5.071229999999999905e+00 9.347849999999999326e+00 3.518819999999999837e+00 8.132260000000000488e+00 9.333069999999999311e+00 1.685699999999999976e-01 2.033040000000000180e+00 1.703337000000000145e+01 -1.578740000000000032e+00 5.081920000000000215e+00 1.703384000000000142e+01 -3.345320000000000071e+00 8.133499999999999730e+00 1.702993000000000023e+01 3.697509999999999852e+00 2.037300000000000111e+00 1.702665999999999968e+01 1.934600000000000097e+00 5.080129999999999590e+00 1.703257999999999939e+01 1.760599999999999943e-01 8.129929999999999879e+00 1.702749999999999986e+01 7.227070000000000327e+00 2.035379999999999967e+00 1.702621999999999858e+01 5.454030000000000378e+00 5.082790000000000141e+00 1.702947999999999951e+01 3.698900000000000077e+00 8.123849999999999127e+00 1.702499999999999858e+01 2.000000000000000042e-03 2.029679999999999929e+00 1.296984999999999921e+01 -1.764029999999999987e+00 5.069829999999999615e+00 1.297436000000000078e+01 -3.522240000000000038e+00 8.130770000000000053e+00 1.298079000000000072e+01 3.507340000000000124e+00 2.020620000000000083e+00 1.296359999999999957e+01 1.758229999999999960e+00 5.085329999999999906e+00 1.297330000000000005e+01 -2.109999999999999896e-03 8.136419999999999320e+00 1.297031999999999918e+01 7.043650000000000411e+00 2.034670000000000201e+00 1.297287999999999997e+01 5.285660000000000025e+00 5.085040000000000227e+00 1.296587000000000067e+01 3.523109999999999964e+00 8.134389999999999787e+00 1.296452999999999989e+01 1.781999999999999973e-01 2.041500000000000092e+00 2.065850999999999971e+01 -1.576920000000000099e+00 5.073100000000000165e+00 2.065949000000000169e+01 -3.353390000000000093e+00 8.124869999999999592e+00 2.065745000000000076e+01 3.691549999999999887e+00 2.031099999999999905e+00 2.065569999999999951e+01 1.931440000000000046e+00 5.083590000000000053e+00 2.064790999999999954e+01 1.770100000000000007e-01 8.125569999999999737e+00 2.065414000000000172e+01 7.218309999999999782e+00 2.033739999999999881e+00 2.066532000000000124e+01 5.461000000000000298e+00 5.084590000000000387e+00 2.066122000000000014e+01 3.691030000000000033e+00 8.131059999999999732e+00 2.065981000000000023e+01 1.055833999999999939e+01 3.099999999999999999e-04 1.116108000000000011e+01 -1.757870000000000044e+00 3.046689999999999898e+00 1.116379000000000055e+01 7.039789999999999992e+00 6.094870000000000232e+00 1.115044999999999931e+01 3.528700000000000170e+00 2.909999999999999826e-03 1.116133999999999915e+01 1.762059999999999960e+00 3.047099999999999920e+00 1.114880999999999922e+01 2.480000000000000000e-03 6.100509999999999877e+00 1.115244999999999997e+01 1.770769999999999955e+00 9.141019999999999257e+00 1.115173000000000059e+01 5.280509999999999593e+00 3.048220000000000152e+00 1.115700999999999965e+01 3.531400000000000095e+00 6.099219999999999864e+00 1.116366999999999976e+01 -5.103559999999999874e+00 9.141920000000000712e+00 1.885222999999999871e+01 -1.581930000000000058e+00 3.045139999999999958e+00 1.884384000000000015e+01 -3.347640000000000171e+00 6.097319999999999851e+00 1.884578000000000131e+01 3.687580000000000080e+00 6.170000000000000137e-03 1.884522000000000119e+01 1.929820000000000091e+00 3.048760000000000137e+00 1.884038999999999930e+01 1.773099999999999954e-01 6.095799999999999663e+00 1.883090999999999937e+01 1.926099999999999923e+00 9.139709999999999113e+00 1.885756999999999906e+01 5.465349999999999930e+00 3.048950000000000049e+00 1.884928999999999988e+01 3.692340000000000177e+00 6.091289999999999871e+00 1.884634000000000142e+01
-7.230000000000000315e-03 2.034279999999999866e+00 9.332380000000000564e+00 -1.766790000000000083e+00 5.085569999999999702e+00 9.346199999999999619e+00 -3.513809999999999878e+00 8.124779999999999447e+00 9.342349999999999710e+00 3.516630000000000145e+00 2.029430000000000067e+00 9.340500000000000469e+00 1.759409999999999918e+00 5.076060000000000016e+00 9.327959999999999141e+00 1.190000000000000085e-03 8.129609999999999559e+00 9.346019999999999328e+00 7.040549999999999642e+00 2.035820000000000185e+00 9.342739999999999156e+00 5.281390000000000029e+00 5.068109999999999893e+00 9.349500000000000810e+00 3.518460000000000143e+00 8.133279999999999177e+00 9.329869999999999663e+00 1.661199999999999899e-01 2.033259999999999845e+00 1.703451000000000093e+01 -1.577020000000000088e+00 5.082329999999999792e+00 1.703512999999999877e+01 -3.345759999999999845e+00 8.134959999999999525e+00 1.702994999999999948e+01 3.698040000000000216e+00 2.038980000000000015e+00 1.702561000000000035e+01 1.934160000000000101e+00 5.079939999999999678e+00 1.703341999999999956e+01 1.760599999999999943e-01 8.130240000000000578e+00 1.702671000000000134e+01 7.230719999999999814e+00 2.036369999999999791e+00 1.702504000000000062e+01 5.453380000000000116e+00 5.083470000000000155e+00 1.702935000000000088e+01 3.699840000000000018e+00 8.122120000000000672e+00 1.702343000000000117e+01 2.680000000000000090e-03 2.028830000000000133e+00 1.296977000000000046e+01 -1.765349999999999975e+00 5.066270000000000273e+00 1.297574999999999967e+01 -3.522980000000000000e+00 8.131309999999999150e+00 1.298428999999999967e+01 3.503159999999999830e+00 2.016799999999999926e+00 1.296147000000000027e+01 1.757649999999999935e+00 5.086859999999999715e+00 1.297432000000000052e+01 -2.769999999999999893e-03 8.138840000000000074e+00 1.297039000000000009e+01 7.044850000000000279e+00 2.035439999999999916e+00 1.297378999999999927e+01 5.287539999999999907e+00 5.086470000000000269e+00 1.296449999999999925e+01 3.524140000000000050e+00 8.136139999999999262e+00 1.296271999999999913e+01 1.789300000000000057e-01 2.044540000000000024e+00 2.065895000000000081e+01 -1.574570000000000025e+00 5.070610000000000284e+00 2.066019999999999968e+01 -3.356479999999999908e+00 8.123480000000000700e+00 2.065755000000000052e+01 3.690080000000000027e+00 2.030740000000000212e+00 2.065518000000000143e+01 1.929920000000000080e+00 5.084550000000000125e+00 2.064483999999999853e+01 1.772900000000000031e-01 8.124380000000000379e+00 2.065313000000000088e+01 7.219079999999999941e+00 2.034219999999999917e+00 2.066800999999999888e+01 5.462640000000000384e+00 5.085880000000000400e+00 2.066253999999999991e+01 3.689379999999999882e+00 8.131690000000000751e+00 2.066066999999999965e+01 1.055781999999999954e+01 4.200000000000000174e-04 1.116268999999999956e+01 -1.757160000000000055e+00 3.046129999999999782e+00 1.116630999999999929e+01 7.039740000000000109e+00 6.094240000000000101e+00 1.114873000000000047e+01 3.531499999999999861e+00 3.810000000000000019e-03 1.116306999999999938e+01 1.762690000000000090e+00 3.046679999999999833e+00 1.114647000000000077e+01 3.269999999999999903e-03 6.101689999999999614e+00 1.115136000000000038e+01 1.774280000000000079e+00 9.139680000000000248e+00 1.115035999999999916e+01 5.280660000000000132e+00 3.048099999999999810e+00 1.115741000000000049e+01 3.535079999999999778e+00 6.100010000000000154e+00 1.116611999999999938e+01 -5.103460000000000107e+00 9.140869999999999607e+00 1.885486999999999824e+01 -1.581260000000000110e+00 3.044059999999999988e+00 1.884378999999999849e+01 -3.348800000000000221e+00 6.097489999999999633e+00 1.884631999999999863e+01 3.684829999999999828e+00 8.149999999999999259e-03 1.884556999999999860e+01 1.927810000000000024e+00 3.048880000000000035e+00 1.883916999999999931e+01 1.777199999999999891e-01 6.095489999999999853e+00 1.882665000000000077e+01 1.922919999999999963e+00 9.137959999999999638e+00 1.886186999999999969e+01 5.468410000000000437e+00 3.049139999999999961e+00 1.885097000000000023e+01 3.691170000000000062e+00 6.089489999999999625e+00 1.884706999999999866e+01
-9.029999999999999832e-03 2.034769999999999968e+00 9.329850000000000421e+00 -1.768429999999999946e+00 5.086739999999999817e+00 9.347049999999999415e+00 -3.512270000000000003e+00 8.123749999999999361e+00 9.342299999999999827e+00 3.515829999999999789e+00 2.028719999999999857e+00 9.339930000000000732e+00 1.759300000000000086e+00 5.074959999999999916e+00 9.324360000000000426e+00 1.520000000000000084e-03 8.129749999999999588e+00 9.346809999999999619e+00 7.040709999999999802e+00 2.036700000000000177e+00 9.342760000000000176e+00 5.281719999999999970e+00 5.065019999999999634e+00 9.351139999999999119e+00 3.518139999999999823e+00 8.134280000000000399e+00 9.326689999999999259e+00 1.636900000000000022e-01 2.033450000000000202e+00 1.703564000000000078e+01 -1.575339999999999963e+00 5.082720000000000127e+00 1.703640000000000043e+01 -3.346200000000000063e+00 8.136409999999999698e+00 1.702997999999999834e+01 3.698570000000000135e+00 2.040659999999999918e+00 1.702458000000000027e+01 1.933729999999999949e+00 5.079740000000000144e+00 1.703422000000000125e+01 1.760599999999999943e-01 8.130580000000000140e+00 1.702592999999999890e+01 7.234350000000000058e+00 2.037329999999999863e+00 1.702389000000000152e+01 5.452740000000000364e+00 5.084150000000000169e+00 1.702922999999999831e+01 3.700769999999999893e+00 8.120400000000000063e+00 1.702193000000000112e+01 3.370000000000000166e-03 2.027989999999999959e+00 1.296968999999999994e+01 -1.766659999999999897e+00 5.062750000000000306e+00 1.297710999999999970e+01 -3.523699999999999832e+00 8.131840000000000401e+00 1.298774000000000051e+01 3.499000000000000110e+00 2.013040000000000163e+00 1.295936999999999983e+01 1.757079999999999975e+00 5.088379999999999903e+00 1.297531000000000034e+01 -3.399999999999999811e-03 8.141230000000000189e+00 1.297045999999999921e+01 7.046020000000000394e+00 2.036189999999999944e+00 1.297469000000000072e+01 5.289419999999999789e+00 5.087880000000000180e+00 1.296316999999999986e+01 3.525160000000000071e+00 8.137879999999999114e+00 1.296095000000000041e+01 1.796599999999999864e-01 2.047550000000000203e+00 2.065940000000000154e+01 -1.572230000000000016e+00 5.068150000000000155e+00 2.066088999999999842e+01 -3.359539999999999971e+00 8.122090000000000032e+00 2.065765999999999991e+01 3.688619999999999788e+00 2.030390000000000139e+00 2.065466999999999942e+01 1.928399999999999892e+00 5.085490000000000066e+00 2.064179999999999993e+01 1.775100000000000011e-01 8.123179999999999623e+00 2.065212999999999965e+01 7.219850000000000101e+00 2.034689999999999888e+00 2.067069000000000045e+01 5.464260000000000339e+00 5.087150000000000283e+00 2.066386999999999929e+01 3.687730000000000175e+00 8.132300000000000750e+00 2.066154999999999831e+01 1.055733999999999995e+01 5.400000000000000069e-04 1.116418999999999961e+01 -1.756450000000000067e+00 3.045580000000000176e+00 1.116873999999999967e+01 7.039719999999999978e+00 6.093650000000000233e+00 1.114709000000000039e+01 3.534199999999999786e+00 4.669999999999999672e-03 1.116474000000000011e+01 1.763249999999999984e+00 3.046289999999999942e+00 1.114414999999999978e+01 4.040000000000000188e-03 6.102839999999999598e+00 1.115030999999999928e+01 1.777709999999999901e+00 9.138389999999999347e+00 1.114902000000000015e+01 5.280770000000000408e+00 3.047950000000000159e+00 1.115781999999999918e+01 3.538660000000000139e+00 6.100789999999999935e+00 1.116844999999999999e+01 -5.103410000000000224e+00 9.139860000000000539e+00 1.885743000000000080e+01 -1.580619999999999914e+00 3.042990000000000084e+00 1.884376999999999924e+01 -3.349899999999999878e+00 6.097649999999999793e+00 1.884684999999999988e+01 3.682129999999999903e+00 1.005999999999999950e-02 1.884590000000000032e+01 1.925859999999999905e+00 3.048999999999999932e+00 1.883794999999999931e+01 1.781099999999999905e-01 6.095209999999999795e+00 1.882250000000000156e+01 1.919839999999999991e+00 9.136269999999999669e+00 1.886601999999999890e+01 5.471429999999999794e+00 3.049339999999999939e+00 1.885260999999999854e+01 3.690049999999999830e+00 6.087740000000000151e+00 1.884778999999999982e+01
-1.081999999999999976e-02 2.035239999999999938e+00 9.327370000000000161e+00 -1.770049999999999901e+00 5.087889999999999802e+00 9.347899999999999210e+00 -3.510749999999999815e+00 8.122749999999999915e+00 9.342269999999999186e+00 3.515050000000000008e+00 2.028000000000000025e+00 9.339359999999999218e+00 1.759230000000000071e+00 5.073889999999999567e+00 9.320819999999999439e+00 1.860000000000000108e-03 8.129910000000000636e+00 9.347569999999999268e+00 7.040869999999999962e+00 2.037570000000000103e+00 9.342790000000000816e+00 5.282049999999999912e+00 5.061950000000000394e+00 9.352740000000000720e+00 3.517850000000000144e+00 8.135239999999999583e+00 9.323549999999999116e+00 1.612899999999999889e-01 2.033619999999999983e+00 1.703674000000000177e+01 -1.573690000000000033e+00 5.083109999999999573e+00 1.703763000000000005e+01 -3.346659999999999968e+00 8.137840000000000629e+00 1.703002000000000038e+01 3.699120000000000186e+00 2.042349999999999888e+00 1.702357999999999905e+01 1.933329999999999993e+00 5.079530000000000101e+00 1.703497000000000128e+01 1.760299999999999920e-01 8.130940000000000722e+00 1.702515999999999963e+01 7.237940000000000040e+00 2.038250000000000117e+00 1.702280000000000015e+01 5.452119999999999855e+00 5.084800000000000431e+00 1.702912999999999855e+01 3.701659999999999950e+00 8.118700000000000472e+00 1.702049999999999841e+01 4.080000000000000293e-03 2.027169999999999916e+00 1.296962000000000081e+01 -1.767949999999999910e+00 5.059300000000000352e+00 1.297846000000000011e+01 -3.524410000000000043e+00 8.132339999999999236e+00 1.299113000000000007e+01 3.494889999999999830e+00 2.009339999999999904e+00 1.295730000000000004e+01 1.756520000000000081e+00 5.089879999999999960e+00 1.297625000000000028e+01 -3.989999999999999623e-03 8.143589999999999662e+00 1.297053000000000011e+01 7.047170000000000378e+00 2.036910000000000220e+00 1.297559000000000040e+01 5.291299999999999670e+00 5.089260000000000339e+00 1.296188000000000073e+01 3.526180000000000092e+00 8.139590000000000103e+00 1.295923999999999943e+01 1.803800000000000125e-01 2.050520000000000120e+00 2.065985999999999834e+01 -1.569909999999999917e+00 5.065719999999999779e+00 2.066153999999999868e+01 -3.362569999999999837e+00 8.120710000000000761e+00 2.065781000000000134e+01 3.687159999999999993e+00 2.030079999999999885e+00 2.065416000000000096e+01 1.926879999999999926e+00 5.086409999999999876e+00 2.063879000000000019e+01 1.776800000000000046e-01 8.121969999999999246e+00 2.065115000000000123e+01 7.220629999999999882e+00 2.035149999999999793e+00 2.067336999999999847e+01 5.465860000000000163e+00 5.088400000000000034e+00 2.066519999999999868e+01 3.686090000000000089e+00 8.132889999999999731e+00 2.066243000000000052e+01 1.055691000000000024e+01 6.700000000000000226e-04 1.116555999999999926e+01 -1.755740000000000078e+00 3.045030000000000125e+00 1.117106000000000066e+01 7.039710000000000356e+00 6.093079999999999607e+00 1.114555000000000007e+01 3.536799999999999944e+00 5.449999999999999983e-03 1.116632000000000069e+01 1.763759999999999994e+00 3.045929999999999804e+00 1.114185999999999943e+01 4.769999999999999934e-03 6.103939999999999699e+00 1.114930999999999983e+01 1.781050000000000022e+00 9.137159999999999727e+00 1.114769000000000077e+01 5.280859999999999665e+00 3.047759999999999803e+00 1.115826999999999991e+01 3.542120000000000157e+00 6.101569999999999716e+00 1.117062999999999917e+01 -5.103419999999999845e+00 9.138899999999999579e+00 1.885991999999999891e+01 -1.580000000000000071e+00 3.041939999999999866e+00 1.884380000000000166e+01 -3.350950000000000095e+00 6.097809999999999953e+00 1.884735999999999834e+01 3.679489999999999927e+00 1.190000000000000085e-02 1.884621999999999886e+01 1.923950000000000049e+00 3.049119999999999830e+00 1.883674999999999855e+01 1.784699999999999898e-01 6.094969999999999999e+00 1.881849000000000061e+01 1.916870000000000074e+00 9.134679999999999467e+00 1.886998000000000175e+01 5.474389999999999645e+00 3.049539999999999917e+00 1.885419999999999874e+01 3.688979999999999926e+00 6.086020000000000429e+00 1.884847999999999857e+01