-3.426969502200000193e+02
-3.426938333300000181e+02
-3.426845910600000025e+02
-3.426694897699999842e+02
-3.426489415099999860e+02
-3.426234850100000244e+02
-3.425937616499999763e+02
-3.425604840099999819e+02
-3.425244070499999793e+02
-3.424863041400000157e+02
-3.416437165799999889e+02
-3.416502481399999738e+02
-3.416565881299999887e+02
-3.416628452599999832e+02
-3.416692015699999843e+02
-3.416759044400000107e+02
-3.416832433999999807e+02
-3.416915275999999722e+02
-3.417010654100000124e+02
-3.417121362699999736e+02
-3.414953432400000111e+02
-3.415026191200000198e+02
-3.415098894500000029e+02
-3.415171431900000130e+02
-3.415243993999999930e+02
-3.415317025599999852e+02
-3.415391216099999951e+02
-3.415467422300000067e+02
-3.415546644099999867e+02
-3.415629950900000154e+02
-3.420268797599999857e+02
-3.420245543500000167e+02
-3.420185465199999726e+02
-3.420089448300000186e+02
-3.419959419099999991e+02
-3.419798191900000006e+02
-3.419609360200000197e+02
-3.419397083900000212e+02
-3.419165985299999875e+02
-3.418920876099999759e+02
-3.421346639299999879e+02
-3.421321754499999770e+02
-3.421255386899999849e+02
-3.421150142600000095e+02
-3.421009755700000028e+02
-3.420838963400000239e+02
-3.420643201400000066e+02
-3.420428384499999765e+02
-3.420200832400000195e+02
-3.419966870700000072e+02
-3.414187384699999939e+02
-3.414255774100000167e+02
-3.414315247399999862e+02
-3.414365278800000283e+02
-3.414405805600000008e+02
-3.414437267299999803e+02
-3.414460607299999992e+02
-3.414477147700000046e+02
-3.414488556800000083e+02
-3.414496787900000072e+02
-3.417216967800000020e+02
-3.417138666199999761e+02
-3.417042409599999928e+02
-3.416930682400000023e+02
-3.416806434499999909e+02
-3.416673094399999968e+02
-3.416534278500000141e+02
-3.416393833000000200e+02
-3.416255574400000228e+02
-3.416123324600000046e+02
-3.416494378200000028e+02
-3.416476412499999924e+02
-3.416435636599999839e+02
-3.416375124699999901e+02
-3.416299051699999723e+02
-3.416212538999999992e+02
-3.416121396199999936e+02
-3.416031931699999973e+02
-3.415950657500000034e+02
-3.415884059699999966e+02
-3.421112255900000036e+02
-3.421112092800000255e+02
-3.421076043599999821e+02
-3.421005220399999871e+02
-3.420901885800000173e+02
-3.420769397199999844e+02
-3.420612025899999935e+02
-3.420434778900000197e+02
-3.420243253699999855e+02
-3.420043408500000055e+02
-3.416927624499999752e+02
-3.416965594900000269e+02
-3.416987361899999769e+02
-3.416992672599999992e+02
-3.416981951099999719e+02
-3.416956272599999807e+02
-3.416917338900000232e+02
-3.416867472999999791e+02
-3.416809444900000017e+02
-3.416746462300000076e+02
-3.414188600100000031e+02
-3.414163114099999916e+02
-3.414144475900000089e+02
-3.414136396000000104e+02
-3.414143665799999781e+02
-3.414171911600000158e+02
-3.414227109600000176e+02
-3.414315135200000100e+02
-3.414441377499999817e+02
-3.414610170199999857e+02
-3.418121961200000101e+02
-3.418126383800000099e+02
-3.418107368799999790e+02
-3.418066323499999726e+02
-3.418005412900000124e+02
-3.417927446799999984e+02
-3.417835873799999717e+02
-3.417734634899999833e+02
-3.417627983799999924e+02
-3.417520392700000116e+02
-3.415251106900000195e+02
-3.415012076200000024e+02
-3.414777683799999863e+02
-3.414554295500000194e+02
-3.414348699600000145e+02
-3.414167990099999770e+02
-3.414019190600000115e+02
-3.413909019499999999e+02
-3.413843581200000017e+02
-3.413828091400000062e+02
-3.420352219000000105e+02
-3.420305529199999910e+02
-3.420242680399999813e+02
-3.420165157700000123e+02
-3.420074895899999774e+02
-3.419974250500000039e+02
-3.419865965999999844e+02
-3.419753036600000087e+02
-3.419638662300000078e+02
-3.419526149700000133e+02
-3.419005867299999863e+02
-3.419015821300000084e+02
-3.419006929000000241e+02
-3.418980940600000054e+02
-3.418940706500000033e+02
-3.418890231699999731e+02
-3.418834174599999756e+02
-3.418777758200000108e+02
-3.418726204999999823e+02
-3.418684592199999770e+02
-3.420867749199999821e+02
-3.420842720699999973e+02
-3.420769118599999956e+02
-3.420649166300000275e+02
-3.420486287300000185e+02
-3.420284933699999783e+02
-3.420050411600000189e+02
-3.419788595699999973e+02
-3.419505745800000227e+02
-3.419208243200000084e+02
-3.410395715700000210e+02
-3.410386046699999838e+02
-3.410391796200000272e+02
-3.410412792600000103e+02
-3.410448666099999855e+02
-3.410498892100000035e+02
-3.410562727600000130e+02
-3.410639299900000196e+02
-3.410727581799999939e+02
-3.410826375899999903e+02
-3.420292251000000192e+02
-3.420287244900000019e+02
-3.420237362699999721e+02
-3.420144695100000263e+02
-3.420012815900000192e+02
-3.419846672699999885e+02
-3.419652178700000036e+02
-3.419435991999999942e+02
-3.419205246999999872e+02
-3.418967212800000084e+02
-3.418628435399999717e+02
-3.418682643000000212e+02
-3.418715756000000283e+02
-3.418727653099999770e+02
-3.418719075999999859e+02
-3.418691633600000159e+02
-3.418647700999999870e+02
-3.418590397400000143e+02
-3.418523374700000090e+02
-3.418450780100000088e+02
-3.411044131200000038e+02
-3.411052364000000239e+02
-3.411021984000000202e+02
-3.410955286600000136e+02
-3.410856087799999727e+02
-3.410729453000000149e+02
-3.410581442100000231e+02
-3.410418882100000246e+02
-3.410249038599999949e+02
-3.410079318200000102e+02
-3.418995899500000064e+02
-3.418847054699999717e+02
-3.418672654900000225e+02
-3.418476376300000084e+02
-3.418262734599999817e+02
-3.418036833200000046e+02
-3.417804259900000261e+02
-3.417570814100000121e+02
-3.417342278200000010e+02
-3.417124243800000158e+02
-3.416407895400000143e+02
-3.416397356900000091e+02
-3.416369731099999854e+02
-3.416326730499999940e+02
-3.416271164099999851e+02
-3.416206822699999748e+02
-3.416138323499999956e+02
-3.416070783399999868e+02
-3.416009584299999915e+02
-3.415960144700000001e+02
-3.414574309100000278e+02
-3.414577048400000194e+02
-3.414588226700000178e+02
-3.414608773900000074e+02
-3.414640118600000278e+02
-3.414684047800000144e+02
-3.414742516700000010e+02
-3.414817600000000084e+02
-3.414911280700000020e+02
-3.415025243800000112e+02
-3.420636599599999954e+02
-3.420520898699999748e+02
-3.420380994299999884e+02
-3.420219565300000113e+02
-3.420039853000000107e+02
-3.419845608100000049e+02
-3.419640899400000080e+02
-3.419430036800000039e+02
-3.419217443300000241e+02
-3.419007515299999795e+02
-3.423394124800000213e+02
-3.423385971800000220e+02
-3.423332902000000217e+02
-3.423236899799999833e+02
-3.423101443300000142e+02
-3.422931395200000111e+02
-3.422732692399999905e+02
-3.422512103500000080e+02
-3.422276884199999927e+02
-3.422034513899999979e+02
-3.410899791100000016e+02
-3.410976518699999929e+02
-3.411076170200000206e+02
-3.411198615199999722e+02
-3.411344205400000078e+02
-3.411513614400000165e+02
-3.411707649400000264e+02
-3.411926906499999745e+02
-3.412171587000000272e+02
-3.412441200800000161e+02
-3.411051148600000147e+02
-3.411098904799999900e+02
-3.411163874200000237e+02
-3.411246009899999763e+02
-3.411345362700000123e+02
-3.411462020100000245e+02
-3.411596166699999912e+02
-3.411747953199999870e+02
-3.411917580699999917e+02
-3.412105176900000174e+02
-3.416142908200000079e+02
-3.416058290299999953e+02
-3.415945743699999753e+02
-3.415807910500000162e+02
-3.415648323899999923e+02
-3.415471133799999848e+02
-3.415281072399999971e+02
-3.415083238199999869e+02
-3.414882886899999903e+02
-3.414685327000000257e+02
-3.421693545599999879e+02
-3.421711928799999782e+02
-3.421689356800000041e+02
-3.421626629799999932e+02
-3.421525698500000203e+02
-3.421389636600000017e+02
-3.421222485999999776e+02
-3.421029073600000174e+02
-3.420814881499999842e+02
-3.420585767599999940e+02
-3.416950404699999808e+02
-3.416928912299999865e+02
-3.416869906399999763e+02
-3.416775294400000007e+02
-3.416648158500000250e+02
-3.416492483399999855e+02
-3.416313048399999843e+02
-3.416115246400000274e+02
-3.415904831700000273e+02
-3.415687776199999917e+02
-3.405584509799999751e+02
-3.405635466300000189e+02
-3.405765412599999991e+02
-3.405973918099999764e+02
-3.406259919699999728e+02
-3.406621584600000006e+02
-3.407055912600000056e+02
-3.407558602899999869e+02
-3.408123756499999786e+02
-3.408743750300000102e+02
-3.420565424399999870e+02
-3.420511784700000248e+02
-3.420419766300000219e+02
-3.420292288800000051e+02
-3.420133479300000090e+02
-3.419948368899999878e+02
-3.419742744900000275e+02
-3.419522926199999802e+02
-3.419295564700000227e+02
-3.419067382299999736e+02
-3.423562627200000179e+02
-3.423549218800000062e+02
-3.423493829099999743e+02
-3.423397979700000064e+02
-3.423264299400000255e+02
-3.423096448499999838e+02
-3.422898893700000258e+02
-3.422676805799999897e+02
-3.422435787000000005e+02
-3.422181815800000209e+02
-3.415350909599999909e+02
-3.415311078899999870e+02
-3.415252185900000086e+02
-3.415176358599999844e+02
-3.415086406500000180e+02
-3.414985763799999745e+02
-3.414878395499999897e+02
-3.414768628499999750e+02
-3.414661026100000072e+02
-3.414560277799999994e+02
-3.416323182900000006e+02
-3.416292846800000120e+02
-3.416248009799999750e+02
-3.416190192999999908e+02
-3.416121568899999943e+02
-3.416044875900000193e+02
-3.415963232600000197e+02
-3.415880295200000205e+02
-3.415799864300000195e+02
-3.415725965799999813e+02
-3.420172316599999931e+02
-3.420152074299999754e+02
-3.420093877200000065e+02
-3.419999277100000086e+02
-3.419870916799999918e+02
-3.419712283100000150e+02
-3.419527603299999896e+02
-3.419321656800000255e+02
-3.419099579599999856e+02
-3.418866710199999943e+02
-3.417808134300000233e+02
-3.417829121699999746e+02
-3.417850222499999973e+02
-3.417872902299999964e+02
-3.417899273500000277e+02
-3.417931883800000037e+02
-3.417973606699999891e+02
-3.418027416200000062e+02
-3.418096214199999849e+02
-3.418182546900000034e+02
-3.409938507100000038e+02
-3.410036057699999787e+02
-3.410143981900000085e+02
-3.410260861500000260e+02
-3.410385398299999906e+02
-3.410516405000000191e+02
-3.410652901600000177e+02
-3.410794110699999919e+02
-3.410939482900000144e+02
-3.411088697199999729e+02
-3.417113321900000074e+02
-3.417116115499999864e+02
-3.417074353599999768e+02
-3.416989604899999904e+02
-3.416864930400000162e+02
-3.416704718400000047e+02
-3.416514534400000116e+02
-3.416300819499999761e+02
-3.416070720199999755e+02
-3.415831723499999839e+02
-3.424453151600000069e+02
-3.424414927799999759e+02
-3.424321322600000030e+02
-3.424175258199999803e+02
-3.423981449899999916e+02
-3.423746151000000282e+02
-3.423476839499999755e+02
-3.423181866200000059e+02
-3.422870086799999854e+02
-3.422550532199999793e+02
-3.419775388699999894e+02
-3.419822248799999898e+02
-3.419852630999999974e+02
-3.419866102700000283e+02
-3.419862840299999789e+02
-3.419843619600000011e+02
-3.419809778100000131e+02
-3.419763169299999959e+02
-3.419706093699999769e+02
-3.419641215299999999e+02
-3.416302578500000209e+02
-3.416530455600000096e+02
-3.416760879899999850e+02
-3.416990206099999909e+02
-3.417215752700000166e+02
-3.417435935600000221e+02
-3.417650154500000212e+02
-3.417858625200000233e+02
-3.418062228100000084e+02
-3.418262275199999749e+02
-3.415701888899999972e+02
-3.415814561700000240e+02
-3.415944865700000150e+02
-3.416090838999999733e+02
-3.416250465599999870e+02
-3.416421667999999841e+02
-3.416602439100000197e+02
-3.416790888300000120e+02
-3.416985197899999775e+02
-3.417183742899999856e+02
-3.419517851100000030e+02
-3.419441723699999898e+02
-3.419346127300000262e+02
-3.419233375900000169e+02
-3.419106111599999736e+02
-3.418967351100000087e+02
-3.418820275900000070e+02
-3.418668171900000061e+02
-3.418514367000000220e+02
-3.418362121600000023e+02
-3.422092272500000263e+02
-3.422041373299999805e+02
-3.421942311399999994e+02
-3.421797452499999963e+02
-3.421610452300000134e+02
-3.421386056000000053e+02
-3.421129883199999995e+02
-3.420848296899999923e+02
-3.420548056200000246e+02
-3.420236214500000074e+02
-3.420435079700000074e+02
-3.420416060900000161e+02
-3.420359996500000079e+02
-3.420268932299999847e+02
-3.420146111299999916e+02
-3.419995807799999739e+02
-3.419823136100000056e+02
-3.419633881099999826e+02
-3.419434246899999721e+02
-3.419230630100000212e+02
-3.422210591300000146e+02
-3.422200451300000168e+02
-3.422131520500000192e+02
-3.422005360599999904e+02
-3.421825299399999949e+02
-3.421596231400000079e+02
-3.421324379499999964e+02
-3.421016974799999844e+02
-3.420681971800000269e+02
-3.420327659199999744e+02
-3.415248043099999791e+02
-3.415189972599999919e+02
-3.415128244599999903e+02
-3.415065854200000217e+02
-3.415006412899999759e+02
-3.414953911299999731e+02
-3.414912462899999923e+02
-3.414886118599999918e+02
-3.414878536200000099e+02
-3.414892826399999990e+02
-3.417722797800000194e+02
-3.417717399800000067e+02
-3.417692518100000143e+02
-3.417650414400000045e+02
-3.417594544099999894e+02
-3.417529294000000277e+02
-3.417459771499999874e+02
-3.417391587500000014e+02
-3.417330461999999898e+02
-3.417282033700000170e+02
-3.422028800400000250e+02
-3.422063110000000279e+02
-3.422058613400000127e+02
-3.422015623699999765e+02
-3.421935400099999924e+02
-3.421820173400000158e+02
-3.421673006099999839e+02
-3.421497697600000265e+02
-3.421298627900000042e+02
-3.421080517899999904e+02
