2.730000000000000222e-04 2.199999999999999943e-05 -6.489999999999999459e-04 2.700000000000000035e-04 2.900000000000000017e-05 -6.489999999999999459e-04 2.719999999999999979e-04 2.500000000000000120e-05 -6.449999999999999570e-04 2.730000000000000222e-04 2.199999999999999943e-05 -6.499999999999999702e-04 2.719999999999999979e-04 2.599999999999999840e-05 -6.549999999999999833e-04 2.719999999999999979e-04 2.599999999999999840e-05 -6.489999999999999459e-04 2.709999999999999735e-04 2.500000000000000120e-05 -6.470000000000000057e-04 2.759999999999999867e-04 2.599999999999999840e-05 -6.509999999999999945e-04 2.739999999999999923e-04 2.699999999999999899e-05 -6.480000000000000300e-04 9.842000000000000054e-03 -6.200000000000000270e-05 -1.190000000000000058e-04 9.841000000000000789e-03 -5.700000000000000314e-05 -1.320000000000000101e-04 9.844000000000000319e-03 -5.500000000000000196e-05 -1.240000000000000054e-04 9.841000000000000789e-03 -6.499999999999999431e-05 -1.200000000000000030e-04 9.842000000000000054e-03 -6.000000000000000152e-05 -1.289999999999999914e-04 9.839000000000000523e-03 -5.399999999999999798e-05 -1.230000000000000082e-04 9.839999999999999789e-03 -6.499999999999999431e-05 -1.200000000000000030e-04 9.841000000000000789e-03 -5.800000000000000034e-05 -1.299999999999999886e-04 9.839999999999999789e-03 -5.599999999999999916e-05 -1.240000000000000054e-04 -9.848000000000000850e-03 -4.800000000000000122e-05 1.090000000000000067e-04 -9.851000000000000381e-03 -4.300000000000000165e-05 1.110000000000000011e-04 -9.849000000000000116e-03 -4.199999999999999768e-05 1.079999999999999960e-04 -9.849999999999999381e-03 -4.899999999999999842e-05 1.100000000000000039e-04 -9.851000000000000381e-03 -4.399999999999999886e-05 1.169999999999999979e-04 -9.851000000000000381e-03 -4.100000000000000047e-05 1.100000000000000039e-04 -9.849999999999999381e-03 -4.800000000000000122e-05 1.090000000000000067e-04 -9.846999999999999850e-03 -4.199999999999999768e-05 1.150000000000000035e-04 -9.849000000000000116e-03 -4.100000000000000047e-05 1.110000000000000011e-04 -2.829999999999999942e-04 6.999999999999999895e-06 6.329999999999999906e-04 -2.820000000000000241e-04 1.000000000000000082e-05 6.449999999999999570e-04 -2.820000000000000241e-04 1.200000000000000030e-05 6.380000000000000037e-04 -2.829999999999999942e-04 7.999999999999999638e-06 6.319999999999999663e-04 -2.809999999999999998e-04 1.099999999999999971e-05 6.419999999999999925e-04 -2.799999999999999755e-04 1.299999999999999920e-05 6.380000000000000037e-04 -2.799999999999999755e-04 6.999999999999999895e-06 6.319999999999999663e-04 -2.799999999999999755e-04 1.099999999999999971e-05 6.419999999999999925e-04 -2.820000000000000241e-04 1.399999999999999979e-05 6.359999999999999551e-04 -2.978000000000000178e-03 2.599999999999999840e-05 -1.119999999999999983e-04 -2.981999999999999842e-03 2.199999999999999943e-05 -1.119999999999999983e-04 -2.978000000000000178e-03 3.100000000000000135e-05 -1.150000000000000035e-04 -2.984999999999999806e-03 2.199999999999999943e-05 -1.110000000000000011e-04 -2.982999999999999974e-03 1.500000000000000038e-05 -1.110000000000000011e-04 -2.987000000000000072e-03 3.000000000000000076e-05 -1.150000000000000035e-04 -2.982999999999999974e-03 2.699999999999999899e-05 -1.110000000000000011e-04 -2.977000000000000045e-03 1.800000000000000046e-05 -1.150000000000000035e-04 -2.977000000000000045e-03 3.199999999999999855e-05 -1.169999999999999979e-04 2.975000000000000214e-03 3.300000000000000253e-05 1.389999999999999905e-04 2.975000000000000214e-03 1.200000000000000030e-05 1.410000000000000120e-04 2.972999999999999948e-03 3.600000000000000091e-05 1.379999999999999933e-04 2.974000000000000081e-03 3.399999999999999973e-05 1.340000000000000045e-04 2.975000000000000214e-03 1.599999999999999928e-05 1.379999999999999933e-04 2.978000000000000178e-03 3.600000000000000091e-05 1.389999999999999905e-04 2.975000000000000214e-03 3.600000000000000091e-05 1.399999999999999877e-04 2.975999999999999913e-03 1.699999999999999987e-05 1.389999999999999905e-04 2.975999999999999913e-03 3.399999999999999973e-05 1.389999999999999905e-04
6.089999999999999927e-03 -9.414000000000000493e-03 3.248600000000000099e-02 2.219399999999999845e-02 -2.027899999999999842e-02 -3.229999999999999798e-03 -7.291999999999999871e-03 2.142099999999999907e-02 2.143000000000000113e-02 1.822100000000000108e-02 -1.703000000000000087e-03 -4.260000000000000006e-04 2.258399999999999991e-02 2.532500000000000029e-02 4.949699999999999933e-02 1.072999999999999995e-02 5.820999999999999786e-03 -1.257300000000000084e-02 8.234999999999999265e-03 -5.272999999999999909e-03 1.215899999999999967e-02 -5.322999999999999607e-03 2.228199999999999972e-02 -2.256899999999999878e-02 2.708500000000000144e-02 -2.340100000000000166e-02 2.691599999999999895e-02 2.614999999999999963e-02 -2.337900000000000048e-02 -1.252299999999999941e-02 -2.147599999999999856e-02 -6.092000000000000193e-03 -1.932000000000000037e-02 4.264999999999999694e-03 -9.296000000000000443e-03 8.083999999999999173e-03 1.761499999999999871e-02 2.132999999999999913e-03 2.120500000000000163e-02 2.191299999999999845e-02 -6.074999999999999671e-03 -3.577400000000000024e-02 -3.315999999999999937e-03 2.048699999999999827e-02 9.364000000000000795e-03 -1.911600000000000105e-02 -3.093800000000000022e-02 3.467100000000000043e-02 1.549900000000000062e-02 -1.206800000000000060e-02 1.067000000000000066e-02 -1.255900000000000072e-02 1.387099999999999965e-02 5.378499999999999948e-02 1.603000000000000041e-03 1.122699999999999913e-02 5.154999999999999860e-03 7.791000000000000182e-03 4.362100000000000005e-02 -2.012500000000000053e-02 3.487000000000000082e-03 -1.478999999999999933e-02 -4.457900000000000057e-02 2.323499999999999871e-02 4.826699999999999741e-02 2.752200000000000132e-02 1.943000000000000066e-03 -1.366000000000000027e-02 -2.927700000000000094e-02 2.154500000000000165e-02 -2.197400000000000048e-02 -7.179999999999999967e-04 -2.450499999999999901e-02 -2.106299999999999839e-02 -7.896000000000000241e-03 -1.084899999999999927e-02 -1.921300000000000091e-02 3.057599999999999901e-02 -1.189300000000000079e-02 -1.303699999999999998e-02 3.870699999999999835e-02 -4.581000000000000003e-03 -2.859199999999999936e-02 7.865000000000000463e-03 -1.119500000000000009e-02 2.775499999999999842e-02 -2.536899999999999919e-02 2.834800000000000167e-02 7.499999999999999722e-03 1.813700000000000034e-02 7.854999999999999136e-03 1.890999999999999973e-02 5.879999999999999810e-04 -8.299999999999999815e-05 -1.176100000000000062e-02 2.702699999999999894e-02 -4.297100000000000225e-02 -8.108999999999999889e-03 1.263000000000000060e-02 1.128000000000000096e-03 -7.803000000000000040e-03 -6.875000000000000035e-03 -1.826300000000000145e-02 -1.360699999999999930e-02 -7.659999999999999708e-04 5.634000000000000119e-03 -1.783699999999999869e-02 5.825999999999999582e-03 2.004399999999999932e-02 3.882000000000000034e-03 -6.608200000000000185e-02 -3.132999999999999934e-03 6.231000000000000427e-03 -5.818899999999999767e-02 1.074800000000000061e-02 1.651499999999999843e-02 5.429699999999999804e-02 -6.067800000000000277e-02 -3.458399999999999669e-02 -4.138599999999999918e-02 -3.715000000000000246e-02 1.430099999999999948e-02 1.744100000000000164e-02 -2.131100000000000008e-02 -2.469800000000000120e-02 3.147400000000000198e-02 -5.022000000000000075e-02 3.372499999999999803e-02 1.458899999999999954e-02 -1.740399999999999933e-02 -2.471999999999999892e-02 1.503700000000000002e-02 -6.920900000000000662e-02 -4.846999999999999746e-03 -7.718200000000000061e-02 -2.723000000000000073e-02 2.703399999999999900e-02 -4.367100000000000148e-02 -1.162900000000000045e-02 6.179999999999999730e-03 2.120400000000000063e-02 3.413700000000000068e-02 -1.173999999999999913e-03 -9.454000000000000598e-03 3.455600000000000338e-02 -4.262300000000000116e-02 -1.117899999999999970e-02 3.315400000000000291e-02 1.779999999999999898e-03 6.729999999999999871e-03 -1.299799999999999914e-02 1.773500000000000076e-02 7.394900000000000084e-02 6.644700000000000606e-02 4.624099999999999738e-02 -1.021579999999999988e-01 -2.927899999999999947e-02 3.848999999999999991e-03 -2.834400000000000114e-02 3.107800000000000146e-02 2.595899999999999944e-02 -9.280000000000000054e-03
1.197100000000000074e-02 -1.849599999999999855e-02 6.510199999999999321e-02 4.423400000000000248e-02 -4.045900000000000191e-02 -6.133999999999999696e-03 -1.481599999999999931e-02 4.246099999999999874e-02 4.281399999999999789e-02 3.602400000000000047e-02 -3.431000000000000022e-03 -2.649999999999999903e-04 4.374299999999999716e-02 4.986000000000000154e-02 9.825100000000000500e-02 2.115500000000000019e-02 1.161000000000000053e-02 -2.453200000000000172e-02 1.608300000000000007e-02 -1.060000000000000005e-02 2.479800000000000060e-02 -1.088500000000000058e-02 4.460800000000000182e-02 -4.449100000000000277e-02 5.350499999999999701e-02 -4.637100000000000249e-02 5.380599999999999966e-02 4.257400000000000073e-02 -4.661200000000000065e-02 -2.524900000000000061e-02 -5.308600000000000124e-02 -1.245699999999999932e-02 -3.890600000000000308e-02 -1.348000000000000023e-03 -1.842200000000000087e-02 1.614799999999999916e-02 2.520700000000000024e-02 4.096999999999999947e-03 4.220299999999999746e-02 3.423799999999999760e-02 -1.210199999999999991e-02 -7.155799999999999661e-02 -1.616700000000000081e-02 4.084200000000000330e-02 1.843799999999999953e-02 -4.806799999999999962e-02 -6.083600000000000119e-02 6.832599999999999785e-02 2.119800000000000156e-02 -2.395100000000000007e-02 2.131200000000000108e-02 -3.405500000000000194e-02 2.724599999999999939e-02 1.061219999999999941e-01 1.291400000000000013e-02 2.248299999999999951e-02 1.019699999999999947e-02 2.502499999999999863e-02 8.686299999999999577e-02 -3.949500000000000233e-02 1.651100000000000137e-02 -2.915500000000000036e-02 -8.834100000000000286e-02 5.583199999999999968e-02 9.700599999999999501e-02 5.565699999999999814e-02 1.374000000000000048e-02 -2.694399999999999920e-02 -5.818600000000000161e-02 5.297299999999999925e-02 -4.392499999999999877e-02 -1.124999999999999915e-03 -3.905299999999999744e-02 -4.182400000000000007e-02 -1.561700000000000067e-02 -1.174299999999999997e-02 -3.831500000000000183e-02 6.116699999999999915e-02 -1.408099999999999977e-02 -2.613100000000000145e-02 7.747500000000000220e-02 -8.840000000000000635e-03 -5.712600000000000317e-02 1.518300000000000032e-02 -2.213800000000000143e-02 5.520800000000000013e-02 -5.072900000000000326e-02 5.696999999999999981e-02 1.491199999999999991e-02 3.575899999999999912e-02 1.601100000000000093e-02 3.774500000000000077e-02 6.610000000000000207e-04 -9.999999999999999547e-07 -2.349400000000000099e-02 5.356400000000000050e-02 -8.585299999999999876e-02 -1.644299999999999928e-02 2.532799999999999982e-02 2.468000000000000142e-03 -1.558000000000000010e-02 -1.438700000000000048e-02 -3.612599999999999839e-02 -2.721499999999999961e-02 -2.190000000000000106e-03 1.165000000000000063e-02 -3.557899999999999952e-02 1.107400000000000051e-02 4.307300000000000018e-02 7.762999999999999935e-03 -1.311539999999999928e-01 -3.282000000000000195e-03 1.217200000000000053e-02 -1.157979999999999982e-01 2.420500000000000082e-02 3.255000000000000254e-02 1.079330000000000012e-01 -1.176399999999999946e-01 -6.933400000000000674e-02 -8.330400000000000305e-02 -7.095200000000000118e-02 2.819699999999999984e-02 3.462599999999999706e-02 -3.917999999999999955e-02 -4.901200000000000001e-02 6.233099999999999752e-02 -9.715600000000000624e-02 6.700200000000000600e-02 2.883399999999999852e-02 -3.162199999999999733e-02 -4.931800000000000073e-02 3.011099999999999888e-02 -1.341299999999999992e-01 -9.426000000000000351e-03 -1.526119999999999977e-01 -5.719599999999999684e-02 5.389800000000000146e-02 -8.714500000000000024e-02 -2.623500000000000137e-02 1.248200000000000004e-02 4.230400000000000132e-02 6.475699999999999512e-02 -2.298000000000000129e-03 -1.920600000000000085e-02 6.566199999999999815e-02 -8.476999999999999813e-02 -2.236000000000000140e-02 6.297600000000000420e-02 3.471000000000000127e-03 1.327000000000000055e-02 -2.850799999999999862e-02 3.558700000000000058e-02 1.475930000000000020e-01 1.289919999999999956e-01 9.224000000000000254e-02 -2.026360000000000106e-01 -6.108299999999999841e-02 7.766999999999999599e-03 -5.623899999999999733e-02 5.918099999999999750e-02 5.161999999999999922e-02 -1.871199999999999947e-02
1.795799999999999827e-02 -2.719799999999999995e-02 9.692499999999999727e-02 6.630700000000000482e-02 -6.038999999999999924e-02 -9.412999999999999493e-03 -2.231100000000000097e-02 6.299299999999999344e-02 6.326900000000000579e-02 5.356699999999999656e-02 -5.151000000000000197e-03 -1.359999999999999989e-04 6.356299999999999450e-02 7.356899999999999551e-02 1.453760000000000052e-01 3.145900000000000085e-02 1.729699999999999988e-02 -3.648400000000000254e-02 2.369100000000000025e-02 -1.592599999999999918e-02 3.712499999999999828e-02 -1.633099999999999830e-02 6.692199999999999538e-02 -6.630999999999999395e-02 7.935300000000000686e-02 -6.872699999999999643e-02 7.989899999999999780e-02 5.912499999999999700e-02 -6.953700000000000159e-02 -3.822199999999999903e-02 -8.480100000000000138e-02 -1.912799999999999917e-02 -5.872999999999999748e-02 -6.978999999999999961e-03 -2.745099999999999971e-02 2.402299999999999922e-02 3.252599999999999936e-02 5.727999999999999585e-03 6.275999999999999635e-02 4.668699999999999933e-02 -1.806299999999999920e-02 -1.072020000000000056e-01 -2.861999999999999961e-02 6.082800000000000012e-02 2.707700000000000037e-02 -7.694800000000000251e-02 -8.956400000000000472e-02 1.006330000000000002e-01 2.698700000000000057e-02 -3.561600000000000182e-02 3.169399999999999995e-02 -5.457800000000000151e-02 4.004699999999999926e-02 1.565509999999999957e-01 2.395600000000000160e-02 3.363100000000000117e-02 1.516699999999999993e-02 4.184500000000000025e-02 1.295159999999999922e-01 -5.785400000000000265e-02 2.914699999999999930e-02 -4.302600000000000174e-02 -1.310479999999999978e-01 8.788899999999999491e-02 1.459719999999999906e-01 8.437000000000000055e-02 2.549299999999999830e-02 -3.985099999999999754e-02 -8.644499999999999407e-02 8.419200000000000295e-02 -6.585299999999999487e-02 -1.129000000000000012e-03 -5.345199999999999951e-02 -6.217700000000000310e-02 -2.301599999999999827e-02 -1.270899999999999981e-02 -5.732600000000000195e-02 9.171500000000000485e-02 -1.638099999999999973e-02 -3.930399999999999866e-02 1.161049999999999999e-01 -1.301800000000000006e-02 -8.552099999999999980e-02 2.250399999999999970e-02 -3.315599999999999797e-02 8.231399999999999828e-02 -7.525900000000000645e-02 8.548699999999999355e-02 2.228199999999999972e-02 5.335399999999999865e-02 2.418500000000000164e-02 5.637999999999999956e-02 8.260000000000000198e-04 5.300000000000000078e-05 -3.515599999999999975e-02 8.018000000000000127e-02 -1.285630000000000106e-01 -2.479299999999999907e-02 3.858299999999999924e-02 3.673000000000000050e-03 -2.331300000000000039e-02 -2.198100000000000054e-02 -5.377799999999999941e-02 -4.076400000000000162e-02 -3.673000000000000050e-03 1.774200000000000083e-02 -5.308299999999999824e-02 1.629699999999999899e-02 6.594600000000000461e-02 1.159800000000000067e-02 -1.947460000000000024e-01 -3.523999999999999789e-03 1.780500000000000138e-02 -1.724890000000000034e-01 3.724299999999999833e-02 4.804100000000000037e-02 1.603819999999999968e-01 -1.735299999999999898e-01 -1.039709999999999940e-01 -1.255179999999999907e-01 -1.041109999999999952e-01 4.162699999999999734e-02 5.143899999999999861e-02 -5.648199999999999749e-02 -7.274700000000000610e-02 9.223199999999999454e-02 -1.435420000000000029e-01 9.966899999999999371e-02 4.258399999999999685e-02 -4.551899999999999696e-02 -7.356600000000000639e-02 4.496499999999999803e-02 -1.973840000000000039e-01 -1.372499999999999935e-02 -2.258080000000000087e-01 -8.662999999999999867e-02 8.044199999999999962e-02 -1.299109999999999987e-01 -4.071000000000000313e-02 1.900299999999999906e-02 6.323600000000000054e-02 9.463399999999999590e-02 -3.359000000000000007e-03 -2.902400000000000119e-02 9.614599999999999536e-02 -1.260799999999999976e-01 -3.325299999999999784e-02 9.225099999999999967e-02 5.076999999999999916e-03 1.974100000000000160e-02 -4.338499999999999995e-02 5.341499999999999720e-02 2.204659999999999953e-01 1.901899999999999979e-01 1.376650000000000096e-01 -3.004720000000000169e-01 -9.230199999999999516e-02 1.171299999999999945e-02 -8.330899999999999417e-02 8.705599999999999450e-02 7.690600000000000214e-02 -2.804800000000000001e-02
2.409100000000000130e-02 -3.547000000000000153e-02 1.277339999999999864e-01 8.831200000000000161e-02 -7.993200000000000305e-02 -1.306900000000000076e-02 -2.977499999999999938e-02 8.283999999999999697e-02 8.258799999999999475e-02 7.072000000000000508e-02 -6.834999999999999930e-03 7.999999999999999638e-06 8.189799999999999858e-02 9.638299999999999645e-02 1.907099999999999906e-01 4.155999999999999972e-02 2.279199999999999976e-02 -4.835699999999999721e-02 3.095499999999999988e-02 -2.122599999999999834e-02 4.903600000000000320e-02 -2.156699999999999937e-02 8.913899999999999602e-02 -8.783699999999999841e-02 1.044410000000000061e-01 -9.032500000000000251e-02 1.051249999999999962e-01 7.576399999999999801e-02 -9.195499999999999508e-02 -5.139400000000000218e-02 -1.164229999999999987e-01 -2.609600000000000114e-02 -7.867100000000000481e-02 -1.261299999999999921e-02 -3.636400000000000049e-02 3.165199999999999958e-02 3.952499999999999764e-02 6.930000000000000396e-03 8.278499999999999748e-02 5.913600000000000106e-02 -2.384800000000000114e-02 -1.424030000000000018e-01 -4.060799999999999826e-02 8.029100000000000126e-02 3.524399999999999755e-02 -1.056789999999999952e-01 -1.169300000000000062e-01 1.313789999999999958e-01 3.289799999999999669e-02 -4.699400000000000105e-02 4.173400000000000026e-02 -7.405899999999999983e-02 5.224999999999999784e-02 2.047519999999999896e-01 3.459199999999999775e-02 4.459400000000000169e-02 1.992999999999999980e-02 5.823600000000000304e-02 1.713780000000000026e-01 -7.514200000000000046e-02 4.131599999999999856e-02 -5.629699999999999982e-02 -1.725990000000000024e-01 1.192779999999999951e-01 1.949039999999999939e-01 1.134700000000000014e-01 3.717399999999999871e-02 -5.234899999999999970e-02 -1.139610000000000067e-01 1.149600000000000066e-01 -8.767199999999999993e-02 -8.019999999999999785e-04 -6.759600000000000330e-02 -8.200499999999999456e-02 -3.010900000000000035e-02 -1.394100000000000027e-02 -7.615900000000000447e-02 1.219549999999999940e-01 -1.875299999999999884e-02 -5.251600000000000018e-02 1.541939999999999977e-01 -1.708300000000000096e-02 -1.137029999999999985e-01 2.974999999999999867e-02 -4.427799999999999792e-02 1.089910000000000045e-01 -9.877900000000000569e-02 1.137500000000000039e-01 2.964599999999999874e-02 7.071800000000000308e-02 3.238499999999999712e-02 7.465900000000000314e-02 1.036000000000000029e-03 1.759999999999999954e-04 -4.669299999999999840e-02 1.067970000000000030e-01 -1.707069999999999976e-01 -3.292899999999999994e-02 5.223799999999999971e-02 4.669999999999999672e-03 -3.099999999999999978e-02 -2.974200000000000108e-02 -7.112100000000000366e-02 -5.419500000000000012e-02 -5.278999999999999838e-03 2.388399999999999898e-02 -7.022000000000000464e-02 2.137000000000000011e-02 8.846600000000000297e-02 1.532000000000000028e-02 -2.562519999999999798e-01 -3.913999999999999944e-03 2.308599999999999888e-02 -2.277550000000000130e-01 4.972700000000000037e-02 6.288100000000000633e-02 2.112229999999999941e-01 -2.279609999999999970e-01 -1.382190000000000085e-01 -1.676070000000000060e-01 -1.363370000000000137e-01 5.451000000000000290e-02 6.782499999999999640e-02 -7.307900000000000507e-02 -9.572300000000000253e-02 1.209530000000000050e-01 -1.890199999999999936e-01 1.314849999999999908e-01 5.580800000000000344e-02 -5.897899999999999671e-02 -9.724599999999999911e-02 5.945999999999999897e-02 -2.585680000000000200e-01 -1.775699999999999848e-02 -2.961770000000000236e-01 -1.152370000000000061e-01 1.064380000000000048e-01 -1.715589999999999893e-01 -5.491399999999999754e-02 2.576399999999999871e-02 8.382499999999999674e-02 1.235180000000000028e-01 -4.366000000000000089e-03 -3.879099999999999909e-02 1.258160000000000112e-01 -1.661849999999999994e-01 -4.373599999999999710e-02 1.207519999999999982e-01 6.564999999999999655e-03 2.611600000000000033e-02 -5.747200000000000225e-02 7.104800000000000004e-02 2.919450000000000101e-01 2.495699999999999863e-01 1.821170000000000011e-01 -3.948650000000000215e-01 -1.227410000000000029e-01 1.561399999999999941e-02 -1.093009999999999954e-01 1.144639999999999963e-01 1.016699999999999965e-01 -3.719399999999999790e-02
3.041400000000000006e-02 -4.326499999999999790e-02 1.573060000000000014e-01 1.101459999999999939e-01 -9.895199999999999829e-02 -1.709099999999999855e-02 -3.720500000000000196e-02 1.018379999999999980e-01 1.005719999999999947e-01 8.734200000000000297e-02 -8.451999999999999444e-03 1.949999999999999965e-04 9.864399999999999558e-02 1.182430000000000009e-01 2.341050000000000075e-01 5.140399999999999830e-02 2.799799999999999858e-02 -6.008800000000000252e-02 3.778999999999999720e-02 -2.649400000000000019e-02 6.042100000000000248e-02 -2.650399999999999978e-02 1.111820000000000030e-01 -1.089210000000000039e-01 1.285830000000000028e-01 -1.110399999999999998e-01 1.293839999999999990e-01 9.243300000000000127e-02 -1.136810000000000043e-01 -6.470599999999999963e-02 -1.477539999999999965e-01 -3.333200000000000052e-02 -9.856900000000000384e-02 -1.823899999999999827e-02 -4.516099999999999975e-02 3.897500000000000270e-02 4.618099999999999983e-02 7.628000000000000232e-03 1.021809999999999941e-01 7.146099999999999675e-02 -2.934399999999999856e-02 -1.768959999999999977e-01 -5.204799999999999705e-02 9.909199999999999953e-02 4.292499999999999788e-02 -1.341880000000000017e-01 -1.427889999999999993e-01 1.604230000000000100e-01 3.896999999999999770e-02 -5.803099999999999925e-02 5.137300000000000200e-02 -9.246799999999999464e-02 6.386000000000000010e-02 2.504660000000000220e-01 4.471900000000000180e-02 5.531200000000000006e-02 2.438299999999999843e-02 7.419699999999999906e-02 2.122699999999999865e-01 -9.129500000000000115e-02 5.296100000000000113e-02 -6.889900000000000191e-02 -2.128549999999999887e-01 1.498410000000000020e-01 2.435259999999999925e-01 1.427480000000000138e-01 4.873999999999999860e-02 -6.441900000000000404e-02 -1.406290000000000040e-01 1.450619999999999965e-01 -1.092989999999999934e-01 -2.020000000000000040e-04 -8.139499999999999513e-02 -1.012089999999999934e-01 -3.689100000000000018e-02 -1.561799999999999994e-02 -9.472600000000000464e-02 1.516599999999999893e-01 -2.117300000000000085e-02 -6.572899999999999576e-02 1.913630000000000053e-01 -2.100899999999999990e-02 -1.415939999999999976e-01 3.686099999999999793e-02 -5.553799999999999709e-02 1.351749999999999896e-01 -1.211440000000000017e-01 1.416159999999999919e-01 3.701999999999999735e-02 8.765699999999999881e-02 4.063100000000000045e-02 9.244900000000000340e-02 1.247999999999999977e-03 4.560000000000000251e-04 -5.804700000000000137e-02 1.333229999999999971e-01 -2.118790000000000118e-01 -4.062299999999999939e-02 6.608999999999999597e-02 5.377999999999999968e-03 -3.864000000000000073e-02 -3.776499999999999996e-02 -8.804399999999999726e-02 -6.746099999999999319e-02 -7.080000000000000356e-03 3.002700000000000161e-02 -8.685500000000000165e-02 2.615800000000000070e-02 1.104460000000000025e-01 1.887499999999999942e-02 -3.151180000000000092e-01 -4.507999999999999854e-03 2.799000000000000099e-02 -2.811040000000000205e-01 6.154199999999999948e-02 7.698000000000000675e-02 2.600459999999999994e-01 -2.805869999999999753e-01 -1.717930000000000013e-01 -2.091439999999999966e-01 -1.673650000000000138e-01 6.678900000000000114e-02 8.372300000000000575e-02 -8.884999999999999842e-02 -1.177860000000000018e-01 1.482809999999999961e-01 -2.332730000000000081e-01 1.622399999999999953e-01 6.846800000000000108e-02 -7.189099999999999657e-02 -1.201519999999999949e-01 7.347599999999999965e-02 -3.173349999999999782e-01 -2.153000000000000053e-02 -3.631420000000000203e-01 -1.427640000000000020e-01 1.316599999999999993e-01 -2.116919999999999913e-01 -6.872999999999999943e-02 3.278299999999999964e-02 1.038649999999999990e-01 1.511929999999999941e-01 -5.353000000000000119e-03 -4.840799999999999964e-02 1.545279999999999987e-01 -2.047480000000000133e-01 -5.368699999999999861e-02 1.482690000000000119e-01 7.912000000000000630e-03 3.235699999999999688e-02 -7.064700000000000146e-02 8.831500000000000461e-02 3.613770000000000038e-01 3.066869999999999874e-01 2.252079999999999915e-01 -4.850110000000000254e-01 -1.521990000000000010e-01 1.941000000000000017e-02 -1.339909999999999990e-01 1.411749999999999949e-01 1.257939999999999892e-01 -4.604599999999999665e-02
3.695999999999999980e-02 -5.054999999999999771e-02 1.854449999999999987e-01 1.317119999999999957e-01 -1.173320000000000057e-01 -2.145800000000000138e-02 -4.460299999999999682e-02 1.198329999999999951e-01 1.170550000000000063e-01 1.033120000000000011e-01 -9.971999999999999961e-03 4.670000000000000214e-04 1.137190000000000006e-01 1.391169999999999907e-01 2.754789999999999739e-01 6.092800000000000299e-02 3.282100000000000295e-02 -7.161399999999999710e-02 4.410599999999999937e-02 -3.170900000000000107e-02 7.118599999999999928e-02 -3.105799999999999880e-02 1.329790000000000139e-01 -1.293890000000000040e-01 1.516210000000000058e-01 -1.307689999999999964e-01 1.526379999999999959e-01 1.090890000000000054e-01 -1.345500000000000029e-01 -7.808900000000000563e-02 -1.785970000000000057e-01 -4.080899999999999805e-02 -1.182870000000000033e-01 -2.384800000000000114e-02 -5.382699999999999985e-02 4.594499999999999973e-02 5.247000000000000275e-02 7.740000000000000352e-03 1.208830000000000043e-01 8.352800000000000502e-02 -3.444400000000000239e-02 -2.104109999999999869e-01 -6.289200000000000346e-02 1.171019999999999978e-01 5.011399999999999882e-02 -1.624120000000000008e-01 -1.670159999999999978e-01 1.876450000000000062e-01 4.523400000000000337e-02 -6.867900000000000393e-02 6.053900000000000253e-02 -1.097849999999999937e-01 7.489200000000000024e-02 2.934840000000000226e-01 5.421900000000000330e-02 6.572000000000000064e-02 2.840799999999999922e-02 8.973000000000000420e-02 2.520169999999999910e-01 -1.062799999999999995e-01 6.402700000000000058e-02 -8.076300000000000145e-02 -2.517510000000000026e-01 1.794759999999999966e-01 2.915630000000000166e-01 1.719650000000000067e-01 6.016599999999999726e-02 -7.604500000000000148e-02 -1.663739999999999941e-01 1.742779999999999885e-01 -1.306599999999999984e-01 5.839999999999999922e-04 -9.475999999999999701e-02 -1.196920000000000067e-01 -4.337900000000000089e-02 -1.794300000000000062e-02 -1.129440000000000027e-01 1.805809999999999915e-01 -2.359199999999999839e-02 -7.891399999999999804e-02 2.272349999999999925e-01 -2.476799999999999835e-02 -1.691380000000000106e-01 4.376900000000000235e-02 -6.695399999999999963e-02 1.608110000000000095e-01 -1.422059999999999991e-01 1.689460000000000128e-01 4.444900000000000240e-02 1.039719999999999950e-01 4.893900000000000333e-02 1.096069999999999961e-01 1.417000000000000074e-03 9.899999999999999946e-04 -6.917199999999999738e-02 1.596859999999999946e-01 -2.516950000000000021e-01 -4.763799999999999979e-02 7.993300000000000405e-02 5.725000000000000054e-03 -4.622799999999999826e-02 -4.611599999999999727e-02 -1.044579999999999953e-01 -8.052199999999999636e-02 -9.131999999999999493e-03 3.613100000000000339e-02 -1.028670000000000001e-01 3.053799999999999917e-02 1.317069999999999907e-01 2.220000000000000098e-02 -3.708089999999999997e-01 -5.363999999999999845e-03 3.249599999999999711e-02 -3.320810000000000151e-01 7.258399999999999574e-02 9.025700000000000389e-02 3.064779999999999727e-01 -3.310750000000000082e-01 -2.044189999999999896e-01 -2.496929999999999983e-01 -1.969319999999999959e-01 7.840500000000000247e-02 9.908699999999999453e-02 -1.036880000000000024e-01 -1.387829999999999897e-01 1.740250000000000130e-01 -2.759829999999999783e-01 1.917329999999999868e-01 8.053599999999999648e-02 -8.415100000000000358e-02 -1.420849999999999891e-01 8.688700000000000589e-02 -3.733540000000000192e-01 -2.508099999999999913e-02 -4.262070000000000025e-01 -1.689539999999999931e-01 1.558990000000000098e-01 -2.499339999999999895e-01 -8.202900000000000469e-02 4.006200000000000039e-02 1.231779999999999958e-01 1.774600000000000066e-01 -6.329999999999999689e-03 -5.775999999999999884e-02 1.821319999999999883e-01 -2.414530000000000010e-01 -6.299000000000000432e-02 1.746020000000000072e-01 9.086000000000000326e-03 3.842799999999999688e-02 -8.278900000000000148e-02 1.050449999999999995e-01 4.281469999999999998e-01 3.611260000000000026e-01 2.665739999999999776e-01 -5.701929999999999499e-01 -1.805090000000000028e-01 2.302799999999999986e-02 -1.571710000000000051e-01 1.669660000000000033e-01 1.491550000000000098e-01 -5.449999999999999983e-02