-6.921973244847814399e-01 -1.107017764659035185e-16 0.000000000000000000e+00 -1.039822573839981057e-16 -6.921973244847813289e-01 0.000000000000000000e+00 0.000000000000000000e+00 0.000000000000000000e+00 -4.783302496740101106e-01
-5.882357986358430768e-01 -3.657049028959439424e-02 -3.753289314947454158e-02 -3.657049028959440812e-02 -6.036115760811542330e-01 4.240385775106970262e-02 -3.753289314947454158e-02 4.240385775106970262e-02 -2.296896579222469648e-01
-4.737192765988713083e-01 -7.331116905607822087e-02 -7.607111704271592167e-02 -7.331116905607820700e-02 -5.025793087595064046e-01 8.520021992651898024e-02 -7.607111704271592167e-02 8.520021992651898024e-02 3.708813481329936712e-02
-3.490559230943554025e-01 -1.099148000521782270e-01 -1.155454116761919225e-01 -1.099148000521782548e-01 -3.894880076929546076e-01 1.283282188501198018e-01 -1.155454116761919225e-01 1.283282188501198018e-01 3.190556073358625233e-01
-2.154971827729091349e-01 -1.461120864423004206e-01 -1.557636573352246256e-01 -1.461120864423004206e-01 -2.656540074329756251e-01 1.716142929692498487e-01 -1.557636573352246256e-01 1.716142929692498487e-01 6.135545656827144922e-01
-7.458350294480610432e-02 -1.815970033072810963e-01 -1.964999910570936204e-01 -1.815970033072810685e-01 -1.325567136745719743e-01 2.149071598470626010e-01 -1.964999910570936204e-01 2.149071598470626010e-01 9.176917375134712174e-01
7.239121158962295854e-02 -2.161195480917705858e-01 -2.375647157833258305e-01 -2.161195480917705858e-01 8.548082132623683119e-03 2.579928958630362534e-01 -2.375647157833258305e-01 2.579928958630362534e-01 1.229152504955825176e+00
2.227710155848878770e-01 -2.493338959880068706e-01 -2.786867611708917503e-01 -2.493338959880068706e-01 1.548191077873715127e-01 3.007985200599185283e-01 -2.786867611708917503e-01 3.007985200599185283e-01 1.542982139126868990e+00
3.750206316175618837e-01 -2.811033004963783277e-01 -3.196384907496235273e-01 -2.811033004963783277e-01 3.047537047556949097e-01 3.430673240930830481e-01 -3.196384907496235273e-01 3.430673240930830481e-01 1.856251201781963234e+00
5.271601270651252724e-01 -3.111457893208948722e-01 -3.601801547683293747e-01 -3.111457893208948722e-01 4.561546437186839720e-01 3.847444099574012233e-01 -3.601801547683293747e-01 3.847444099574012233e-01 2.165397351352010169e+00
-2.834825798560878241e+01 3.700569138490583665e+00 -4.144568101485426759e+00 3.700569138490583665e+00 -4.166939499629366139e+01 -7.093338435750293769e+00 -4.144568101485426759e+00 -7.093338435750293769e+00 -1.336431980043214729e+01
-2.841359738999078033e+01 3.638150036207552063e+00 -4.097391092093120690e+00 3.638150036207552063e+00 -4.170293136878499496e+01 -7.023967130405856629e+00 -4.097391092093120690e+00 -7.023967130405856629e+00 -1.351747551502881350e+01
-2.845924830602814382e+01 3.573828027395518525e+00 -4.043393764250329703e+00 3.573828027395518525e+00 -4.170607775878839618e+01 -6.943479836426650564e+00 -4.043393764250329703e+00 -6.943479836426650564e+00 -1.361098170417179176e+01
-2.848473971725329790e+01 3.507866881276323401e+00 -3.982858727837597979e+00 3.507866881276323401e+00 -4.167845735312980082e+01 -6.851876553812676462e+00 -3.982858727837597979e+00 -6.851876553812676462e+00 -1.364530938432865348e+01
-2.849037307420549681e+01 3.440586889047918540e+00 -3.916125114711579425e+00 3.440586889047918540e+00 -4.162069189354641452e+01 -6.749251485857447719e+00 -3.916125114711579425e+00 -6.749251485857447719e+00 -1.362060928076902400e+01
-2.847669475598711841e+01 3.372421385860473464e+00 -3.843513216070227223e+00 3.372421385860473464e+00 -4.153379877560818301e+01 -6.635661154537075390e+00 -3.843513216070227223e+00 -6.635661154537075390e+00 -1.353789878906286326e+01
-2.844425114170055835e+01 3.303690662911937803e+00 -3.765267960476677445e+00 3.303690662911937803e+00 -4.141870119159157326e+01 -6.511162081827666093e+00 -3.765267960476677445e+00 -6.511162081827666093e+00 -1.339817646412143226e+01
-2.839400310493966373e+01 3.234771533376372243e+00 -3.681596595176664710e+00 3.234771533376372243e+00 -4.127681219089929954e+01 -6.375735427070519101e+00 -3.681596595176664710e+00 -6.375735427070519101e+00 -1.320319448720410982e+01
-2.832674195336996092e+01 3.165908925816915964e+00 -3.592687526757218919e+00 3.165908925816915964e+00 -4.110931873502964606e+01 -6.229381190265633528e+00 -3.592687526757218919e+00 -6.229381190265633528e+00 -1.295457315495935369e+01
-2.824344740124400843e+01 3.097498494066331265e+00 -3.498521914559636681e+00 3.097498494066331265e+00 -4.091776575799627125e+01 -6.071892124167275639e+00 -3.498521914559636681e+00 -6.071892124167275639e+00 -1.265447914313800659e+01
-2.163522123099377126e+01 8.262411679430245570e+00 -1.218766462001095841e+00 8.262411679430245570e+00 -3.358353568955152468e+01 -1.592836357883557064e+01 -1.218766462001095841e+00 -1.592836357883557064e+01 -1.382807385491326890e+01
-2.142986638020530776e+01 8.288894007749069814e+00 -1.159185895536441802e+00 8.288894007749069814e+00 -3.341767071860616056e+01 -1.592299983273288788e+01 -1.159185895536441802e+00 -1.592299983273288788e+01 -1.330795868405024152e+01
-2.120262669775746289e+01 8.306611189997656908e+00 -1.093793046709645944e+00 8.306611189997656908e+00 -3.321715632161768639e+01 -1.589077997809516241e+01 -1.093793046709645944e+00 -1.589077997809516241e+01 -1.272759014233337460e+01
-2.095574486494752620e+01 8.315282891013842104e+00 -1.022288891347736817e+00 8.315282891013842104e+00 -3.298374926560229170e+01 -1.583155450283591392e+01 -1.022288891347736817e+00 -1.583155450283591392e+01 -1.209111719016265241e+01
-2.069101502681332505e+01 8.314853043765195295e+00 -9.448603195588212156e-01 8.314853043765195295e+00 -3.271881384834917128e+01 -1.574541685200919083e+01 -9.448603195588212156e-01 -1.574541685200919083e+01 -1.140253927585157356e+01
-2.041025001740350575e+01 8.305172136165229091e+00 -8.616755324401964566e-01 8.305172136165229091e+00 -3.242395732478805570e+01 -1.563244178165823683e+01 -8.616755324401964566e-01 -1.563244178165823683e+01 -1.066561289057309736e+01
-2.011535611582076655e+01 8.286165412170699796e+00 -7.729961761432126988e-01 8.286165412170699796e+00 -3.210099252896758060e+01 -1.549281618189116472e+01 -7.729961761432126988e-01 -1.549281618189116472e+01 -9.884187970554240366e+00
-1.980838911325428597e+01 8.257832871781610962e+00 -6.790838968192204339e-01 8.257832871781610962e+00 -3.175206869713096935e+01 -1.532676432083769846e+01 -6.790838968192204339e-01 -1.532676432083769846e+01 -9.062656433335522621e+00
-1.949162906902297365e+01 8.220155825987150777e+00 -5.803872307276775055e-01 8.220155825987150777e+00 -3.137933506552147733e+01 -1.513436095454108177e+01 -5.803872307276775055e-01 -1.513436095454108177e+01 -8.205410196457473049e+00
-1.916715046332681993e+01 8.173209030830559385e+00 -4.772986470956096516e-01 8.173209030830559385e+00 -3.098518382752287437e+01 -1.491581166212023213e+01 -4.772986470956096516e-01 -1.491581166212023213e+01 -7.316504775266021277e+00
-3.645447952681112014e+01 -7.323894875292280560e+00 -6.775441001716098199e+00 -7.323894875292280560e+00 -2.429840579344380913e+01 1.765475217709456146e+01 -6.775441001716098199e+00 1.765475217709456146e+01 -5.399793362726622803e+01
-3.628165666189310201e+01 -7.310304834258477769e+00 -6.721459918223391838e+00 -7.310304834258477769e+00 -2.424184696158206975e+01 1.765797436255585495e+01 -6.721459918223391838e+00 1.765797436255585495e+01 -5.366904326182891793e+01
-3.603481830152600196e+01 -7.292677584381997313e+00 -6.659006382370699306e+00 -7.292677584381997313e+00 -2.411820981002907516e+01 1.764127586025351135e+01 -6.659006382370699306e+00 1.764127586025351135e+01 -5.314564661872231000e+01
-3.571487423925180593e+01 -7.270880447437961358e+00 -6.588118302222270906e+00 -7.270880447437961358e+00 -2.392836622426258941e+01 1.760482725647665703e+01 -6.588118302222270906e+00 1.760482725647665703e+01 -5.243181881485334372e+01
-3.532248786619491909e+01 -7.244913423426371679e+00 -6.508852539874482979e+00 -7.244913423426371679e+00 -2.367292273331061736e+01 1.754849587300041946e+01 -6.508852539874482979e+00 1.754849587300041946e+01 -5.152979642601277988e+01
-3.485981994201761580e+01 -7.214700696218725895e+00 -6.421341773552211585e+00 -7.214700696218725895e+00 -2.335377474038569190e+01 1.747214903159992261e+01 -6.421341773552211585e+00 1.747214903159992261e+01 -5.044496239732419696e+01
-3.432897436428578430e+01 -7.180299127911400348e+00 -6.325699727448209408e+00 -7.180299127911400348e+00 -2.297270392450757370e+01 1.737557823792178269e+01 -6.325699727448209408e+00 1.737557823792178269e+01 -4.918313561665004841e+01
-3.373302168620373465e+01 -7.141689764472269886e+00 -6.222153849947979154e+00 -7.141689764472269886e+00 -2.253236385017380883e+01 1.725848022745199728e+01 -6.222153849947979154e+00 1.725848022745199728e+01 -4.775240945570781292e+01
-3.307596120854987731e+01 -7.099156916383212668e+00 -6.111064267661898697e+00 -7.099156916383212668e+00 -2.203612833510268487e+01 1.712104454051182501e+01 -6.111064267661898697e+00 1.712104454051182501e+01 -4.616396679345138665e+01
-3.236215235871303264e+01 -7.052378365098100232e+00 -5.992620520911223103e+00 -7.052378365098100232e+00 -2.148765550749437736e+01 1.696249406178412045e+01 -5.992620520911223103e+00 1.696249406178412045e+01 -4.442521865644174994e+01
5.949022554264774776e+00 7.335885034299013618e+00 2.890219605515200740e+01 7.335885034299013618e+00 -1.186050922704198030e+01 9.206242840814345740e+00 2.890219605515200740e+01 9.206242840814345740e+00 3.419259189351673456e+01
5.810309263119068035e+00 7.262345716053193456e+00 2.872259353287574868e+01 7.262345716053193456e+00 -1.189022062602925800e+01 8.997361609827324358e+00 2.872259353287574868e+01 8.997361609827324358e+00 3.395335022812766823e+01
5.611379908491863411e+00 7.174725935059155013e+00 2.847361633626512045e+01 7.174725935059155013e+00 -1.195438498828394636e+01 8.766917980060698667e+00 2.847361633626512045e+01 8.766917980060698667e+00 3.357580993310788386e+01
5.354379913004205349e+00 7.074269675861875051e+00 2.815694114014160121e+01 7.074269675861875051e+00 -1.205274991114474403e+01 8.515813389590540794e+00 2.815694114014160121e+01 8.515813389590540794e+00 3.306197220098626133e+01
5.041040037762150483e+00 6.962365153098502013e+00 2.777478548217233723e+01 6.962365153098502013e+00 -1.218533342337316938e+01 8.245490139338564006e+00 2.777478548217233723e+01 8.245490139338564006e+00 3.241520841016730259e+01
4.673217245202403447e+00 6.840652984067482123e+00 2.732996184915466387e+01 6.840652984067482123e+00 -1.235231581258444322e+01 7.957678990410820496e+00 2.732996184915466387e+01 7.957678990410820496e+00 3.163928657180898441e+01
4.253020900422969319e+00 6.710954073682479759e+00 2.682584161949307600e+01 6.710954073682479759e+00 -1.255391342391681597e+01 7.654345077813148102e+00 2.682584161949307600e+01 7.654345077813148102e+00 3.073826315725362335e+01
3.782794742421629941e+00 6.575161441903241588e+00 2.626619280434556103e+01 6.575161441903241588e+00 -1.279027048746246287e+01 7.337543680358982634e+00 2.626619280434556103e+01 7.337543680358982634e+00 2.971715016220417027e+01
3.265261114188119151e+00 6.435348396304729768e+00 2.565512596133898882e+01 6.435348396304729768e+00 -1.306122474436768854e+01 7.009402191907852853e+00 2.565512596133898882e+01 7.009402191907852853e+00 2.858151847397073908e+01
2.703376732611946220e+00 6.293498100654299598e+00 2.499705813704610691e+01 6.293498100654299598e+00 -1.336677619463249655e+01 6.672174207649932853e+00 2.499705813704610691e+01 6.672174207649932853e+00 2.733760604403973815e+01
9.270159925692238900e+00 -5.133569506982619046e+00 -1.519807475977877242e+00 -5.133569506982619046e+00 -1.594696225419049362e+01 2.564487441612316676e+00 -1.519807475977877242e+00 2.564487441612316676e+00 1.272426782564196124e+01
9.267175229156540794e+00 -5.102709553710483625e+00 -1.586085828140306075e+00 -5.102709553710483625e+00 -1.601134125401202368e+01 2.744962092137576803e+00 -1.586085828140306075e+00 2.744962092137576803e+00 1.261944166549423407e+01
9.240620474523776551e+00 -5.064161745725185071e+00 -1.646648034210123512e+00 -5.064161745725185071e+00 -1.607112563007556716e+01 2.918997033773692351e+00 -1.646648034210123512e+00 2.918997033773692351e+00 1.247382465269195428e+01
9.190965977611694981e+00 -5.018251686285161384e+00 -1.701638806746636368e+00 -5.018251686285161384e+00 -1.612600786819260179e+01 3.086718890010056615e+00 -1.701638806746636368e+00 3.086718890010056615e+00 1.228823079538122265e+01
9.117488175623764235e+00 -4.965413513068334339e+00 -1.751148591099411345e+00 -4.965413513068334339e+00 -1.617660299674017566e+01 3.248001037357277188e+00 -1.751148591099411345e+00 3.248001037357277188e+00 1.206224404495403135e+01
9.019553951113012502e+00 -4.906189898172103270e+00 -1.795448723317148332e+00 -4.906189898172103270e+00 -1.622372502386439308e+01 3.402771119535699551e+00 -1.795448723317148332e+00 3.402771119535699551e+00 1.179555688722185813e+01
8.896150316164298744e+00 -4.841105424623953546e+00 -1.834810539448547440e+00 -4.841105424623953546e+00 -1.626873062980874707e+01 3.551101492824978223e+00 -1.834810539448547440e+00 3.551101492824978223e+00 1.148712015612972692e+01
8.746336639142127112e+00 -4.770775120800939462e+00 -1.869541553682134261e+00 -4.770775120800939462e+00 -1.631310311830613813e+01 3.693082602574679019e+00 -1.869541553682134261e+00 3.693082602574679019e+00 1.113583041841292243e+01
8.569027575851698941e+00 -4.695777836940287386e+00 -1.900003547416176275e+00 -4.695777836940287386e+00 -1.635866948541780985e+01 3.828913428553848419e+00 -1.900003547416176275e+00 3.828913428553848419e+00 1.074036717196777602e+01
8.363173960238043492e+00 -4.616746690488963800e+00 -1.926594480188766223e+00 -4.616746690488963800e+00 -1.640725672720500228e+01 3.958756772391707646e+00 -1.926594480188766223e+00 3.958756772391707646e+00 1.029910240050208614e+01
3.162315069527717881e+01 3.400196837505221836e+00 1.585424814442722585e+01 3.400196837505221836e+00 1.166425857068258587e+01 -1.304213745110602929e+01 1.585424814442722585e+01 -1.304213745110602929e+01 -8.168921801210348832e+00
3.151933425701924918e+01 3.323793900718581273e+00 1.573891626121469400e+01 3.323793900718581273e+00 1.182675232244571895e+01 -1.306877024444480107e+01 1.573891626121469400e+01 -1.306877024444480107e+01 -8.104619840477699455e+00
3.143070614061208445e+01 3.248686229697250738e+00 1.559216087566840869e+01 3.248686229697250738e+00 1.201619824814728865e+01 -1.307230117440776773e+01 1.559216087566840869e+01 -1.307230117440776773e+01 -7.994894861125961150e+00
3.135763895675528090e+01 3.175335151974080450e+00 1.541456751888775756e+01 3.175335151974080450e+00 1.223183338302142786e+01 -1.305225117009543645e+01 1.541456751888775756e+01 -1.305225117009543645e+01 -7.840421111087762185e+00
3.130032788248197662e+01 3.104113278248679553e+00 1.520689915563860772e+01 3.104113278248679553e+00 1.247181241693673392e+01 -1.300822987744154524e+01 1.520689915563860772e+01 -1.300822987744154524e+01 -7.642830980094721838e+00
3.125861322749233295e+01 3.035481936053899155e+00 1.497002521088671578e+01 3.035481936053899155e+00 1.273388194232890314e+01 -1.293991791584642925e+01 1.497002521088671578e+01 -1.293991791584642925e+01 -7.404306902244557342e+00
3.123205140762015830e+01 2.969778249356052058e+00 1.470483285296448273e+01 2.969778249356052058e+00 1.301562886133379493e+01 -1.284704913481036925e+01 1.470483285296448273e+01 -1.284704913481036925e+01 -7.127528125901128497e+00
3.122000366166611229e+01 2.907339342121451953e+00 1.441215602010437280e+01 2.907339342121451953e+00 1.331433843885425361e+01 -1.272944610066688220e+01 1.441215602010437280e+01 -1.272944610066688220e+01 -6.815617483594497372e+00
3.122167153813103369e+01 2.848378134749876001e+00 1.409282865053884493e+01 2.848378134749876001e+00 1.362731368315976965e+01 -1.258686040628289682e+01 1.409282865053884493e+01 -1.258686040628289682e+01 -6.471910728254504086e+00
3.123613238194921493e+01 2.793054317541157072e+00 1.374747176210057908e+01 2.793054317541157072e+00 1.395173339895329612e+01 -1.241907913125863416e+01 1.374747176210057908e+01 -1.241907913125863416e+01 -6.100045250044004774e+00
-3.239438757555576132e+01 -1.615196965208817304e+01 2.029941860602171300e+00 -1.615196965208817304e+01 -2.091710492598364723e+01 -7.434697160269086780e+00 2.029941860602171300e+00 -7.434697160269086780e+00 -4.774881075136605801e+01
-3.225308099491529390e+01 -1.610563375639609163e+01 2.035538347393772707e+00 -1.610563375639609163e+01 -2.086602049604414688e+01 -7.411255983269920300e+00 2.035538347393772707e+00 -7.411255983269920300e+00 -4.748268555622199472e+01
-3.204885633549651658e+01 -1.605096908238115816e+01 2.037083505363170843e+00 -1.605096908238115816e+01 -2.075181071003775912e+01 -7.379241063879582008e+00 2.037083505363170843e+00 -7.379241063879582008e+00 -4.704627264681630550e+01
-3.178233542916516896e+01 -1.598778719614466048e+01 2.034294683662305481e+00 -1.598778719614466048e+01 -2.057462631508345652e+01 -7.338520498368973577e+00 2.034294683662305481e+00 -7.338520498368973577e+00 -4.644181438654361216e+01
-3.145468656609323332e+01 -1.591620115802582447e+01 2.027058821951952083e+00 -1.591620115802582447e+01 -2.033554138440386438e+01 -7.289339250806415649e+00 2.027058821951952083e+00 -7.289339250806415649e+00 -4.567206191032503426e+01
-3.106720994018178672e+01 -1.583626749819426571e+01 2.015244016503015878e+00 -1.583626749819426571e+01 -2.003566767800136006e+01 -7.231735007971649587e+00 2.015244016503015878e+00 -7.231735007971649587e+00 -4.474029396799807756e+01
-3.062178989041790089e+01 -1.574806159020946517e+01 1.998699520196530965e+00 -1.574806159020946517e+01 -1.967666341418455644e+01 -7.165820830203899483e+00 1.998699520196530965e+00 -7.165820830203899483e+00 -4.365110834669118844e+01
-3.012074415375567682e+01 -1.565182839813973814e+01 1.977331116083143936e+00 -1.565182839813973814e+01 -1.926069558278859617e+01 -7.091577874113295543e+00 1.977331116083143936e+00 -7.091577874113295543e+00 -4.241008268980611007e+01
-2.956625856342010650e+01 -1.554794478978250361e+01 1.951101117383113204e+00 -1.554794478978250361e+01 -1.878981811330937646e+01 -7.009439537666862563e+00 1.951101117383113204e+00 -7.009439537666862563e+00 -4.102454707600254835e+01
-2.896212064077521831e+01 -1.543633539157827883e+01 1.919915307147084915e+00 -1.543633539157827883e+01 -1.826770546677169449e+01 -6.918783988998868040e+00 1.919915307147084915e+00 -6.918783988998868040e+00 -3.950043717308975744e+01
-5.627653978023194270e+01 -7.160869444848063647e-01 1.617235241834451998e+01 -7.160869444848063647e-01 -5.100874076906592336e+01 -8.883799931737783595e+00 1.617235241834451998e+01 -8.883799931737783595e+00 -6.183872618671404808e+01
-5.627216720702387676e+01 -7.781423472903128413e-01 1.617088838713646481e+01 -7.781423472903128413e-01 -5.108102486991171531e+01 -8.889519413657259506e+00 1.617088838713646481e+01 -8.889519413657259506e+00 -6.195967468491566166e+01
-5.619703312542639395e+01 -8.394169334515223513e-01 1.615535013591495073e+01 -8.394169334515223513e-01 -5.108051733909292125e+01 -8.887450249549871728e+00 1.615535013591495073e+01 -8.887450249549871728e+00 -6.186829961711680426e+01
-5.605082520878178087e+01 -8.997350192234678801e-01 1.612536677677394792e+01 -8.997350192234678801e-01 -5.100680824787128387e+01 -8.877221551509579811e+00 1.612536677677394792e+01 -8.877221551509579811e+00 -6.156594789202888052e+01
-5.583395338582827350e+01 -9.590380433578273855e-01 1.608039173806243838e+01 -9.590380433578273855e-01 -5.086036608623337685e+01 -8.858560033710881854e+00 1.608039173806243838e+01 -8.858560033710881854e+00 -6.105375169378613975e+01
-5.554745223861959147e+01 -1.017033199612989325e+00 1.601989796854552495e+01 -1.017033199612989325e+00 -5.064189358915906780e+01 -8.831036246999412143e+00 1.601989796854552495e+01 -8.831036246999412143e+00 -6.033385826816039099e+01
-5.519233682879329450e+01 -1.073544804243986794e+00 1.594312417199502008e+01 -1.073544804243986794e+00 -5.035236677745373157e+01 -8.794181701388591677e+00 1.594312417199502008e+01 -8.794181701388591677e+00 -5.940929327964826712e+01
-5.476999310589303605e+01 -1.128338612257530960e+00 1.584932857259883932e+01 -1.128338612257530960e+00 -4.999297639649991254e+01 -8.747527906891845006e+00 1.584932857259883932e+01 -8.747527906891845006e+00 -5.828374608689409797e+01
-5.428211934612014744e+01 -1.180946133667043263e+00 1.573769131288046985e+01 -1.180946133667043263e+00 -4.956540120208286027e+01 -8.690606373522591355e+00 1.573769131288046985e+01 -8.690606373522591355e+00 -5.696240912058244987e+01
-5.373111656065584185e+01 -1.231113603063127560e+00 1.560745109661172592e+01 -1.231113603063127560e+00 -4.907174939914217049e+01 -8.622831488797608301e+00 1.560745109661172592e+01 -8.622831488797608301e+00 -5.545133370970662412e+01
1.983259656710016694e+00 -4.967475325553430743e+00 -1.024154554406637452e+01 -4.967475325553430743e+00 -1.172708245211360811e+01 1.495883624666679701e+01 -1.024154554406637452e+01 1.495883624666679701e+01 1.453501602718669972e+01
1.979561811246865810e+00 -4.942786769078861830e+00 -1.020485711653001104e+01 -4.942786769078861830e+00 -1.169681087405742126e+01 1.487657731180512855e+01 -1.020485711653001104e+01 1.487657731180512855e+01 1.456729966821548494e+01
1.956722177503872340e+00 -4.911971390219267874e+00 -1.014686982419363304e+01 -4.911971390219267874e+00 -1.167306490564208588e+01 1.476348487139041765e+01 -1.014686982419363304e+01 1.476348487139041765e+01 1.454928173492934462e+01
1.915230176204101742e+00 -4.875427976230478855e+00 -1.006772868060481940e+01 -4.875427976230478855e+00 -1.165613457396275621e+01 1.461993958598504939e+01 -1.006772868060481940e+01 1.461993958598504939e+01 1.448112536756930346e+01
1.854922667106531531e+00 -4.833591567755219032e+00 -9.967778092939052925e+00 -4.833591567755219032e+00 -1.164683558022453624e+01 1.444661214324655951e+01 -9.967778092939052925e+00 1.444661214324655951e+01 1.436230489202539928e+01
1.775364609568438778e+00 -4.786951585516550978e+00 -9.847380595065274633e+00 -4.786951585516550978e+00 -1.164647304635560054e+01 1.424417323083247489e+01 -9.847380595065274633e+00 1.424417323083247489e+01 1.419207711386631310e+01
1.676229723107780734e+00 -4.735997450237539930e+00 -9.706916847545866034e+00 -4.735997450237539930e+00 -1.165629771420377736e+01 1.401338416986756208e+01 -9.706916847545866034e+00 1.401338416986756208e+01 1.396995261236898145e+01
1.556792939986684221e+00 -4.681291089415037021e+00 -9.546821891023553164e+00 -4.681291089415037021e+00 -1.167790473279238661e+01 1.375495190139625024e+01 -9.546821891023553164e+00 1.375495190139625024e+01 1.369502505286106420e+01
1.416347319160723206e+00 -4.623321923772107489e+00 -9.367494512754163338e+00 -4.623321923772107489e+00 -1.171290737783819580e+01 1.346963774654330415e+01 -9.367494512754163338e+00 1.346963774654330415e+01 1.336642435405711282e+01
1.254167792892025179e+00 -4.562651880805601579e+00 -9.169351626686975010e+00 -4.562651880805601579e+00 -1.176290079836452662e+01 1.315803988619246923e+01 -9.169351626686975010e+00 1.315803988619246923e+01 1.298324418128478364e+01
-1.851776713170204403e+01 7.827152644689339134e+00 -4.637533196410379421e-01 7.827152644689339134e+00 -2.439110510546363386e+01 1.538031807924080496e+01 -4.637533196410379421e-01 1.538031807924080496e+01 -7.565559608841966543e+00
-1.853134699680658670e+01 7.832951413826750198e+00 -5.386185786962246480e-01 7.832951413826750198e+00 -2.438845582755101304e+01 1.531864363049180255e+01 -5.386185786962246480e-01 1.531864363049180255e+01 -7.598388423255673096e+00
-1.852734529030920640e+01 7.829727816926081552e+00 -6.168556460038350231e-01 7.829727816926081552e+00 -2.436535338309622034e+01 1.523344062965171197e+01 -6.168556460038350231e-01 1.523344062965171197e+01 -7.589921849786675168e+00
-1.850557674802020358e+01 7.817741223852904930e+00 -6.982607309552061325e-01 7.817741223852904930e+00 -2.432181629851822535e+01 1.512467202388259579e+01 -6.982607309552061325e-01 1.512467202388259579e+01 -7.541586422695613301e+00
-1.846683800595527458e+01 7.797176898796914557e+00 -7.824633051709507514e-01 7.797176898796914557e+00 -2.425890057969827396e+01 1.499226370750857562e+01 -7.824633051709507514e-01 1.499226370750857562e+01 -7.454771623405188841e+00
-1.841229622850947223e+01 7.768349790880590078e+00 -8.689075760819878758e-01 7.768349790880590078e+00 -2.417769928535556545e+01 1.483616010127274087e+01 -8.689075760819878758e-01 1.483616010127274087e+01 -7.331218935298522865e+00
-1.834315563291582052e+01 7.731611902064345898e+00 -9.570192247002674568e-01 7.731611902064345898e+00 -2.407976863468352491e+01 1.465612036172849209e+01 -9.570192247002674568e-01 1.465612036172849209e+01 -7.173299740003691305e+00
-1.826080570059701103e+01 7.687370813565512329e+00 -1.046149826361862045e+00 7.687370813565512329e+00 -2.396659074119969901e+01 1.445184806617232098e+01 -1.046149826361862045e+00 1.445184806617232098e+01 -6.983496577662591243e+00
-1.816674707148956358e+01 7.636052633020383951e+00 -1.135521271470058213e+00 7.636052633020383951e+00 -2.383990708828721239e+01 1.422295415980586952e+01 -1.135521271470058213e+00 1.422295415980586952e+01 -6.764606937539594078e+00
-1.806251743836794077e+01 7.578083468065254458e+00 -1.224503661779897890e+00 7.578083468065254458e+00 -2.370132947439639182e+01 1.396880874438417841e+01 -1.224503661779897890e+00 1.396880874438417841e+01 -6.519298623966288453e+00
-2.571745623077598353e+00 6.668522226471473857e+00 -1.743523493850518236e+01 6.668522226471473857e+00 3.422563356707723159e+01 6.955876103662800958e+00 -1.743523493850518236e+01 6.955876103662800958e+00 3.836060266254383322e+01
-2.831104633335468357e+00 6.667143691357326318e+00 -1.735192193173478259e+01 6.667143691357326318e+00 3.391155731690397346e+01 6.972330157397046868e+00 -1.735192193173478259e+01 6.972330157397046868e+00 3.762686851127529764e+01
-3.119324513354913009e+00 6.658006477844323534e+00 -1.723792768191104940e+01 6.658006477844323534e+00 3.351107519271702984e+01 6.967752713876993909e+00 -1.723792768191104940e+01 6.967752713876993909e+00 3.673200481339544865e+01
-3.433789581124472967e+00 6.640916177134315923e+00 -1.709298708612741535e+01 6.640916177134315923e+00 3.302821675869623164e+01 6.941454505545565645e+00 -1.709298708612741535e+01 6.941454505545565645e+00 3.568424743253496700e+01
-3.773775222032864196e+00 6.615961156862826265e+00 -1.691717083849230363e+01 6.615961156862826265e+00 3.246660508789797461e+01 6.892940673643837890e+00 -1.691717083849230363e+01 6.892940673643837890e+00 3.449017092077671265e+01
-4.138609842050119170e+00 6.583388846409316209e+00 -1.671056730664123080e+01 6.583388846409316209e+00 3.183055252093576115e+01 6.822052156427870884e+00 -1.671056730664123080e+01 6.822052156427870884e+00 3.315689770954376314e+01
-4.527710214781790476e+00 6.543499695734563026e+00 -1.647354763464339200e+01 6.543499695734563026e+00 3.112506066598014343e+01 6.728983362695813319e+00 -1.647354763464339200e+01 6.728983362695813319e+00 3.169285807126495769e+01
-4.940351725616595857e+00 6.496876931233011021e+00 -1.620650064009508284e+01 6.496876931233011021e+00 3.035589109286717502e+01 6.614335192369216188e+00 -1.620650064009508284e+01 6.614335192369216188e+00 3.010754268999538397e+01
-5.376251598120862951e+00 6.444209820461737515e+00 -1.591023930524311147e+01 6.444209820461737515e+00 2.952910582139369566e+01 6.478867607113572014e+00 -1.591023930524311147e+01 6.478867607113572014e+00 2.841086641444064043e+01
-5.834420114776741606e+00 6.386346692721753371e+00 -1.558562963291559633e+01 6.386346692721753371e+00 2.865163287418462801e+01 6.323870774407505557e+00 -1.558562963291559633e+01 6.323870774407505557e+00 2.661442307838125743e+01
1.539192447084889004e+00 -1.139957298616369918e+01 2.748867383655709151e+00 -1.139957298616369918e+01 -1.058914583362740025e+00 -1.672378533065552020e+01 2.748867383655709151e+00 -1.672378533065552020e+01 7.733273256746414859e+00
1.535907199924463784e+00 -1.146109014178308882e+01 2.740979180308974250e+00 -1.146109014178308882e+01 -1.123807240185423106e+00 -1.655946882020854360e+01 2.740979180308974250e+00 -1.655946882020854360e+01 7.630546105153123371e+00
1.525870950357450795e+00 -1.150988147735797362e+01 2.725184722806930360e+00 -1.150988147735797362e+01 -1.188573541348089568e+00 -1.636867177358385561e+01 2.725184722806930360e+00 -1.636867177358385561e+01 7.505345696885492579e+00
1.509029545958128660e+00 -1.154573038318546985e+01 2.700996639318085979e+00 -1.154573038318546985e+01 -1.252310946422051652e+00 -1.615134003835573040e+01 2.700996639318085979e+00 -1.615134003835573040e+01 7.357888641646410655e+00
1.484191633360628870e+00 -1.156838414794554382e+01 2.667909507202375963e+00 -1.156838414794554382e+01 -1.315506827238800636e+00 -1.590761802099276423e+01 2.667909507202375963e+00 -1.590761802099276423e+01 7.187182144964322283e+00
1.450256113241951805e+00 -1.157764421274388589e+01 2.625526208671177031e+00 -1.157764421274388589e+01 -1.378684657246975975e+00 -1.563750572149495355e+01 2.625526208671177031e+00 -1.563750572149495355e+01 6.992450022070551441e+00
1.405941378193360292e+00 -1.157336617111190336e+01 2.573449625935866791e+00 -1.157336617111190336e+01 -1.442638672023823121e+00 -1.534089483501085738e+01 2.573449625935866791e+00 -1.534089483501085738e+01 6.772392614747790418e+00
1.349857515954674181e+00 -1.155551392143244982e+01 2.511354844442117429e+00 -1.155551392143244982e+01 -1.508415818466620761e+00 -1.501756875183759199e+01 2.511354844442117429e+00 -1.501756875183759199e+01 6.525692213970152089e+00
1.280740969925730610e+00 -1.152417771774839395e+01 2.438989152869896149e+00 -1.152417771774839395e+01 -1.577008891046925321e+00 -1.466718450661224971e+01 2.438989152869896149e+00 -1.466718450661224971e+01 6.251067212328901057e+00
1.197147675420627611e+00 -1.147944781410260617e+01 2.356153992324891089e+00 -1.147944781410260617e+01 -1.649916106876359700e+00 -1.428929082912049253e+01 2.356153992324891089e+00 -1.428929082912049253e+01 5.946820833818102336e+00