-3.436041922100000079e+02
-3.436020323600000097e+02
-3.435943382699999802e+02
-3.435813186600000222e+02
-3.435633200899999906e+02
-3.435408135100000209e+02
-3.435143653399999835e+02
-3.434846213700000135e+02
-3.434522726199999738e+02
-3.434180329700000129e+02
-3.422762946700000271e+02
-3.422828506700000162e+02
-3.422875877500000001e+02
-3.422904625300000134e+02
-3.422915137300000197e+02
-3.422908543500000178e+02
-3.422886786199999847e+02
-3.422852437600000144e+02
-3.422808609599999841e+02
-3.422758874500000275e+02
-3.420348541100000261e+02
-3.420351123799999868e+02
-3.420360000200000172e+02
-3.420375499400000194e+02
-3.420398637999999778e+02
-3.420430960799999980e+02
-3.420474404099999788e+02
-3.420531111700000224e+02
-3.420603247600000145e+02
-3.420692788900000210e+02
-3.430781350099999827e+02
-3.430727679699999726e+02
-3.430624797300000068e+02
-3.430475014699999861e+02
-3.430282047700000021e+02
-3.430050834499999723e+02
-3.429787296200000242e+02
-3.429498115100000177e+02
-3.429190465500000187e+02
-3.428871769400000176e+02
-3.427315431100000183e+02
-3.427261750800000186e+02
-3.427169850000000224e+02
-3.427042053299999793e+02
-3.426881602000000271e+02
-3.426692496200000164e+02
-3.426479420000000005e+02
-3.426247410700000273e+02
-3.426001833600000168e+02
-3.425748040299999957e+02
-3.410732374699999809e+02
-3.410930421300000148e+02
-3.411177922400000284e+02
-3.411473029599999904e+02
-3.411814236100000244e+02
-3.412199919700000237e+02
-3.412628262599999971e+02
-3.413096779300000208e+02
-3.413602072300000145e+02
-3.414139679599999795e+02
-3.431889017400000057e+02
-3.431860551799999826e+02
-3.431789763400000197e+02
-3.431678691600000093e+02
-3.431530558300000280e+02
-3.431349570699999845e+02
-3.431140789300000051e+02
-3.430909882299999936e+02
-3.430662908300000140e+02
-3.430406150800000091e+02
-3.426038430500000231e+02
-3.426019234999999981e+02
-3.425965392900000097e+02
-3.425878265700000043e+02
-3.425760303100000215e+02
-3.425614972700000180e+02
-3.425446528599999851e+02
-3.425259933500000216e+02
-3.425060649700000113e+02
-3.424854503799999748e+02
-3.423651950400000032e+02
-3.423667388200000232e+02
-3.423664262300000019e+02
-3.423643287799999939e+02
-3.423605765199999951e+02
-3.423553540300000009e+02
-3.423488912299999924e+02
-3.423414636800000039e+02
-3.423333695000000034e+02
-3.423249299199999882e+02
-3.434203702699999781e+02
-3.434150864800000136e+02
-3.434052413200000160e+02
-3.433911251600000014e+02
-3.433731336299999839e+02
-3.433517673499999887e+02
-3.433276003400000036e+02
-3.433012540400000034e+02
-3.432733801800000037e+02
-3.432446314100000109e+02
-3.427521130100000164e+02
-3.427483623200000125e+02
-3.427419762600000013e+02
-3.427331558299999870e+02
-3.427222122599999921e+02
-3.427095522199999778e+02
-3.426956616699999927e+02
-3.426810739399999761e+02
-3.426663563700000168e+02
-3.426520771699999841e+02
-3.422257528800000159e+02
-3.422304754499999717e+02
-3.422354720999999813e+02
-3.422406103600000051e+02
-3.422458492399999841e+02
-3.422512445500000240e+02
-3.422569350800000052e+02
-3.422631240900000194e+02
-3.422700573500000019e+02
-3.422780049099999928e+02
-3.428847914199999991e+02
-3.428827534399999877e+02
-3.428769762399999763e+02
-3.428676433100000054e+02
-3.428550523600000020e+02
-3.428396055499999875e+02
-3.428217877600000065e+02
-3.428021436500000050e+02
-3.427812582299999917e+02
-3.427597316900000237e+02
-3.422918416900000125e+02
-3.422921401599999740e+02
-3.422916197000000125e+02
-3.422904012999999850e+02
-3.422886535499999923e+02
-3.422865804599999819e+02
-3.422844145199999843e+02
-3.422824092600000085e+02
-3.422808303099999989e+02
-3.422799409699999842e+02
-3.429793841700000030e+02
-3.429839474400000086e+02
-3.429864923100000169e+02
-3.429870156399999814e+02
-3.429855860999999777e+02
-3.429823371300000190e+02
-3.429774628499999949e+02
-3.429712084199999822e+02
-3.429638609400000178e+02
-3.429557391899999743e+02
-3.427416869300000144e+02
-3.427410432099999866e+02
-3.427361144800000261e+02
-3.427270300100000213e+02
-3.427140587800000162e+02
-3.426975963300000103e+02
-3.426781355800000028e+02
-3.426562514999999962e+02
-3.426325740500000165e+02
-3.426077641800000038e+02
-3.414462585300000228e+02
-3.414444395099999952e+02
-3.414440146300000265e+02
-3.414451041799999871e+02
-3.414478748199999814e+02
-3.414525242899999853e+02
-3.414592610099999774e+02
-3.414682884000000058e+02
-3.414797789599999760e+02
-3.414938539799999830e+02
-3.424646390699999756e+02
-3.424611426199999755e+02
-3.424566913599999793e+02
-3.424513961399999857e+02
-3.424453962499999875e+02
-3.424388687300000242e+02
-3.424320242599999915e+02
-3.424250896799999850e+02
-3.424183134099999961e+02
-3.424119486299999835e+02
-3.423328679599999873e+02
-3.423415070300000025e+02
-3.423483233399999790e+02
-3.423532063700000094e+02
-3.423561310800000115e+02
-3.423571540099999879e+02
-3.423564090400000168e+02
-3.423541099500000087e+02
-3.423505391599999825e+02
-3.423460322099999757e+02
-3.431947807500000067e+02
-3.431916065099999855e+02
-3.431848566200000050e+02
-3.431746883700000126e+02
-3.431613564200000042e+02
-3.431452011100000163e+02
-3.431266362000000072e+02
-3.431061362799999870e+02
-3.430842175199999815e+02
-3.430614201999999864e+02
-3.416877592000000163e+02
-3.416872646300000156e+02
-3.416912688499999717e+02
-3.416998509000000013e+02
-3.417130911500000252e+02
-3.417310585299999843e+02
-3.417537775600000032e+02
-3.417812148599999773e+02
-3.418132450100000028e+02
-3.418496290200000089e+02
-3.433128426399999853e+02
-3.433128314699999919e+02
-3.433088847500000043e+02
-3.433011490399999843e+02
-3.432899010400000179e+02
-3.432755333499999892e+02
-3.432585339699999736e+02
-3.432394607599999858e+02
-3.432189270800000145e+02
-3.431975702199999887e+02
-3.413798198399999819e+02
-3.413765430400000014e+02
-3.413774921099999915e+02
-3.413827111699999932e+02
-3.413922141300000135e+02
-3.414059809699999732e+02
-3.414239632300000267e+02
-3.414460732399999756e+02
-3.414721875600000089e+02
-3.415021426600000041e+02
-3.434399236900000005e+02
-3.434343619900000135e+02
-3.434236566600000060e+02
-3.434080712300000187e+02
-3.433879934899999853e+02
-3.433639391099999898e+02
-3.433365042300000027e+02
-3.433063593200000128e+02
-3.432742165000000227e+02
-3.432408016599999883e+02
-3.423920370299999831e+02
-3.423787514900000133e+02
-3.423651913400000240e+02
-3.423515385300000275e+02
-3.423380014400000277e+02
-3.423248070500000040e+02
-3.423121992900000237e+02
-3.423004359799999747e+02
-3.422897741799999949e+02
-3.422804766200000017e+02
-3.424015235900000107e+02
-3.424084645699999783e+02
-3.424152774899999940e+02
-3.424219290500000170e+02
-3.424284068700000034e+02
-3.424347248500000092e+02
-3.424409205399999792e+02
-3.424470493599999941e+02
-3.424531863000000271e+02
-3.424594288800000186e+02
-3.433458116900000050e+02
-3.433495855499999720e+02
-3.433497140700000045e+02
-3.433462382499999990e+02
-3.433392987700000276e+02
-3.433291301300000100e+02
-3.433160461300000179e+02
-3.433004281199999923e+02
-3.432827126799999746e+02
-3.432633668099999795e+02
-3.420401646999999912e+02
-3.420492347399999744e+02
-3.420606291600000191e+02
-3.420741213300000254e+02
-3.420895136099999831e+02
-3.421066388400000164e+02
-3.421253429299999880e+02
-3.421454967299999907e+02
-3.421669686100000263e+02
-3.421896280600000182e+02
-3.408698532799999725e+02
-3.408627943199999777e+02
-3.408618614399999842e+02
-3.408672045100000219e+02
-3.408789374799999905e+02
-3.408971236099999942e+02
-3.409217515099999787e+02
-3.409527071200000137e+02
-3.409897418400000220e+02
-3.410324586699999827e+02
-3.429804471900000067e+02
-3.429754521599999748e+02
-3.429653783399999725e+02
-3.429505743199999870e+02
-3.429315397500000131e+02
-3.429088910199999987e+02
-3.428833491999999978e+02
-3.428556990899999732e+02
-3.428267597700000238e+02
-3.427973590199999876e+02
-3.419209611599999903e+02
-3.419227710600000023e+02
-3.419295091299999854e+02
-3.419411220000000071e+02
-3.419574907900000085e+02
-3.419784374700000171e+02
-3.420037105200000269e+02
-3.420329872300000034e+02
-3.420658634200000279e+02
-3.421018578599999955e+02
-3.427960037899999861e+02
-3.427940851100000259e+02
-3.427877564899999925e+02
-3.427772180499999877e+02
-3.427628141600000049e+02
-3.427450183799999763e+02
-3.427244083100000012e+02
-3.427016525700000216e+02
-3.426774740000000179e+02
-3.426526354700000070e+02
-3.428737524699999994e+02
-3.428700405100000239e+02
-3.428609635299999923e+02
-3.428468427899999824e+02
-3.428281455700000038e+02
-3.428054588499999795e+02
-3.427794662300000255e+02
-3.427509146200000032e+02
-3.427205864700000006e+02
-3.426892719499999771e+02
-3.426917763999999806e+02
-3.426964496400000257e+02
-3.426994679800000085e+02
-3.427008482200000117e+02
-3.427006677499999796e+02
-3.426990706899999850e+02
-3.426962599199999886e+02
-3.426924895399999969e+02
-3.426880540000000224e+02
-3.426832835199999749e+02
-3.426368939700000169e+02
-3.426413815600000135e+02
-3.426421108900000263e+02
-3.426390685900000221e+02
-3.426323507700000164e+02
-3.426221616099999778e+02
-3.426088054300000181e+02
-3.425926621500000238e+02
-3.425741773400000056e+02
-3.425538408099999970e+02
-3.424832036099999755e+02
-3.424978992999999718e+02
-3.425103768500000001e+02
-3.425205652600000121e+02
-3.425285592500000007e+02
-3.425346225399999867e+02
-3.425391565200000059e+02
-3.425426705200000015e+02
-3.425457284500000128e+02
-3.425489103699999873e+02
-3.428884859500000175e+02
-3.428820819499999857e+02
-3.428725382499999910e+02
-3.428600176099999999e+02
-3.428447872599999755e+02
-3.428272038000000066e+02
-3.428077106100000151e+02
-3.427868076299999984e+02
-3.427650474100000224e+02
-3.427430092199999763e+02
-3.430502181900000096e+02
-3.430508187400000111e+02
-3.430460355199999753e+02
-3.430360466999999858e+02
-3.430211968799999909e+02
-3.430019757800000093e+02
-3.429789938499999948e+02
-3.429529564700000037e+02
-3.429246302399999990e+02
-3.428948193200000105e+02
-3.425093798799999831e+02
-3.425050971900000150e+02
-3.424959462200000075e+02
-3.424821962899999903e+02
-3.424642400600000087e+02
-3.424425723200000107e+02
-3.424177673500000196e+02
-3.423904560199999878e+02
-3.423613026400000194e+02
-3.423309785999999804e+02
-3.418472050299999978e+02
-3.418540208800000073e+02
-3.418648483299999725e+02
-3.418796228900000074e+02
-3.418983063599999923e+02
-3.419208702199999834e+02
-3.419472724999999969e+02
-3.419774463100000048e+02
-3.420112649899999724e+02
-3.420485358600000154e+02
-3.417474718199999870e+02
-3.417471464999999853e+02
-3.417502540599999747e+02
-3.417569662000000221e+02
-3.417674784700000146e+02
-3.417819797600000129e+02
-3.418006272299999750e+02
-3.418235124700000256e+02
-3.418506352800000059e+02
-3.418818731900000216e+02
-3.427032373900000266e+02
-3.427090360400000009e+02
-3.427130212000000142e+02
-3.427151870000000145e+02
-3.427156117299999778e+02
-3.427144454900000028e+02
-3.427119043700000134e+02
-3.427082588200000259e+02
-3.427038216999999918e+02
-3.426989303199999881e+02
-3.427612001599999871e+02
-3.427607860400000277e+02
-3.427579116900000145e+02
-3.427526642099999776e+02
-3.427452052900000012e+02
-3.427357486099999733e+02
-3.427245641599999999e+02
-3.427119677700000011e+02
-3.426983052599999837e+02
-3.426839482899999894e+02
-3.423814418700000033e+02
-3.423761853899999892e+02
-3.423699022299999797e+02
-3.423627463899999839e+02
-3.423549102700000049e+02
-3.423466194700000074e+02
-3.423381239099999789e+02
-3.423296925899999792e+02
-3.423216029600000070e+02
-3.423141272500000127e+02
-3.428060545800000227e+02
-3.428085866700000111e+02
-3.428064931100000194e+02
-3.428000157600000080e+02
-3.427895553000000177e+02
-3.427756484299999897e+02
-3.427589440900000000e+02
-3.427401679600000080e+02
-3.427200932900000225e+02
-3.426995102800000268e+02
-3.419936705700000061e+02
-3.419891232800000012e+02
-3.419817631700000220e+02
-3.419718227100000263e+02
-3.419596778299999755e+02
-3.419458247399999777e+02
-3.419308540399999856e+02
-3.419154299300000162e+02
-3.419002581799999803e+02
-3.418860590499999716e+02
-3.427873257499999795e+02
-3.427941663299999959e+02
-3.428004985100000113e+02
-3.428064181299999973e+02
-3.428121242199999870e+02
-3.428179043299999762e+02
-3.428241036800000074e+02
-3.428310984799999801e+02
-3.428392616900000007e+02
-3.428489341900000227e+02
-3.426011320499999897e+02
-3.426202263000000130e+02
-3.426361425399999803e+02
-3.426486813999999868e+02
-3.426577955600000109e+02
-3.426636027900000272e+02
-3.426663670699999784e+02
-3.426664829399999803e+02
-3.426644525099999896e+02
-3.426608474600000136e+02
-3.425137521600000241e+02
-3.425182541799999854e+02
-3.425217290800000001e+02
-3.425241913300000078e+02
-3.425257046799999898e+02
-3.425263830999999755e+02
-3.425263779699999986e+02
-3.425258876899999905e+02
-3.425251366400000279e+02
-3.425243742000000111e+02
-3.428772185400000012e+02
-3.428737247600000160e+02
-3.428671647099999973e+02
-3.428577335100000028e+02
-3.428456904799999734e+02
-3.428313457099999937e+02
-3.428150536699999975e+02
-3.427971952600000236e+02
-3.427781632699999932e+02
-3.427583546199999773e+02
-3.417290833499999962e+02
-3.417191165300000080e+02
-3.417124170700000150e+02
-3.417093016499999862e+02
-3.417100724000000014e+02
-3.417149975899999959e+02
-3.417242884400000094e+02
-3.417380856300000005e+02
-3.417564208499999836e+02
-3.417792104000000108e+02
-3.420033549300000004e+02
-3.420083217499999932e+02
-3.420164133700000093e+02
-3.420275927100000217e+02
-3.420418013799999812e+02
-3.420589684700000248e+02
-3.420789981300000022e+02
-3.421017822900000169e+02
-3.421271956599999839e+02
-3.421550924000000009e+02
-3.423490546500000278e+02
-3.423452661599999942e+02
-3.423399139399999740e+02
-3.423330030700000179e+02
-3.423246022199999743e+02
-3.423148349900000085e+02
-3.423038813800000071e+02
-3.422919649300000060e+02
-3.422793465099999821e+02
-3.422663078100000007e+02
-3.419074988500000245e+02
-3.419121319899999776e+02
-3.419207080900000051e+02
-3.419330290199999922e+02
-3.419488727899999958e+02
-3.419680006500000218e+02
-3.419901475199999936e+02
-3.420150328199999876e+02
-3.420423533300000258e+02
-3.420717799799999739e+02
-3.431135894199999825e+02
-3.431136473000000251e+02
-3.431093879900000161e+02
-3.431009160400000155e+02
-3.430884590300000241e+02
-3.430723440099999948e+02
-3.430529923700000268e+02
-3.430308920200000102e+02
-3.430065829000000122e+02
-3.429806409899999835e+02
-3.416204887999999755e+02
-3.416224681499999747e+02
-3.416277397999999721e+02
-3.416363018499999953e+02
-3.416482087599999886e+02
-3.416635492500000169e+02
-3.416824303399999962e+02
-3.417049515200000087e+02
-3.417311679000000026e+02
-3.417610645600000225e+02
-3.427549696799999879e+02
-3.427538747599999738e+02
-3.427503874099999734e+02
-3.427446334599999886e+02
-3.427367982200000256e+02
-3.427271216600000230e+02
-3.427158863299999894e+02
-3.427034111500000222e+02
-3.426900407300000211e+02
-3.426761294300000031e+02
-3.428997674500000130e+02
-3.429011804500000267e+02
-3.428997081499999808e+02
-3.428954725300000064e+02
-3.428887162099999841e+02
-3.428797896500000206e+02
-3.428691298100000040e+02
-3.428572505600000113e+02
-3.428446979400000032e+02
-3.428320424199999934e+02
-3.426895681199999899e+02
-3.426890766899999790e+02
-3.426851265199999830e+02
-3.426778758300000050e+02
-3.426675834399999871e+02
-3.426545982900000240e+02
-3.426393388000000186e+02
-3.426222702100000106e+02
-3.426038853200000176e+02
-3.425846856800000069e+02
-3.425887323300000276e+02
-3.425798601100000269e+02
-3.425707440599999813e+02
-3.425614754299999731e+02
-3.425521969999999783e+02
-3.425430997600000183e+02
-3.425344155500000056e+02
-3.425264077200000088e+02
-3.425193638700000065e+02
-3.425135767400000191e+02
-3.431984208399999829e+02
-3.431935237100000222e+02
-3.431840495600000054e+02
-3.431702785900000094e+02
-3.431526515799999970e+02
-3.431317369800000279e+02
-3.431082186799999931e+02
-3.430828461199999992e+02
-3.430564106799999990e+02
-3.430297058599999787e+02
-3.420538681699999870e+02
-3.420540641599999958e+02
-3.420573108400000137e+02
-3.420637544900000080e+02
-3.420735484100000008e+02
-3.420868339200000037e+02
-3.421037172299999725e+02
-3.421242457999999829e+02
-3.421483850399999938e+02
-3.421759976399999914e+02
-3.417330603400000086e+02
-3.417553204100000244e+02
-3.417809173100000066e+02
-3.418095204300000205e+02
-3.418407697700000085e+02
-3.418742838200000165e+02
-3.419096683099999723e+02
-3.419465229699999895e+02
-3.419844565099999727e+02
-3.420231054299999869e+02
-3.428287635600000272e+02
-3.428378997099999879e+02
-3.428447945099999856e+02
-3.428494143500000177e+02
-3.428517878100000189e+02
-3.428520067200000199e+02
-3.428502262000000087e+02
-3.428466531099999770e+02
-3.428415348799999833e+02
-3.428351522599999726e+02
-3.427664873900000089e+02
-3.427713265599999772e+02
-3.427736638200000243e+02
-3.427735750699999926e+02
-3.427712476799999877e+02
-3.427669862299999863e+02
-3.427611877100000015e+02
-3.427543253399999799e+02
-3.427469130800000130e+02
-3.427395025399999895e+02
-3.420561285900000144e+02
-3.420529789600000186e+02
-3.420521770999999944e+02
-3.420539570899999831e+02
-3.420585745800000268e+02
-3.420662843299999736e+02
-3.420773270299999922e+02
-3.420918951699999866e+02
-3.421101143000000206e+02
-3.421320179499999767e+02
-3.426538989700000002e+02
-3.426660997000000179e+02
-3.426757768800000008e+02
-3.426829939400000171e+02
-3.426879051299999901e+02
-3.426907507600000145e+02
-3.426918441099999768e+02
-3.426915632600000094e+02
-3.426903241100000059e+02
-3.426885639399999945e+02
-3.410538480299999833e+02
-3.410547969799999919e+02
-3.410632441700000186e+02
-3.410791660500000262e+02
-3.411024926499999879e+02
-3.411330967800000167e+02
-3.411707704099999887e+02
-3.412151928100000191e+02
-3.412659031100000107e+02
-3.413222890900000266e+02
-3.425937479199999984e+02
-3.425843253699999877e+02
-3.425742058899999734e+02
-3.425637245699999767e+02
-3.425533158800000137e+02
-3.425434906500000238e+02
-3.425348073800000179e+02
-3.425278453999999897e+02
-3.425231737199999884e+02
-3.425213219099999833e+02
-3.420537325700000224e+02
-3.420750486900000169e+02
-3.420973192299999823e+02
-3.421202032699999904e+02
-3.421433956999999850e+02
-3.421666394599999990e+02
-3.421897344700000190e+02
-3.422125413499999809e+02
-3.422349963600000251e+02
-3.422570949000000269e+02
-3.429241505599999869e+02
-3.429188889000000131e+02
-3.429104448499999762e+02
-3.428989902100000222e+02
-3.428848332200000186e+02
-3.428684001500000136e+02
-3.428502213799999936e+02
-3.428309042899999781e+02
-3.428111157899999739e+02
-3.427915542999999730e+02
-3.427100922000000196e+02
-3.427087514500000225e+02
-3.427033834200000229e+02
-3.426942089099999862e+02
-3.426815656499999818e+02
-3.426658948300000134e+02
-3.426477167099999974e+02
-3.426276068399999986e+02
-3.426061635400000114e+02
-3.425839922600000023e+02
-3.431278378000000089e+02
-3.431246504499999901e+02
-3.431169779699999935e+02
-3.431050635500000112e+02
-3.430892580899999871e+02
-3.430700038400000267e+02
-3.430478200100000095e+02
-3.430232751500000177e+02
-3.429969703400000185e+02
-3.429695184299999937e+02
-3.421042351799999892e+02
-3.421263645000000224e+02
-3.421523670999999922e+02
-3.421817864099999724e+02
-3.422141654499999959e+02
-3.422490497399999754e+02
-3.422859865799999852e+02
-3.423245402000000013e+02
-3.423642802200000119e+02
-3.424047868600000015e+02
-3.429541212299999984e+02
-3.429668014700000072e+02
-3.429752975100000185e+02
-3.429795360499999788e+02
-3.429795888300000115e+02
-3.429756663100000083e+02
-3.429681133000000273e+02
-3.429573741199999972e+02
-3.429439857599999755e+02
-3.429285386600000152e+02
-3.426048450499999944e+02
-3.426060734000000139e+02
-3.426041364600000065e+02
-3.425992211500000053e+02
-3.425916624899999761e+02
-3.425819268500000021e+02
-3.425705856999999810e+02
-3.425582866899999885e+02
-3.425457201400000145e+02
-3.425335860999999795e+02
-3.426738630400000147e+02
-3.426738960199999724e+02
-3.426706492199999730e+02
-3.426641883699999767e+02
-3.426546558599999912e+02
-3.426422676199999842e+02
-3.426273064599999998e+02
-3.426101009600000111e+02
-3.425910216199999923e+02
-3.425704649200000063e+02
-3.425777591899999948e+02
-3.425824641699999802e+02
-3.425838294199999723e+02
-3.425818551099999922e+02
-3.425766453599999863e+02
-3.425684087999999861e+02
-3.425574416900000188e+02
-3.425441177999999809e+02
-3.425288727700000209e+02
-3.425121825900000090e+02
-3.423216028900000083e+02
-3.423139778199999910e+02
-3.423080107800000178e+02
-3.423037535600000183e+02
-3.423012695499999722e+02
-3.423006336199999851e+02
-3.423019160200000215e+02
-3.423051884199999790e+02
-3.423104986700000154e+02
-3.423178750100000229e+02
-3.425394257500000208e+02
-3.425340813500000081e+02
-3.425276308800000038e+02
-3.425202784200000110e+02
-3.425122960400000238e+02
-3.425040091500000017e+02
-3.424957845000000134e+02
-3.424880078200000071e+02
-3.424810748900000021e+02
-3.424753575099999807e+02
-3.426997254799999837e+02
-3.426956824200000256e+02
-3.426886847299999772e+02
-3.426788912200000254e+02
-3.426665888399999744e+02
-3.426521695199999726e+02
-3.426361218499999950e+02
-3.426189982199999804e+02
-3.426013995299999806e+02
-3.425839401399999815e+02
-3.427991425100000242e+02
-3.428109898700000144e+02
-3.428203486200000043e+02
-3.428271436100000074e+02
-3.428313872699999934e+02
-3.428331801100000007e+02
-3.428327109599999858e+02
-3.428302507000000219e+02
-3.428261458800000128e+02
-3.428207922400000029e+02
-3.431466463799999929e+02
-3.431461984399999778e+02
-3.431400200799999993e+02
-3.431283301500000107e+02
-3.431115118000000166e+02
-3.430900903300000095e+02
-3.430647111200000268e+02
-3.430361058899999875e+02
-3.430050633000000175e+02
-3.429724029100000280e+02
-3.427116188800000032e+02
-3.427095511300000226e+02
-3.427041792699999974e+02
-3.426956025200000227e+02
-3.426840228300000035e+02
-3.426697368299999766e+02
-3.426531261700000073e+02
-3.426346422099999813e+02
-3.426147920700000213e+02
-3.425941163599999868e+02
-3.416626591400000166e+02
-3.416620174099999758e+02
-3.416594748100000061e+02
-3.416553050499999813e+02
-3.416499174699999912e+02
-3.416438260200000059e+02
-3.416376263399999971e+02
-3.416319495700000175e+02
-3.416274348399999781e+02
-3.416246860200000128e+02
-3.426043292699999938e+02
-3.426045493299999976e+02
-3.426024211999999807e+02
-3.425980430600000091e+02
-3.425915925799999968e+02
-3.425833230800000138e+02
-3.425735504599999786e+02
-3.425626426599999945e+02
-3.425510061400000268e+02
-3.425390703900000062e+02
-3.429932031299999835e+02
-3.430012951499999758e+02
-3.430067483899999843e+02
-3.430096274300000232e+02
-3.430101114400000029e+02
-3.430084868399999891e+02
-3.430051239900000155e+02
-3.430004482599999847e+02
-3.429949196599999937e+02
-3.429890049800000043e+02
-3.429685302199999910e+02
-3.429680639499999870e+02
-3.429630024499999763e+02
-3.429535263000000214e+02
-3.429399466899999993e+02
-3.429226779499999793e+02
-3.429022355000000175e+02
-3.428791977899999779e+02
-3.428541920800000184e+02
-3.428278647099999716e+02
-3.432894554599999992e+02
-3.432855784000000199e+02
-3.432769700700000044e+02
-3.432638696500000037e+02
-3.432466649099999927e+02
-3.432258661999999845e+02
-3.432020919500000105e+02
-3.431760345100000222e+02
-3.431484315499999980e+02
-3.431200427200000149e+02
-3.426945479199999909e+02
-3.427054342900000279e+02
-3.427164211099999989e+02
-3.427274068899999975e+02
-3.427383540100000232e+02
-3.427492844700000205e+02
-3.427602707400000099e+02
-3.427714202899999805e+02
-3.427828700900000172e+02
-3.427947566799999777e+02
-3.424129898099999991e+02
-3.424336743499999898e+02
-3.424528317599999809e+02
-3.424702767800000061e+02
-3.424859990100000005e+02
-3.425001478400000110e+02
-3.425130169099999762e+02
-3.425250042100000201e+02
-3.425365800100000229e+02
-3.425482324999999832e+02
-3.430593569399999865e+02
-3.430564224199999899e+02
-3.430500517199999990e+02
-3.430404453200000034e+02
-3.430278970200000117e+02
-3.430127860000000055e+02
-3.429955641199999832e+02
-3.429767276800000104e+02
-3.429568061300000181e+02
-3.429363384200000269e+02
-3.433065476799999942e+02
-3.433058231300000216e+02
-3.433009764000000246e+02
-3.432921356400000263e+02
-3.432795242899999835e+02
-3.432634458100000074e+02
-3.432442682799999716e+02
-3.432224166099999820e+02
-3.431983544600000187e+02
-3.431725654100000042e+02
-3.427899636000000214e+02
-3.427958061900000075e+02
-3.427978646099999764e+02
-3.427961049400000206e+02
-3.427906071699999870e+02
-3.427815665200000126e+02
-3.427692859900000144e+02
-3.427541529700000069e+02
-3.427366260699999998e+02
-3.427172115199999780e+02
-3.432640901500000155e+02
-3.432672603099999833e+02
-3.432674542299999985e+02
-3.432647048700000028e+02
-3.432591420900000116e+02
-3.432509765199999947e+02
-3.432405024799999751e+02
-3.432280722300000093e+02
-3.432140848299999902e+02
-3.431989585100000113e+02
-3.416690409000000272e+02
-3.416749541300000033e+02
-3.416772231699999907e+02
-3.416760185300000217e+02
-3.416717018400000256e+02
-3.416647988400000031e+02
-3.416559674900000232e+02
-3.416459609899999919e+02
-3.416355796400000031e+02
-3.416256232999999725e+02
-3.425291071500000157e+02
-3.425290668299999766e+02
-3.425273165099999915e+02
-3.425239503799999738e+02
-3.425191346999999951e+02
-3.425130960399999935e+02
-3.425061189699999886e+02
-3.424985339199999999e+02
-3.424907117399999947e+02
-3.424830494099999783e+02
-3.429184952900000098e+02
-3.429219924099999730e+02
-3.429204302900000130e+02
-3.429139144999999758e+02
-3.429026892499999803e+02
-3.428871248099999889e+02
-3.428676971500000263e+02
-3.428449637400000256e+02
-3.428195426600000246e+02
-3.427920795399999747e+02
-3.421696606300000099e+02
-3.421703840800000194e+02
-3.421721098500000267e+02
-3.421748789299999771e+02
-3.421787997499999960e+02
-3.421840453899999943e+02
-3.421908356000000140e+02
-3.421994113000000084e+02
-3.422100146500000051e+02
-3.422228615199999808e+02
-3.426638342599999874e+02
-3.426639318900000148e+02
-3.426591747200000100e+02
-3.426497646799999757e+02
-3.426360270800000194e+02
-3.426184107199999858e+02
-3.425974542199999746e+02
-3.425737744699999894e+02
-3.425480360199999836e+02
-3.425209342699999979e+02
-3.428418983899999830e+02
-3.428432611299999735e+02
-3.428413805299999808e+02
-3.428363100000000259e+02
-3.428281799700000079e+02
-3.428171934499999907e+02
-3.428036103599999933e+02
-3.427877497200000221e+02
-3.427699703399999862e+02
-3.427506578399999739e+02
-3.428343219600000111e+02
-3.428307732200000260e+02
-3.428253722599999946e+02
-3.428182929999999828e+02
-3.428097840400000109e+02
-3.428001652400000125e+02
-3.427898087899999950e+02
-3.427791215400000056e+02
-3.427685319799999775e+02
-3.427584549499999866e+02
-3.431934873899999729e+02
-3.431936242699999866e+02
-3.431898814200000061e+02
-3.431825030599999877e+02
-3.431718651300000147e+02
-3.431584455500000104e+02
-3.431428061400000047e+02
-3.431255679299999883e+02
-3.431073817600000098e+02
-3.430889032499999871e+02
-3.426457535800000187e+02
-3.426521143400000255e+02
-3.426562739099999817e+02
-3.426583390499999950e+02
-3.426585375000000226e+02
-3.426571934699999815e+02
-3.426547063599999774e+02
-3.426515228100000172e+02
-3.426481096599999887e+02
-3.426449252499999716e+02
-3.421386564900000167e+02
-3.421521306999999865e+02
-3.421663871499999914e+02
-3.421812408000000119e+02
-3.421965432100000157e+02
-3.422121980399999757e+02
-3.422281482299999880e+02
-3.422443935000000010e+02
-3.422609785399999964e+02
-3.422779877099999908e+02
-3.430387669400000163e+02
-3.430332656300000167e+02
-3.430225345700000048e+02
-3.430069110200000182e+02
-3.429868862499999977e+02
-3.429630913099999816e+02
-3.429362545399999931e+02
-3.429071870399999966e+02
-3.428767402099999799e+02
-3.428457853099999966e+02
-3.422546735099999751e+02
-3.422571257800000240e+02
-3.422588703299999793e+02
-3.422599360400000137e+02
-3.422604003100000227e+02
-3.422603988000000186e+02
-3.422601104099999816e+02
-3.422597582600000123e+02
-3.422595945499999743e+02
-3.422598956200000089e+02
-3.418822533700000008e+02
-3.418736289400000032e+02
-3.418663921500000242e+02
-3.418607039699999746e+02
-3.418567329499999801e+02
-3.418546589399999789e+02
-3.418546639300000152e+02
-3.418569263200000137e+02
-3.418616293300000279e+02
-3.418689376599999719e+02
-3.424495023200000219e+02
-3.424565255800000045e+02
-3.424621711400000095e+02
-3.424664541700000200e+02
-3.424694279899999856e+02
-3.424711832500000241e+02
-3.424718494599999872e+02
-3.424715804200000093e+02
-3.424705452000000037e+02
-3.424689318800000137e+02
-3.427318278999999848e+02
-3.427330517699999746e+02
-3.427303648500000008e+02
-3.427240423399999827e+02
-3.427145033300000136e+02
-3.427022890200000234e+02
-3.426880368999999860e+02
-3.426724367900000061e+02
-3.426562144900000249e+02
-3.426400874299999941e+02
-3.433448373699999934e+02
-3.433397242099999858e+02
-3.433299073000000021e+02
-3.433156698199999823e+02
-3.432974096799999870e+02
-3.432756149599999844e+02
-3.432508391200000233e+02
-3.432236866100000157e+02
-3.431947850299999914e+02
-3.431647708500000249e+02
-3.421809071800000197e+02
-3.421976836900000194e+02
-3.422144354499999963e+02
-3.422309047900000110e+02
-3.422469262100000265e+02
-3.422624379200000249e+02
-3.422774658199999749e+02
-3.422921145899999829e+02
-3.423065373800000089e+02
-3.423209309700000063e+02
-3.433168208000000163e+02
-3.433129379499999914e+02
-3.433051877400000080e+02
-3.432937603500000137e+02
-3.432789418400000159e+02
-3.432610994799999844e+02
-3.432406729200000086e+02
-3.432181534900000202e+02
-3.431940743800000178e+02
-3.431689847600000007e+02
-3.424677562100000046e+02
-3.424603240299999811e+02
-3.424523132400000236e+02
-3.424441188299999794e+02
-3.424362166899999806e+02
-3.424291359000000057e+02
-3.424234262300000182e+02
-3.424196216000000277e+02
-3.424182104600000116e+02
-3.424196011099999737e+02
-3.427330957199999943e+02
-3.427273230499999954e+02
-3.427205405500000097e+02
-3.427129205699999943e+02
-3.427046809899999857e+02
-3.426960745499999916e+02
-3.426873833500000046e+02
-3.426788981899999840e+02
-3.426709123900000122e+02
-3.426637016999999901e+02
-3.419070522900000242e+02
-3.419275975200000062e+02
-3.419511798899999917e+02