2.088761799550887532e-01 8.183801641613237532e-01 -3.162708326044932905e-02 8.183801641613237532e-01 2.164565534844085537e+00 3.827057904035583658e+00 -3.162708326044932905e-02 3.827057904035583658e+00 -3.739916157762224747e-01
3.905736828716095399e-01 8.326114474809199750e-01 2.061456541847469376e-02 8.326114474809199750e-01 2.283352447330015966e+00 3.960672837261118406e+00 2.061456541847469376e-02 3.960672837261118406e+00 1.900518267966394906e-02
5.853632431240739509e-01 8.462821592847505903e-01 7.238605734224053123e-02 8.462821592847505903e-01 2.412717886807004941e+00 4.098681927852170226e+00 7.238605734224053123e-02 4.098681927852170226e+00 4.298498548794402740e-01
7.913280677876062263e-01 8.594646313813014693e-01 1.234703970853905236e-01 8.594646313813014693e-01 2.551414129578672529e+00 4.241284088282075260e+00 1.234703970853905236e-01 4.241284088282075260e+00 8.540035798406179213e-01
1.006732193458545144e+00 8.720142001536009824e-01 1.738856676000461732e-01 8.720142001536009824e-01 2.698211534900758046e+00 4.388334654933861323e+00 1.738856676000461732e-01 4.388334654933861323e+00 1.288374172750425428e+00
1.229477997690800795e+00 8.838585337931631480e-01 2.235595370777216095e-01 8.838585337931631480e-01 2.851609217747179681e+00 4.539761295999042545e+00 2.235595370777216095e-01 4.539761295999042545e+00 1.729435457945176502e+00
1.457377443277674933e+00 8.949253004915023180e-01 2.724739225662953235e-01 8.949253004915023180e-01 3.010106293091856067e+00 4.695582094429741282e+00 2.724739225662953235e-01 4.695582094429741282e+00 2.173805923378156368e+00
1.687826585113676225e+00 9.051240854880107101e-01 3.206649899700102502e-01 9.051240854880107101e-01 3.171731719153546347e+00 4.855778967273836066e+00 3.206649899700102502e-01 4.855778967273836066e+00 2.617380738917791660e+00
1.918402307614528013e+00 9.144729717348102360e-01 3.680784904325021256e-01 9.144729717348102360e-01 3.334767615480711100e+00 5.020478495196175395e+00 3.680784904325021256e-01 5.020478495196175395e+00 3.056543314139788858e+00
2.146428333866252203e+00 9.229177103755361600e-01 4.148410046186210010e-01 9.229177103755361600e-01 3.497242940292110358e+00 5.189807258861611317e+00 4.148410046186210010e-01 5.189807258861611317e+00 3.487007989391358809e+00
-1.676444398589989859e+01 1.302363165553630608e+01 1.835541509831982765e+01 1.302363165553630608e+01 2.356024393635449599e+01 4.485182385437063601e+00 1.835541509831982765e+01 4.485182385437063601e+00 -3.212420081697271712e+01
-1.667025362425512469e+01 1.296251549366381539e+01 1.832768309288783115e+01 1.296251549366381539e+01 2.356724531050695148e+01 4.393416978902385139e+00 1.832768309288783115e+01 4.393416978902385139e+00 -3.198373574803904873e+01
-1.651733559035757892e+01 1.289569248254726652e+01 1.827650377714317287e+01 1.289569248254726652e+01 2.360575286834546560e+01 4.300211185497800237e+00 1.827650377714317287e+01 4.300211185497800237e+00 -3.172813089323879865e+01
-1.630510643636122126e+01 1.282327201865778754e+01 1.820173128912435345e+01 1.282327201865778754e+01 2.367622242849975578e+01 4.205765565420383822e+00 1.820173128912435345e+01 4.205765565420383822e+00 -3.135796970041800336e+01
-1.603476952344851014e+01 1.274558229140877863e+01 1.810327446510542870e+01 1.274558229140877863e+01 2.377794291390745940e+01 4.110463006319100110e+00 1.810327446510542870e+01 4.110463006319100110e+00 -3.087529423703780296e+01
-1.570796579868642517e+01 1.266304265393957706e+01 1.798091451214412473e+01 1.266304265393957706e+01 2.390987505809282254e+01 4.014613464862154757e+00 1.798091451214412473e+01 4.014613464862154757e+00 -3.028273001840537049e+01
-1.532668263130053354e+01 1.257594483017320286e+01 1.783439617180781411e+01 1.257594483017320286e+01 2.407074256889263708e+01 3.918654526934077786e+00 1.783439617180781411e+01 3.918654526934077786e+00 -2.958388712806805998e+01
-1.489338144189131086e+01 1.248472640599418426e+01 1.766342772017346263e+01 1.248472640599418426e+01 2.425890449923992165e+01 3.822969080183831636e+00 1.766342772017346263e+01 3.822969080183831636e+00 -2.878299556290964745e+01
-1.441094300419856289e+01 1.238980673454186388e+01 1.746771743331806093e+01 1.238980673454186388e+01 2.447257404010618131e+01 3.727994710495943220e+00 1.746771743331806093e+01 3.727994710495943220e+00 -2.788494169864070926e+01
-1.388226632470729882e+01 1.229162340170076639e+01 1.724691888908302317e+01 1.229162340170076639e+01 2.470985498599180019e+01 3.634205469245320508e+00 1.724691888908302317e+01 3.634205469245320508e+00 -2.689490363489482405e+01
1.496549006069837651e+00 -2.147451328756718944e-02 1.549029979596879869e+01 -2.147451328756718944e-02 4.653604225378608561e+01 2.125734700858556891e+01 1.549029979596879869e+01 2.125734700858556891e+01 4.677020918912037217e+01
1.560919912321540481e+00 -9.845994164201558874e-02 1.535085581589561166e+01 -9.845994164201558874e-02 4.653167366407318184e+01 2.124883790814074302e+01 1.535085581589561166e+01 2.124883790814074302e+01 4.683619419277603413e+01
1.603132068342689509e+00 -1.730242238905127794e-01 1.517872636339208192e+01 -1.730242238905127794e-01 4.642926620160623941e+01 2.120657311850859017e+01 1.517872636339208192e+01 2.120657311850859017e+01 4.672715489532323829e+01
1.622606504412297035e+00 -2.445006676270722323e-01 1.497399916114320639e+01 -2.445006676270722323e-01 4.622953919240227094e+01 2.113102634218811460e+01 1.497399916114320639e+01 2.113102634218811460e+01 4.644372290009395243e+01
1.617851934885392806e+00 -3.121348577607090946e-01 1.473697246627798130e+01 -3.121348577607090946e-01 4.593338740784823671e+01 2.102288181612229323e+01 1.473697246627798130e+01 2.102288181612229323e+01 4.598719650282615135e+01
1.587131450599012172e+00 -3.752601018854367920e-01 1.446799716953640491e+01 -3.752601018854367920e-01 4.554258284618111219e+01 2.088320975706810856e+01 1.446799716953640491e+01 2.088320975706810856e+01 4.535999684962578726e+01
1.528287073502198279e+00 -4.334202420392646582e-01 1.416759960702845866e+01 -4.334202420392646582e-01 4.505935366359985039e+01 2.071315055993053633e+01 1.416759960702845866e+01 2.071315055993053633e+01 4.456531704622680934e+01
1.438827479341001192e+00 -4.862468429451999308e-01 1.383651664930813219e+01 -4.862468429451999308e-01 4.448669997593139414e+01 2.051428323303954571e+01 1.383651664930813219e+01 2.051428323303954571e+01 4.360712215799112101e+01
1.316068353954475301e+00 -5.334591920112483621e-01 1.347555534507740660e+01 -5.334591920112483621e-01 4.382820086872366261e+01 2.028846749731709664e+01 1.347555534507740660e+01 2.028846749731709664e+01 4.249027202166763573e+01
1.157167482348677945e+00 -5.749520220154121786e-01 1.308576836655626252e+01 -5.749520220154121786e-01 4.308818984261557716e+01 2.003787887535114720e+01 1.308576836655626252e+01 2.003787887535114720e+01 4.122045106724421970e+01
1.738245840282728327e+00 1.252928290502030073e+01 -1.443338518829960471e+01 1.252928290502030073e+01 2.181570102906279374e+01 2.226254117561748291e+00 -1.443338518829960471e+01 2.226254117561748291e+00 -3.731465018306459491e+00
1.751555972307761611e+00 1.248999828354479824e+01 -1.447351290439124760e+01 1.248999828354479824e+01 2.181105503958235659e+01 2.163829239600675525e+00 -1.447351290439124760e+01 2.163829239600675525e+00 -3.726496141526224992e+00
1.789064713634371806e+00 1.244359220329040383e+01 -1.448825809108205220e+01 1.244359220329040383e+01 2.181403277801383211e+01 2.108328500401951633e+00 -1.448825809108205220e+01 2.108328500401951633e+00 -3.696234426261762351e+00
1.850395362412793787e+00 1.239045930429020181e+01 -1.447788982112185252e+01 1.239045930429020181e+01 2.182447280070732276e+01 2.059967158165441958e+00 -1.447788982112185252e+01 2.059967158165441958e+00 -3.642168741728810222e+00
1.934471627643699065e+00 1.233106597931057280e+01 -1.444256953816054256e+01 1.233106597931057280e+01 2.184165758032994020e+01 2.018852841991080282e+00 -1.444256953816054256e+01 2.018852841991080282e+00 -3.565483008026629541e+00
2.039714949194737947e+00 1.226578893020127836e+01 -1.438242280948138507e+01 1.226578893020127836e+01 2.186433144404913520e+01 1.985164933712087354e+00 -1.438242280948138507e+01 1.985164933712087354e+00 -3.468186301687302464e+00
2.164205941450440651e+00 1.219502279699540637e+01 -1.429750344963433761e+01 1.219502279699540637e+01 2.189102346083248918e+01 1.959011062428396510e+00 -1.429750344963433761e+01 1.959011062428396510e+00 -3.352736153825961907e+00
2.305899651512082649e+00 1.211907252880943453e+01 -1.418786527316937196e+01 1.211907252880943453e+01 2.192013713236433503e+01 1.940534733606584572e+00 -1.418786527316937196e+01 1.940534733606584572e+00 -3.221895044674218500e+00
2.462499991914429920e+00 1.203829688930980346e+01 -1.405343652735320070e+01 1.203829688930980346e+01 2.194978894939584535e+01 1.929861514529906730e+00 -1.405343652735320070e+01 1.929861514529906730e+00 -3.078604836296904956e+00
2.631728813375568521e+00 1.195287526032973702e+01 -1.389407370671924191e+01 1.195287526032973702e+01 2.197820303177812917e+01 1.927081096114974024e+00 -1.389407370671924191e+01 1.927081096114974024e+00 -2.925825328942175396e+00
-1.140698075508036524e+01 4.223210626873999729e+00 -8.850404797950240265e+00 4.223210626873999729e+00 2.798301719947881949e+01 2.221430575103781990e+01 -8.850404797950240265e+00 2.221430575103781990e+01 -4.396143238606887160e-01
-1.132410633427802438e+01 4.287252407189864556e+00 -8.835029009254782295e+00 4.287252407189864556e+00 2.813117570670942413e+01 2.227897768662808531e+01 -8.835029009254782295e+00 2.227897768662808531e+01 -1.342590823208893724e-01
-1.120561913825364719e+01 4.349529752737398169e+00 -8.803971356444867169e+00 4.349529752737398169e+00 2.826590290437701469e+01 2.230868500670713672e+01 -8.803971356444867169e+00 2.230868500670713672e+01 1.868680455154231868e-01
-1.105276147311963264e+01 4.409718583661192071e+00 -8.757447892757435071e+00 4.409718583661192071e+00 2.838577644200507777e+01 2.230357174676625576e+01 -8.757447892757435071e+00 2.230357174676625576e+01 5.200761501838823131e-01
-1.086664961393349493e+01 4.467476815669427559e+00 -8.695656666993013317e+00 4.467476815669427559e+00 2.848968004453610448e+01 2.226363790680545307e+01 -8.695656666993013317e+00 2.226363790680545307e+01 8.630606638238103034e-01
-1.064890395997227124e+01 4.522408351161050000e+00 -8.618795727952129226e+00 4.522408351161050000e+00 2.857633539698486658e+01 2.218918956224371186e+01 -8.618795727952129226e+00 2.218918956224371186e+01 1.213084912100652168e+00
-1.040141497705917750e+01 4.574189110280653559e+00 -8.526973102253251113e+00 4.574189110280653559e+00 2.864439216662050569e+01 2.208058680180927524e+01 -8.526973102253251113e+00 2.208058680180927524e+01 1.567268185188560814e+00
-1.012632519312718316e+01 4.622477008736416870e+00 -8.420260807642025114e+00 4.622477008736416870e+00 2.869259004289421355e+01 2.193833374972166084e+01 -8.420260807642025114e+00 2.193833374972166084e+01 1.922855804316570216e+00
-9.825993189346204915e+00 4.667001979982167370e+00 -8.298658844118451228e+00 4.667001979982167370e+00 2.871956068863870826e+01 2.176300654794603773e+01 -8.298658844118451228e+00 2.176300654794603773e+01 2.276805019731129143e+00
-9.502705529140508034e+00 4.707475953035319627e+00 -8.162095193936885096e+00 4.707475953035319627e+00 2.872427785097853103e+01 2.155525335619321936e+01 -8.162095193936885096e+00 2.155525335619321936e+01 2.626487183716151641e+00
5.976352485898335232e+01 -8.562527717649391690e+00 2.533029110423314467e+00 -8.562527717649391690e+00 7.109826191130753159e+01 1.161194958642994157e+00 2.533029110423314467e+00 1.161194958642994157e+00 7.291005462982097640e+01
5.949973450490124804e+01 -8.664361579105525735e+00 2.551894076839552827e+00 -8.664361579105525735e+00 7.083559707169550279e+01 1.218898573638345750e+00 2.551894076839552827e+00 1.218898573638345750e+00 7.226899854486096331e+01
5.912710522169110305e+01 -8.744004326905514546e+00 2.558747956000572810e+00 -8.744004326905514546e+00 7.045324132761713543e+01 1.292661768236479380e+00 2.558747956000572810e+00 1.292661768236479380e+00 7.133774451258081228e+01
5.864810642169765487e+01 -8.800951999346342092e+00 2.553960319821919178e+00 -8.800951999346342092e+00 6.995413445567335486e+01 1.382870913076374109e+00 2.553960319821919178e+00 1.382870913076374109e+00 7.012210489128864310e+01
5.806500593258451914e+01 -8.834885420682764945e+00 2.537951136389438922e+00 -8.834885420682764945e+00 6.934101464778387935e+01 1.489693995392368464e+00 2.537951136389438922e+00 1.489693995392368464e+00 6.862906794993293147e+01
5.738017237435583695e+01 -8.846006175595988452e+00 2.511425952087354307e+00 -8.846006175595988452e+00 6.861705686267771398e+01 1.613063820290727479e+00 2.511425952087354307e+00 1.613063820290727479e+00 6.686733542725244206e+01
5.660032523638518143e+01 -8.834818225789028645e+00 2.475241501810793388e+00 -8.834818225789028645e+00 6.778985412334697003e+01 1.753131576282355164e+00 2.475241501810793388e+00 1.753131576282355164e+00 6.485227815518913985e+01
5.573033614846836059e+01 -8.802363092114786625e+00 2.430388910242353706e+00 -8.802363092114786625e+00 6.686535317788722921e+01 1.909410100387670228e+00 2.430388910242353706e+00 1.909410100387670228e+00 6.259926696568503957e+01
5.477729417189448213e+01 -8.750186257129179523e+00 2.378010490575539926e+00 -8.750186257129179523e+00 6.585205418035604907e+01 2.081177047499015220e+00 2.378010490575539926e+00 2.081177047499015220e+00 6.012809075494524791e+01
5.374980025306167875e+01 -8.680118781686498863e+00 2.319315750897589901e+00 -8.680118781686498863e+00 6.475990197502628121e+01 2.267441292933791708e+00 2.319315750897589901e+00 2.267441292933791708e+00 5.746193176130849878e+01
-1.908554297300736025e+01 9.717406592557624734e+00 -8.577843036616814132e+00 9.717406592557624734e+00 -3.538257509883008911e+00 -1.261977839138073243e+01 -8.577843036616814132e+00 -1.261977839138073243e+01 -3.802820017557314802e+00
-1.907572737372818139e+01 9.771328174392214905e+00 -8.609619892600996138e+00 9.771328174392214905e+00 -3.642394596815003105e+00 -1.261333862437700937e+01 -8.609619892600996138e+00 -1.261333862437700937e+01 -3.946219501606023528e+00
-1.904488621038557028e+01 9.815452503862166722e+00 -8.626902686098164352e+00 9.815452503862166722e+00 -3.738972754956303213e+00 -1.257600265328705014e+01 -8.626902686098164352e+00 -1.257600265328705014e+01 -4.069510767318321953e+00
-1.899333138052670478e+01 9.849449336505752939e+00 -8.629379519561135581e+00 9.849449336505752939e+00 -3.827037944750801834e+00 -1.250822915097436727e+01 -8.629379519561135581e+00 -1.250822915097436727e+01 -4.172730508523290638e+00
-1.892225543359672812e+01 9.873116856263024488e+00 -8.616720148528177248e+00 9.873116856263024488e+00 -3.906681900771201477e+00 -1.241009150509712278e+01 -8.616720148528177248e+00 -1.241009150509712278e+01 -4.256374091913523117e+00
-1.883351140796423095e+01 9.886198206330414351e+00 -8.588575981623018052e+00 9.886198206330414351e+00 -3.978271561308312609e+00 -1.228184657245888545e+01 -8.588575981623018052e+00 -1.228184657245888545e+01 -4.321652413848695140e+00
-1.872900738274142540e+01 9.888601652135221798e+00 -8.544690162042092751e+00 9.888601652135221798e+00 -4.042430721456512721e+00 -1.212362278146143524e+01 -8.544690162042092751e+00 -1.212362278146143524e+01 -4.370014880577508087e+00
-1.861098168150225618e+01 9.880217112190205597e+00 -8.484769139152751549e+00 9.880217112190205597e+00 -4.100168461515530716e+00 -1.193553021359201871e+01 -8.484769139152751549e+00 -1.193553021359201871e+01 -4.403406265041255097e+00
-1.848180105622245151e+01 9.860971198837198415e+00 -8.408592749980510206e+00 9.860971198837198415e+00 -4.152585596357798892e+00 -1.171756886885063409e+01 -8.408592749980510206e+00 -1.171756886885063409e+01 -4.423863074753935365e+00
-1.834377721813411810e+01 9.830918952819825307e+00 -8.315867443892720701e+00 9.830918952819825307e+00 -4.200672859368502543e+00 -1.146964701266458064e+01 -8.315867443892720701e+00 -1.146964701266458064e+01 -4.433385123400465311e+00
2.197687574476529448e+01 -4.008560523727672020e+00 1.954950746945456785e+01 -4.008560523727672020e+00 1.247143149499152415e+01 1.333575496472824717e+01 1.954950746945456785e+01 1.333575496472824717e+01 -2.023140703941868068e+01
2.200913985588092459e+01 -4.092042343715921682e+00 1.959610322348663658e+01 -4.092042343715921682e+00 1.257999369008354051e+01 1.325759376717272353e+01 1.959610322348663658e+01 1.325759376717272353e+01 -2.003074612403490562e+01
2.206831162657216794e+01 -4.172299544047974429e+00 1.961371322972020792e+01 -4.172299544047974429e+00 1.272872031444887497e+01 1.316857635010799754e+01 1.961371322972020792e+01 1.316857635010799754e+01 -1.974911142617325766e+01
2.215367447469320084e+01 -4.248866346329043253e+00 1.960262412101361562e+01 -4.248866346329043253e+00 1.291616028924223514e+01 1.306889977362417454e+01 1.960262412101361562e+01 1.306889977362417454e+01 -1.938972756548993104e+01
2.226481636551017829e+01 -4.321061997520599718e+00 1.956274632459862772e+01 -4.321061997520599718e+00 1.314093419383291916e+01 1.295892232879415751e+01 1.956274632459862772e+01 1.295892232879415751e+01 -1.895497717761978507e+01
2.240085948589446119e+01 -4.388295317352338465e+00 1.949388278038514244e+01 -4.388295317352338465e+00 1.340114308553449440e+01 1.283896647758357368e+01 1.949388278038514244e+01 1.283896647758357368e+01 -1.844792365123621636e+01
2.256069313352003647e+01 -4.449939296446666859e+00 1.939576477006847810e+01 -4.449939296446666859e+00 1.369451181603397849e+01 1.270937259651168283e+01 1.939576477006847810e+01 1.270937259651168283e+01 -1.787225738439019906e+01
2.274326034972181176e+01 -4.505438583640572148e+00 1.926801608802207966e+01 -4.505438583640572148e+00 1.401872940791109379e+01 1.257042731843681871e+01 1.926801608802207966e+01 1.257042731843681871e+01 -1.723181209156188132e+01
2.294728920119094795e+01 -4.554255742324689216e+00 1.911009929763658377e+01 -4.554255742324689216e+00 1.437123407999452773e+01 1.242232770344907955e+01 1.911009929763658377e+01 1.242232770344907955e+01 -1.653088726562619470e+01
2.317148984006497159e+01 -4.595942908657877801e+00 1.892135156042709454e+01 -4.595942908657877801e+00 1.474946405111296954e+01 1.226532455529950205e+01 1.892135156042709454e+01 1.226532455529950205e+01 -1.577356742481432761e+01
-3.348737813490971149e+01 1.353011454585223028e+01 -1.734010521013115280e+01 1.353011454585223028e+01 1.195207151702868398e+00 1.660847939145810059e+01 -1.734010521013115280e+01 1.660847939145810059e+01 -2.089943615259654663e+01
-3.341987998036066188e+01 1.346903595190625147e+01 -1.731203354772524250e+01 1.346903595190625147e+01 1.377719341449699320e+00 1.670423474484667636e+01 -1.731203354772524250e+01 1.670423474484667636e+01 -2.056834638681102234e+01
-3.330434644314875214e+01 1.339984941581131217e+01 -1.726333023390137100e+01 1.339984941581131217e+01 1.578098689753631101e+00 1.678063864820923001e+01 -1.726333023390137100e+01 1.678063864820923001e+01 -2.015582468031198360e+01
-3.314137123986155586e+01 1.332287034950455151e+01 -1.719388394679936738e+01 1.332287034950455151e+01 1.794935119719191174e+00 1.683732002867853694e+01 -1.719388394679936738e+01 1.683732002867853694e+01 -1.966539622533811027e+01
-3.293178928445033193e+01 1.323839561127975450e+01 -1.710354625727234534e+01 1.323839561127975450e+01 2.026818554450907861e+00 1.687383359881392053e+01 -1.710354625727234534e+01 1.687383359881392053e+01 -1.909969563924673253e+01
-3.267667668823004590e+01 1.314688904222096077e+01 -1.699203886066987934e+01 1.314688904222096077e+01 2.271986397829440563e+00 1.688967841024462047e+01 -1.699203886066987934e+01 1.688967841024462047e+01 -1.846171005861904746e+01
-3.237749918902625978e+01 1.304883303705556408e+01 -1.685900923776810245e+01 1.304883303705556408e+01 2.528509070945196058e+00 1.688453905103349229e+01 -1.685900923776810245e+01 1.688453905103349229e+01 -1.775502033662381862e+01
-3.203588950745478314e+01 1.294482131237113265e+01 -1.670403065476969928e+01 1.294482131237113265e+01 2.794401333958496547e+00 1.685806300195666552e+01 -1.670403065476969928e+01 1.685806300195666552e+01 -1.698350418472359991e+01
-3.165355457870485978e+01 1.283544758475523828e+01 -1.652656505601719061e+01 1.283544758475523828e+01 3.067733607959748809e+00 1.680999051200708294e+01 -1.652656505601719061e+01 1.680999051200708294e+01 -1.615081667066059268e+01
-3.123255385718962884e+01 1.272136123172552757e+01 -1.632601872492300643e+01 1.272136123172552757e+01 3.346335116675659638e+00 1.674019170568121240e+01 -1.632601872492300643e+01 1.674019170568121240e+01 -1.526142922248492084e+01
-7.840705544854953857e+00 -8.823925919212820546e+00 -6.162289976728436702e-01 -8.823925919212820546e+00 8.197381273411242120e+00 6.960623585850774786e-01 -6.162289976728436702e-01 6.960623585850774786e-01 8.946629740737122916e+00
-7.746582030405364527e+00 -8.954217432880852812e+00 -5.968803827063348111e-01 -8.954217432880852812e+00 8.208419558886999923e+00 6.702642052963990738e-01 -5.968803827063348111e-01 6.702642052963990738e-01 9.083298528992623133e+00
-7.648375614945101653e+00 -9.074518485226306552e+00 -5.780195479490657373e-01 -9.074518485226306552e+00 8.209214459968723787e+00 6.577083813918951360e-01 -5.780195479490657373e-01 6.577083813918951360e-01 9.198215933102764197e+00
-7.546935397356914876e+00 -9.184034175167461456e+00 -5.599716802071961208e-01 -9.184034175167461456e+00 8.199838240391116528e+00 6.584852165399436297e-01 -5.599716802071961208e-01 6.584852165399436297e-01 9.288021689403899828e+00
-7.443706652334850737e+00 -9.281843140086863286e+00 -5.429535706848326315e-01 -9.281843140086863286e+00 8.179712790276559176e+00 6.725766448068688508e-01 -5.429535706848326315e-01 6.725766448068688508e-01 9.350927270462147334e+00
-7.340568236981162897e+00 -9.367078215168085364e+00 -5.271097468513795681e-01 -9.367078215168085364e+00 8.147970944808625049e+00 6.999826661926707994e-01 -5.271097468513795681e-01 6.999826661926707994e-01 9.384746698302768309e+00
-7.239525469933838941e+00 -9.439016763064104865e+00 -5.125486043088902655e-01 -9.439016763064104865e+00 8.103655209502512946e+00 7.406129510289716222e-01 -5.125486043088902655e-01 7.406129510289716222e-01 9.387167533415290421e+00
-7.142692065432918014e+00 -9.497026476096280589e+00 -4.993604727257422993e-01 -9.497026476096280589e+00 8.045663562404014257e+00 7.944133015147449850e-01 -4.993604727257422993e-01 7.944133015147449850e-01 9.355805072554545632e+00
-7.052290133320490817e+00 -9.540565376254344088e+00 -4.874550224335580939e-01 -9.540565376254344088e+00 7.972857849691566301e+00 8.613295198489641091e-01 -4.874550224335580939e-01 8.613295198489641091e-01 9.288112019072277903e+00
-6.970632113107026129e+00 -9.569145683329056240e+00 -4.768683852996886130e-01 -9.569145683329056240e+00 7.884027653808910685e+00 9.412351444959000668e-01 -4.768683852996886130e-01 9.412351444959000668e-01 9.181432680718183192e+00
5.730166576842526283e+00 -8.644876800291054764e+00 1.065555087733903683e+01 -8.644876800291054764e+00 1.738048117871480969e+01 2.629565389306218037e+01 1.065555087733903683e+01 2.629565389306218037e+01 3.078945474066376420e+01
5.779259506112683020e+00 -8.633413476705129597e+00 1.066156734220245639e+01 -8.633413476705129597e+00 1.744632408856626071e+01 2.625868289447838322e+01 1.066156734220245639e+01 2.625868289447838322e+01 3.094145057932869136e+01
5.803556768061111093e+00 -8.611964245461278367e+00 1.065175943646356771e+01 -8.611964245461278367e+00 1.746964233995998939e+01 2.618687692033921977e+01 1.065175943646356771e+01 2.618687692033921977e+01 3.099566996386708340e+01
5.802221753668339588e+00 -8.580778309246154478e+00 1.062619836088998326e+01 -8.580778309246154478e+00 1.745040033251218858e+01 2.608020037026088644e+01 1.062619836088998326e+01 2.608020037026088644e+01 3.094963866760435067e+01
5.774453454298708266e+00 -8.540033669978791764e+00 1.058488411548170482e+01 -8.540033669978791764e+00 1.738847346487953160e+01 2.593879564577860819e+01 1.058488411548170482e+01 2.593879564577860819e+01 3.080241328036958848e+01
5.718952455943251856e+00 -8.490139732072972123e+00 1.052770989908730925e+01 -8.490139732072972123e+00 1.728354133360774725e+01 2.576300095053855443e+01 1.052770989908730925e+01 2.576300095053855443e+01 3.055305039199191341e+01
5.634365944017297068e+00 -8.431470299558673887e+00 1.045444430921205026e+01 -8.431470299558673887e+00 1.713544373696971235e+01 2.555306548722737858e+01 1.045444430921205026e+01 2.555306548722737858e+01 3.020058879210853320e+01
5.518913899330482487e+00 -8.364505977617293198e+00 1.036492714412879579e+01 -8.364505977617293198e+00 1.694382467112735213e+01 2.530948766121837679e+01 1.036492714412879579e+01 2.530948766121837679e+01 2.974394266901332529e+01
5.371225707106230374e+00 -8.289798572197842219e+00 1.025869559884805149e+01 -8.289798572197842219e+00 1.670875533684827730e+01 2.503262347634962737e+01 1.025869559884805149e+01 2.503262347634962737e+01 2.918250681618156150e+01
5.189450147386564183e+00 -8.208024490592658040e+00 1.013537586933984080e+01 -8.208024490592658040e+00 1.643012893298106647e+01 2.472300693837823360e+01 1.013537586933984080e+01 2.472300693837823360e+01 2.851564042670471721e+01
4.234726803808412399e+01 1.260239957381351239e+01 -2.239416024977877839e+01 1.260239957381351239e+01 1.408785577450560211e+01 3.207321933741722475e+00 -2.239416024977877839e+01 3.207321933741722475e+00 4.763695753019310075e+01
4.209024342678910102e+01 1.255823438775085599e+01 -2.233255959864866469e+01 1.255823438775085599e+01 1.428352432035281971e+01 3.047537601570414090e+00 -2.233255959864866469e+01 3.047537601570414090e+00 4.755414780632562355e+01
4.174555231879217132e+01 1.249719278960887436e+01 -2.221005711262360549e+01 1.249719278960887436e+01 1.443626807895480191e+01 2.900838603402638771e+00 -2.221005711262360549e+01 2.900838603402638771e+00 4.729074649688467957e+01
4.131716049622792042e+01 1.242006094765213753e+01 -2.202810283539157155e+01 1.242006094765213753e+01 1.454491653311764487e+01 2.767085175991361723e+00 -2.202810283539157155e+01 2.767085175991361723e+00 4.684965368924623874e+01
4.080831745458988280e+01 1.232788708623339602e+01 -2.178877574525219174e+01 1.232788708623339602e+01 1.460686659236534446e+01 2.646207437713067545e+00 -2.178877574525219174e+01 2.646207437713067545e+00 4.623390923403327690e+01
4.022309379844790556e+01 1.222194654498182942e+01 -2.149441687659328437e+01 1.222194654498182942e+01 1.461953263662777580e+01 2.537908391667808683e+00 -2.149441687659328437e+01 2.537908391667808683e+00 4.544698974201575936e+01
3.956576977724240862e+01 1.210384660123833100e+01 -2.114776908313788439e+01 1.210384660123833100e+01 1.458036398664657618e+01 2.441856100143879882e+00 -2.114776908313788439e+01 2.441856100143879882e+00 4.449317546263408474e+01
3.884083528528434925e+01 1.197531682518494023e+01 -2.075185474510309191e+01 1.197531682518494023e+01 1.448667019991634142e+01 2.357666214211938449e+00 -2.075185474510309191e+01 2.357666214211938449e+00 4.337751534318736191e+01
3.805321697703165995e+01 1.183827896146837055e+01 -2.031004565082360358e+01 1.183827896146837055e+01 1.433630241651392723e+01 2.284936914536762842e+00 -2.031004565082360358e+01 2.284936914536762842e+00 4.210572220639808450e+01
3.720805115181283185e+01 1.169477704757649050e+01 -1.982590576309877406e+01 1.169477704757649050e+01 1.412702442448680173e+01 2.223039266506700695e+00 -1.982590576309877406e+01 2.223039266506700695e+00 4.068420769122393210e+01
-1.699371701312810856e+01 5.580892841963458473e+00 1.376455330593221227e+01 5.580892841963458473e+00 -1.452816764022312412e+01 -5.361515876216622623e+00 1.376455330593221227e+01 -5.361515876216622623e+00 1.963705095954361823e+01
-1.708945280583062143e+01 5.547087571621612589e+00 1.381402443326174101e+01 5.547087571621612589e+00 -1.445790031677544007e+01 -5.405050468266608732e+00 1.381402443326174101e+01 -5.405050468266608732e+00 1.958563763240041311e+01
-1.720268671949598982e+01 5.510094161962975967e+00 1.383397778795131750e+01 5.510094161962975967e+00 -1.440238271832785877e+01 -5.421320972366098445e+00 1.383397778795131750e+01 -5.421320972366098445e+00 1.947253197721330409e+01
-1.733263088061488943e+01 5.470224097863326307e+00 1.382446833792019802e+01 5.470224097863326307e+00 -1.436223781463193383e+01 -5.410217452676581829e+00 1.382446833792019802e+01 -5.410217452676581829e+00 1.929628650544191970e+01
-1.747934025710656769e+01 5.427752218918937110e+00 1.378569763220564859e+01 5.427752218918937110e+00 -1.433850999615351007e+01 -5.371758231837810982e+00 1.378569763220564859e+01 -5.371758231837810982e+00 1.905688289444649897e+01
-1.764301639800830301e+01 5.383008332645340843e+00 1.371773896136667581e+01 5.383008332645340843e+00 -1.433275668727148400e+01 -5.306126536247301573e+00 1.371773896136667581e+01 -5.306126536247301573e+00 1.875371649711524569e+01
-1.782404407875488062e+01 5.336212310719556484e+00 1.362072058388154261e+01 5.336212310719556484e+00 -1.434655363500449710e+01 -5.213542237582076133e+00 1.362072058388154261e+01 -5.213542237582076133e+00 1.838625595689535075e+01
-1.802304626909784702e+01 5.287675638017362623e+00 1.349475243558876159e+01 5.287675638017362623e+00 -1.438195297500473835e+01 -5.094316820717909700e+00 1.349475243558876159e+01 -5.094316820717909700e+00 1.795343856068122790e+01
-1.824068258406827425e+01 5.237618186215780014e+00 1.333992612968708613e+01 5.237618186215780014e+00 -1.444049380901134860e+01 -4.948871706369093459e+00 1.333992612968708613e+01 -4.948871706369093459e+00 1.745456804816230090e+01
-1.847781418773448436e+01 5.186314794911083048e+00 1.315636992465478095e+01 5.186314794911083048e+00 -1.452437485379452831e+01 -4.777500056771653014e+00 1.315636992465478095e+01 -4.777500056771653014e+00 1.688838015719571217e+01
-3.425279998205823517e+01 2.490478095293412686e+00 -1.098755895778094072e+01 2.490478095293412686e+00 1.694255384103453110e+01 -5.986033603415669369e+00 -1.098755895778094072e+01 -5.986033603415669369e+00 -3.617459249173603553e+01