-3.431980841199999759e+02
-3.431964399600000206e+02
-3.431900085600000239e+02
-3.431789678999999751e+02
-3.431636057100000130e+02
-3.431443099100000040e+02
-3.431215492900000186e+02
-3.430958536599999888e+02
-3.430677923700000065e+02
-3.430379554099999950e+02
-3.425976527299999930e+02
-3.425946874100000059e+02
-3.425881452799999920e+02
-3.425781418799999756e+02
-3.425648948799999971e+02
-3.425487088699999845e+02
-3.425299708599999917e+02
-3.425091224500000067e+02
-3.424866518599999949e+02
-3.424630738100000258e+02
-3.425525219400000196e+02
-3.425585594600000263e+02
-3.425621092499999918e+02
-3.425632604200000060e+02
-3.425622102300000051e+02
-3.425592503500000134e+02
-3.425547497800000087e+02
-3.425491286000000173e+02
-3.425428370999999856e+02
-3.425363291400000207e+02
-3.427396593700000267e+02
-3.427397258299999976e+02
-3.427355622900000185e+02
-3.427272769799999992e+02
-3.427150977399999761e+02
-3.426993698399999744e+02
-3.426805335399999990e+02
-3.426591111399999932e+02
-3.426356874699999935e+02
-3.426108792100000073e+02
-3.419484284399999865e+02
-3.419330020599999784e+02
-3.419162920200000144e+02
-3.418986429099999782e+02
-3.418804420700000151e+02
-3.418621226199999796e+02
-3.418441393200000107e+02
-3.418269618599999831e+02
-3.418110603800000149e+02
-3.417968989400000055e+02
-3.420478989200000228e+02
-3.420438666000000012e+02
-3.420390477199999850e+02
-3.420335758900000087e+02
-3.420276304500000037e+02
-3.420214280499999973e+02
-3.420152191199999834e+02
-3.420092791000000148e+02
-3.420039019299999836e+02
-3.419993913399999883e+02
-3.420231593600000224e+02
-3.420223743600000148e+02
-3.420206642499999816e+02
-3.420180577400000175e+02
-3.420146229200000221e+02
-3.420104654500000265e+02
-3.420057197599999768e+02
-3.420005475799999886e+02
-3.419951305999999818e+02
-3.419896657900000037e+02
-3.426351378100000034e+02
-3.426258543999999802e+02
-3.426127017700000010e+02
-3.425959578599999986e+02
-3.425760088999999766e+02
-3.425533351199999856e+02
-3.425284896900000149e+02
-3.425020768399999724e+02
-3.424747322499999882e+02
-3.424471022800000242e+02
-3.422780323800000133e+02
-3.422677095299999905e+02
-3.422558113499999877e+02
-3.422426422500000172e+02
-3.422286136999999826e+02
-3.422142215299999748e+02
-3.422000262999999904e+02
-3.421866184799999928e+02
-3.421746003100000166e+02
-3.421645556500000112e+02
-3.429730043399999886e+02
-3.429691907100000208e+02
-3.429605667499999981e+02
-3.429473686100000123e+02
-3.429299532499999827e+02
-3.429087870899999757e+02
-3.428844220199999882e+02
-3.428574713799999927e+02
-3.428285916300000054e+02
-3.427984524999999962e+02
-3.416882563600000253e+02
-3.417030690700000264e+02
-3.417196050800000080e+02
-3.417377096299999835e+02
-3.417572349100000224e+02
-3.417780503500000009e+02
-3.418000446899999929e+02
-3.418231236400000057e+02
-3.418472153299999832e+02
-3.418722665000000234e+02
-3.418293659400000024e+02
-3.418427525899999750e+02
-3.418573029400000109e+02
-3.418728578899999775e+02
-3.418892982799999913e+02
-3.419065501399999789e+02
-3.419245654000000059e+02
-3.419433147099999815e+02
-3.419627770100000248e+02
-3.419829283899999837e+02
-3.424669379800000115e+02
-3.424721197800000141e+02
-3.424728827800000204e+02
-3.424692788199999995e+02
-3.424614809199999854e+02
-3.424497721000000183e+02
-3.424345346499999891e+02
-3.424162186799999859e+02
-3.423953306000000225e+02
-3.423724049699999910e+02
-3.418505218999999897e+02
-3.418622201499999846e+02
-3.418746911800000134e+02
-3.418878432299999872e+02
-3.419016235099999790e+02
-3.419160136799999918e+02
-3.419310280099999773e+02
-3.419467156900000191e+02
-3.419631565700000237e+02
-3.419804497700000070e+02
-3.422847575900000265e+02
-3.422802300000000173e+02
-3.422724232499999744e+02
-3.422615413999999987e+02
-3.422478920600000265e+02
-3.422318678699999737e+02
-3.422139368499999819e+02
-3.421946166500000004e+02
-3.421744691299999772e+02
-3.421540710900000022e+02
-3.424568322499999908e+02
-3.424569800500000269e+02
-3.424536855000000060e+02
-3.424471367799999939e+02
-3.424376599299999953e+02
-3.424256931200000054e+02
-3.424117651299999920e+02
-3.423964816999999812e+02
-3.423804890100000193e+02
-3.423644479999999817e+02
-3.428257667199999901e+02
-3.428223043799999914e+02
-3.428158637099999737e+02
-3.428066878100000281e+02
-3.427951148500000045e+02
-3.427815762199999767e+02
-3.427665652900000168e+02
-3.427506250499999965e+02
-3.427343167099999732e+02
-3.427182095300000242e+02
-3.424192450699999881e+02
-3.424162316100000112e+02
-3.424095926200000122e+02
-3.423995077600000059e+02
-3.423862481499999717e+02
-3.423701514300000213e+02
-3.423516010800000231e+02
-3.423310192299999812e+02
-3.423088418599999727e+02
-3.422854950700000245e+02
-3.422575997199999733e+02
-3.422609143700000232e+02
-3.422633292799999936e+02
-3.422648999400000207e+02
-3.422657401700000150e+02
-3.422660080100000073e+02
-3.422659100100000273e+02
-3.422656909899999960e+02
-3.422656232499999760e+02
-3.422660029599999802e+02
-3.429701882499999783e+02
-3.429722423499999877e+02
-3.429701800500000104e+02
-3.429641517100000101e+02
-3.429544223600000237e+02
-3.429413598500000262e+02
-3.429254135400000223e+02
-3.429071004499999731e+02
-3.428869757900000081e+02
-3.428656190599999718e+02
-3.426585548499999732e+02
-3.426566679800000088e+02
-3.426504623199999742e+02
-3.426400823600000081e+02
-3.426258228600000280e+02
-3.426081173599999943e+02
-3.425875133100000198e+02
-3.425646477999999888e+02
-3.425402141100000222e+02
-3.425149458999999865e+02
-3.425111266399999863e+02
-3.425089991400000144e+02
-3.425058165899999949e+02
-3.425016944600000102e+02
-3.424967832300000055e+02
-3.424912754299999733e+02
-3.424853882500000282e+02
-3.424793729599999779e+02
-3.424734950600000047e+02
-3.424680342199999927e+02
-3.403232897899999898e+02
-3.403483418800000209e+02
-3.403800748599999793e+02
-3.404180692599999816e+02
-3.404618736599999806e+02
-3.405109912699999768e+02
-3.405648752800000238e+02
-3.406229130899999973e+02
-3.406844188900000177e+02
-3.407486351200000172e+02
-3.420578623900000252e+02
-3.420583231400000273e+02
-3.420576516900000001e+02
-3.420559069399999998e+02
-3.420532020900000134e+02
-3.420497108700000126e+02
-3.420456498799999849e+02
-3.420412768799999981e+02
-3.420368807199999992e+02
-3.420327758700000231e+02
-3.426706824999999981e+02
-3.426688806799999725e+02
-3.426638554300000123e+02
-3.426558147499999905e+02
-3.426450421000000119e+02
-3.426318940599999792e+02
-3.426167783500000041e+02
-3.426001471800000218e+02
-3.425824802100000284e+02
-3.425642673799999898e+02
-3.423261273100000039e+02
-3.423211079299999824e+02
-3.423163009599999782e+02
-3.423118260800000030e+02
-3.423078216700000098e+02
-3.423044415599999866e+02
-3.423018480700000055e+02
-3.423002124199999798e+02
-3.422997019800000089e+02
-3.423004819799999723e+02
-3.425880732599999874e+02
-3.425787647500000048e+02
-3.425651493099999811e+02
-3.425475656099999924e+02
-3.425264642000000208e+02
-3.425023865900000146e+02
-3.424759422999999856e+02
-3.424477910800000018e+02
-3.424186209399999825e+02
-3.423891286799999989e+02
-3.424271648899999718e+02
-3.424353077100000178e+02
-3.424421401199999764e+02
-3.424476020800000242e+02
-3.424516740299999924e+02
-3.424543853700000113e+02
-3.424558134700000096e+02
-3.424560835999999995e+02
-3.424553564500000107e+02
-3.424538241600000106e+02
-3.424587629800000173e+02
-3.424544601599999964e+02
-3.424467947200000140e+02
-3.424360122499999761e+02
-3.424224416100000212e+02
-3.424064874700000018e+02
-3.423886132399999838e+02
-3.423693227300000217e+02
-3.423491314199999920e+02
-3.423285588599999869e+02
-3.415394261299999812e+02
-3.415532972099999824e+02
-3.415685511699999779e+02
-3.415849528800000030e+02
-3.416023197600000003e+02
-3.416205226999999809e+02
-3.416394887700000140e+02
-3.416591932700000029e+02
-3.416796502999999916e+02
-3.417008971500000030e+02
-3.423601831199999879e+02
-3.423515988899999911e+02
-3.423415797900000257e+02
-3.423303280900000232e+02
-3.423181393300000082e+02
-3.423053866800000264e+02
-3.422924974000000020e+02
-3.422799396999999999e+02
-3.422681977400000051e+02
-3.422577483599999937e+02
-3.425832408100000066e+02
-3.425846306999999911e+02
-3.425819104400000015e+02
-3.425752186899999856e+02
-3.425648062399999958e+02
-3.425510259399999882e+02
-3.425343120300000237e+02
-3.425151696400000105e+02
-3.424941539700000135e+02
-3.424718528299999889e+02
-3.426827967799999897e+02
-3.426783072499999889e+02
-3.426701055799999835e+02
-3.426584357699999828e+02
-3.426436838600000101e+02
-3.426263564700000188e+02
-3.426070529899999997e+02
-3.425864398300000175e+02
-3.425652210499999910e+02
-3.425441030000000069e+02
-3.412115219099999877e+02
-3.412187183400000094e+02
-3.412269051100000183e+02
-3.412360336300000085e+02
-3.412460778000000232e+02
-3.412570318200000088e+02
-3.412689173300000220e+02
-3.412817701000000170e+02
-3.412956544499999723e+02
-3.413106417600000100e+02
-3.414894396400000005e+02
-3.414881270800000266e+02
-3.414822031300000162e+02
-3.414720085700000141e+02
-3.414580269200000089e+02
-3.414408592400000089e+02
-3.414211904900000150e+02
-3.413997637499999769e+02
-3.413773503499999720e+02
-3.413547175799999991e+02
-3.428938007300000095e+02
-3.428936027899999885e+02
-3.428890625700000214e+02
-3.428803347900000063e+02
-3.428676989300000173e+02
-3.428515476499999863e+02
-3.428323638800000026e+02
-3.428107006600000091e+02
-3.427871624300000235e+02
-3.427623778600000151e+02
-3.410692614499999991e+02
-3.410733240600000045e+02
-3.410857519099999990e+02
-3.411062970899999982e+02
-3.411346115299999724e+02
-3.411702593100000058e+02
-3.412126892200000157e+02
-3.412612457399999926e+02
-3.413151505700000143e+02
-3.413735166499999991e+02
-3.422879325499999936e+02
-3.422777442400000041e+02
-3.422678288999999836e+02
-3.422585408300000154e+02
-3.422502978399999733e+02
-3.422435588399999915e+02
-3.422387994399999798e+02
-3.422364986900000190e+02
-3.422371000900000126e+02
-3.422410049999999728e+02
-3.421447888800000214e+02
-3.421409505199999899e+02
-3.421316969200000244e+02
-3.421173781300000201e+02
-3.420985265200000072e+02
-3.420758252300000208e+02
-3.420500793799999997e+02
-3.420221708899999840e+02
-3.419930291900000157e+02
-3.419635909400000173e+02
-3.423796428900000137e+02
-3.423849510900000155e+02
-3.423855614700000274e+02
-3.423815362099999788e+02
-3.423730958900000019e+02
-3.423605946000000131e+02
-3.423445128000000182e+02
-3.423254263100000117e+02
-3.423039777299999855e+02
-3.422808443700000112e+02
-3.420258741800000166e+02
-3.420216865300000109e+02
-3.420136184300000082e+02
-3.420018989499999975e+02
-3.419869219899999848e+02
-3.419692224400000100e+02
-3.419494505600000025e+02
-3.419283359899999937e+02
-3.419066589700000236e+02
-3.418852094700000066e+02
-3.426891095899999868e+02
-3.426896148999999809e+02
-3.426852519099999768e+02
-3.426762436700000194e+02
-3.426629667700000255e+02
-3.426459265799999798e+02
-3.426257395800000154e+02
-3.426031036100000051e+02
-3.425787682000000132e+02
-3.425535091799999918e+02
-3.421006194299999947e+02
-3.420937711199999853e+02
-3.420877328799999759e+02
-3.420827020500000231e+02
-3.420789110299999720e+02
-3.420766260099999840e+02
-3.420761194400000136e+02
-3.420776552099999890e+02
-3.420814719900000114e+02
-3.420877632500000232e+02
-3.415691097199999717e+02
-3.415851322699999741e+02
-3.416065282800000205e+02
-3.416329190600000061e+02
-3.416638954200000171e+02
-3.416989987599999949e+02
-3.417377318100000139e+02
-3.417795459299999834e+02
-3.418238579200000231e+02
-3.418700435700000071e+02
-3.411196073899999988e+02
-3.411342033799999740e+02
-3.411554281699999933e+02
-3.411830267999999933e+02
-3.412167114700000070e+02
-3.412561447699999917e+02
-3.413009331499999917e+02
-3.413506100399999923e+02
-3.414046221799999898e+02
-3.414623296799999821e+02
-3.422112814100000264e+02
-3.422196210700000165e+02
-3.422270994500000256e+02
-3.422336917299999755e+02
-3.422394349200000079e+02
-3.422444175800000039e+02
-3.422487800800000173e+02
-3.422526882099999739e+02
-3.422563259799999855e+02
-3.422598748099999852e+02
-3.419852974099999869e+02
-3.419693695000000275e+02
-3.419540685000000053e+02
-3.419396702700000219e+02
-3.419264524499999993e+02
-3.419147015600000259e+02
-3.419047011000000111e+02
-3.418967289099999789e+02
-3.418910493800000268e+02
-3.418879078100000015e+02
-3.425199078800000052e+02
-3.425240892799999983e+02
-3.425256037799999831e+02
-3.425244906899999933e+02
-3.425208598300000062e+02
-3.425148865900000033e+02
-3.425068184900000006e+02
-3.424969554699999890e+02
-3.424856345000000033e+02
-3.424732264599999780e+02
-3.429501073600000041e+02
-3.429468206600000144e+02
-3.429398536499999750e+02
-3.429294014899999752e+02
-3.429157535599999846e+02
-3.428992871500000206e+02
-3.428804441999999995e+02
-3.428597157199999970e+02
-3.428376184599999874e+02
-3.428146824400000128e+02
-3.405322052899999790e+02
-3.405583731599999737e+02
-3.405914414000000079e+02
-3.406309224799999811e+02
-3.406762713800000029e+02
-3.407268717499999866e+02
-3.407820364699999800e+02
-3.408409964400000263e+02
-3.409029127800000083e+02
-3.409668822599999771e+02
-3.426746127299999785e+02
-3.426764052300000003e+02
-3.426745548999999755e+02
-3.426692049000000111e+02
-3.426606295000000273e+02
-3.426492150799999763e+02
-3.426354458100000215e+02
-3.426198785400000020e+02
-3.426031133299999851e+02
-3.425857693199999972e+02
-3.412976814599999784e+02
-3.413116371200000003e+02
-3.413308048900000244e+02
-3.413548397600000044e+02
-3.413833644000000049e+02
-3.414159610400000133e+02
-3.414521835699999883e+02
-3.414915508400000022e+02
-3.415335546599999930e+02
-3.415776637499999993e+02
-3.430512777100000221e+02
-3.430519465099999934e+02
-3.430483545100000242e+02
-3.430406809599999747e+02
-3.430292132199999742e+02
-3.430143252600000210e+02
-3.429964644400000111e+02
-3.429761312900000121e+02
-3.429538588500000174e+02
-3.429301935899999876e+02
-3.422388367400000106e+02
-3.422423057500000141e+02
-3.422439703000000009e+02
-3.422439163500000063e+02
-3.422423121699999911e+02
-3.422394007199999919e+02
-3.422354961099999855e+02
-3.422309673899999893e+02
-3.422262201099999857e+02
-3.422216884700000037e+02
-3.413182699399999933e+02
-3.413230532800000105e+02
-3.413297749299999850e+02
-3.413383779499999946e+02
-3.413487967600000275e+02
-3.413609593300000142e+02
-3.413747899400000279e+02
-3.413902034299999855e+02
-3.414071137799999747e+02
-3.414254346800000235e+02
-3.426830969600000003e+02
-3.426775419300000181e+02
-3.426667179199999964e+02
-3.426509600300000216e+02
-3.426307638600000018e+02
-3.426067452500000172e+02
-3.425796296500000153e+02
-3.425502074400000083e+02
-3.425193161600000167e+02
-3.424878049299999816e+02
-3.423637671999999839e+02
-3.423659497500000271e+02
-3.423654007299999762e+02
-3.423621710799999960e+02
-3.423563792699999908e+02
-3.423482191300000181e+02
-3.423379547299999786e+02
-3.423258973299999752e+02
-3.423124039599999833e+02
-3.422978636999999935e+02
-3.425470356899999729e+02
-3.425587966599999845e+02
-3.425675541499999781e+02
-3.425732178299999759e+02
-3.425758025700000076e+02
-3.425754182300000252e+02
-3.425722654900000066e+02
-3.425666355700000167e+02
-3.425588872100000231e+02
-3.425494398700000147e+02
-3.422089547900000071e+02
-3.422086240500000258e+02
-3.422037516500000152e+02
-3.421945440499999904e+02
-3.421813157099999785e+02
-3.421644918499999903e+02
-3.421445835700000089e+02
-3.421221658499999876e+02
-3.420978626599999757e+02
-3.420723136099999806e+02
-3.423595052000000010e+02
-3.423637925699999869e+02
-3.423668194900000117e+02
-3.423686163300000089e+02
-3.423692699700000048e+02
-3.423689209199999937e+02
-3.423677573200000097e+02
-3.423660114300000146e+02
-3.423639428899999757e+02
-3.423618371100000104e+02
-3.425397136600000181e+02
-3.425436586399999896e+02
-3.425455922200000032e+02
-3.425456422999999972e+02
-3.425440294200000153e+02
-3.425410631600000215e+02
-3.425371141800000032e+02
-3.425326080699999807e+02
-3.425279872400000158e+02
-3.425236977800000204e+02
-3.424390127699999766e+02
-3.424375307700000235e+02
-3.424358483299999989e+02
-3.424342320100000165e+02
-3.424330272700000251e+02
-3.424326330200000257e+02
-3.424334831499999723e+02
-3.424360060899999780e+02
-3.424406137999999942e+02
-3.424476614899999731e+02
-3.428380953800000270e+02
-3.428406679199999871e+02
-3.428378551299999799e+02
-3.428297313400000235e+02
-3.428165249599999811e+02
-3.427986053899999774e+02
-3.427764701599999739e+02
-3.427507154099999980e+02
-3.427220156399999951e+02
-3.426910931400000209e+02
-3.421895037799999955e+02
-3.421912866700000109e+02
-3.421935010400000010e+02
-3.421962718600000244e+02
-3.421997981000000095e+02
-3.422043315199999824e+02
-3.422101639200000136e+02
-3.422176029699999731e+02
-3.422269517799999790e+02
-3.422384782199999904e+02
-3.425125885799999992e+02
-3.425230901099999983e+02
-3.425289707200000180e+02
-3.425301808500000220e+02
-3.425268164500000125e+02
-3.425191138000000137e+02
-3.425074438099999838e+02
-3.424922954900000036e+02
-3.424742500300000074e+02
-3.424539623900000151e+02
-3.426973844799999824e+02
-3.426937683599999787e+02
-3.426872521899999811e+02
-3.426781222199999775e+02
-3.426667549900000154e+02
-3.426536025400000085e+02
-3.426391673100000048e+02
-3.426239882899999998e+02
-3.426086196499999801e+02
-3.425936127100000022e+02
-3.422788926599999968e+02
-3.422797001900000282e+02
-3.422795442999999977e+02
-3.422785198999999920e+02
-3.422767681899999843e+02
-3.422744735900000137e+02
-3.422718583299999864e+02
-3.422691731799999957e+02
-3.422666888100000051e+02
-3.422646834199999830e+02
-3.423456288900000004e+02
-3.423520341799999755e+02
-3.423575737900000036e+02
-3.423622403900000108e+02
-3.423660805900000241e+02
-3.423691915200000153e+02
-3.423717223400000194e+02
-3.423738684200000080e+02
-3.423758556899999803e+02
-3.423779402999999775e+02
-3.415131200299999819e+02
-3.415102550700000279e+02
-3.415112325900000201e+02
-3.415160398099999952e+02
-3.415246755200000166e+02
-3.415371406099999945e+02
-3.415534280100000046e+02
-3.415735098399999856e+02
-3.415973219900000117e+02
-3.416247424599999931e+02
-3.418252316900000096e+02
-3.418189836399999990e+02
-3.418090029400000276e+02
-3.417954406399999812e+02
-3.417785603199999969e+02
-3.417587319300000104e+02
-3.417364087899999845e+02
-3.417121180199999912e+02
-3.416864382300000216e+02
-3.416599781799999960e+02
-3.420373963299999787e+02
-3.420373865000000251e+02
-3.420393385500000250e+02
-3.420434816000000069e+02
-3.420501160399999776e+02
-3.420595874100000060e+02
-3.420722485300000244e+02
-3.420884409700000219e+02
-3.421084501999999929e+02
-3.421324765200000115e+02
-3.420836989700000004e+02
-3.420830115900000123e+02
-3.420783136599999921e+02
-3.420697538300000247e+02
-3.420575676600000179e+02
-3.420420722299999738e+02
-3.420236472000000276e+02
-3.420027202399999737e+02
-3.419797478300000080e+02
-3.419551963700000101e+02
-3.423546877200000154e+02
-3.423562857800000074e+02
-3.423561089300000049e+02
-3.423542654199999902e+02
-3.423509168599999839e+02
-3.423462764299999890e+02
-3.423406048300000180e+02
-3.423342038399999865e+02
-3.423273968199999899e+02
-3.423205201499999930e+02
-3.424293616799999995e+02
-3.424338121200000273e+02
-3.424356834199999753e+02
-3.424349763899999743e+02
-3.424317691800000034e+02
-3.424262154599999803e+02
-3.424185354300000199e+02
-3.424090068400000177e+02
-3.423979481700000065e+02
-3.423857178599999997e+02
-3.421201548399999979e+02
-3.421186929200000009e+02
-3.421146535500000141e+02
-3.421081965700000183e+02
-3.420995665300000041e+02
-3.420890864500000248e+02
-3.420771347400000195e+02
-3.420641462300000057e+02
-3.420505714000000239e+02
-3.420368729900000062e+02
-3.428214115200000265e+02
-3.428186013700000103e+02
-3.428106361900000252e+02
-3.427976845700000013e+02
-3.427800571000000218e+02
-3.427581942900000058e+02
-3.427326361199999951e+02
-3.427040054500000110e+02
-3.426729737000000000e+02
-3.426402424199999928e+02
-3.425276772899999855e+02
-3.425242721299999857e+02
-3.425177413600000023e+02
-3.425082662199999959e+02
-3.424961040100000105e+02
-3.424815822200000071e+02
-3.424650772499999789e+02
-3.424470159300000205e+02
-3.424278433599999971e+02
-3.424080256600000212e+02
-3.424657974099999933e+02
-3.424631899799999815e+02
-3.424568414400000052e+02
-3.424468910800000003e+02
-3.424335834199999908e+02
-3.424172717700000135e+02
-3.423984007700000234e+02
-3.423774872600000094e+02
-3.423551125999999840e+02
-3.423318893100000082e+02
-3.413763410899999826e+02
-3.413814933300000121e+02
-3.413895530199999939e+02
-3.414004171400000018e+02
-3.414140345199999729e+02
-3.414303950699999746e+02
-3.414495239899999888e+02
-3.414714402600000085e+02
-3.414961436799999888e+02
-3.415235824999999750e+02
-3.425729797399999939e+02
-3.425719419199999720e+02
-3.425674339999999916e+02
-3.425595953000000122e+02
-3.425486721500000158e+02
-3.425350101700000209e+02
-3.425190457599999831e+02
-3.425012849999999958e+02
-3.424822815100000071e+02
-3.424626230399999827e+02
-3.423128907400000003e+02
-3.423092835400000240e+02
-3.423031230099999789e+02
-3.422946470200000135e+02
-3.422842024500000093e+02
-3.422722276900000224e+02
-3.422592326800000251e+02
-3.422457754299999806e+02
-3.422324378700000125e+02
-3.422197970600000190e+02
-3.425808766600000013e+02
-3.425805951400000140e+02
-3.425777284399999871e+02
-3.425723667199999909e+02
-3.425646750999999881e+02
-3.425548918399999820e+02
-3.425433182400000192e+02
-3.425302979599999844e+02
-3.425162139899999829e+02
-3.425014767700000107e+02
-3.420374103699999750e+02
-3.420395834999999920e+02
-3.420370836299999837e+02
-3.420300191300000279e+02
-3.420186743699999852e+02
-3.420034921600000075e+02
-3.419850521899999762e+02
-3.419640378000000283e+02
-3.419411952199999973e+02
-3.419173066899999753e+02
-3.423526538400000163e+02
-3.423537657399999716e+02
-3.423534092099999953e+02
-3.423515752199999724e+02
-3.423483067700000220e+02
-3.423436940600000185e+02
-3.423378807199999869e+02
-3.423310495499999888e+02
-3.423234168199999772e+02
-3.423152231999999913e+02
-3.420441236400000093e+02
-3.420471171699999786e+02
-3.420478590299999837e+02
-3.420464756000000079e+02
-3.420432179000000019e+02
-3.420384582300000034e+02
-3.420326648199999795e+02
-3.420263688399999751e+02
-3.420201396200000090e+02
-3.420145425300000284e+02
-3.404503992100000005e+02
-3.404699522000000229e+02
-3.404986772099999826e+02
-3.405362519700000234e+02
-3.405823001100000056e+02
-3.406363786900000150e+02
-3.406979423600000132e+02
-3.407663201500000127e+02
-3.408407128900000203e+02
-3.409201736499999811e+02
-3.413921255000000201e+02
-3.414057175400000119e+02
-3.414246096900000111e+02
-3.414485338399999819e+02
-3.414772038400000156e+02
-3.415103024499999833e+02
-3.415474834400000077e+02
-3.415883585299999936e+02
-3.416324990200000116e+02
-3.416794230400000174e+02
-3.420219539500000110e+02
-3.420244457200000170e+02
-3.420255045200000268e+02
-3.420252031300000226e+02
-3.420236644299999966e+02
-3.420210712499999772e+02
-3.420176522900000009e+02
-3.420136746900000162e+02
-3.420094337900000028e+02
-3.420052452400000220e+02
-3.424390595200000007e+02
-3.424239730499999723e+02
-3.424071992699999782e+02
-3.423890252099999998e+02
-3.423697840099999894e+02
-3.423498415199999840e+02
-3.423295864500000221e+02
-3.423094214500000021e+02
-3.422897522399999843e+02
-3.422709822200000076e+02
-3.421803433000000041e+02
-3.421850023700000065e+02
-3.421899986399999989e+02
-3.421953146500000003e+02
-3.422009496599999920e+02
-3.422069230299999845e+02
-3.422132765499999891e+02
-3.422200644100000204e+02
-3.422273593300000130e+02
-3.422352412299999855e+02
-3.425656711400000063e+02
-3.425650678000000084e+02
-3.425600868099999730e+02
-3.425508783099999732e+02
-3.425377086500000132e+02
-3.425209449199999767e+02
-3.425010402899999917e+02
-3.424785130700000195e+02
-3.424539279200000124e+02
-3.424278638999999771e+02
-3.424267540199999758e+02
-3.424344087399999808e+02
-3.424403165100000024e+02
-3.424446517599999993e+02
-3.424477142200000230e+02
-3.424499033899999745e+02
-3.424516930300000013e+02
-3.424535903500000131e+02
-3.424561041000000046e+02
-3.424597210499999846e+02
-3.422141943199999901e+02
-3.422112498899999764e+02
-3.422073733099999799e+02
-3.422027092899999730e+02
-3.421974966600000130e+02
-3.421920539999999846e+02
-3.421867631700000061e+02
-3.421820434100000057e+02
-3.421783152900000005e+02
-3.421759888500000102e+02
-3.423482592600000203e+02
-3.423406128400000057e+02
-3.423306174599999849e+02
-3.423185908799999879e+02
-3.423049187600000209e+02
-3.422900447100000179e+02
-3.422744529099999795e+02
-3.422586432699999932e+02
-3.422431147699999769e+02
-3.422283524499999885e+02
-3.411266486900000245e+02
-3.411315144499999974e+02
-3.411381067699999790e+02
-3.411465203299999871e+02
-3.411569685200000208e+02
-3.411697495199999821e+02
-3.411852159300000267e+02
-3.412037266500000214e+02
-3.412256024299999808e+02
-3.412510827400000153e+02
-3.423488125000000082e+02
-3.423509338200000229e+02
-3.423482465499999989e+02
-3.423408615999999824e+02
-3.423290182900000218e+02
-3.423130796699999792e+02
-3.422935123999999973e+02
-3.422708639200000107e+02
-3.422457388099999775e+02
-3.422187775799999940e+02
-3.417323659400000224e+02
-3.417404472299999725e+02
-3.417496353099999737e+02
-3.417598520500000063e+02
-3.417710391300000197e+02
-3.417831487999999922e+02
-3.417961485600000060e+02
-3.418100203199999783e+02
-3.418247575500000153e+02
-3.418403628600000275e+02
-3.428730266900000174e+02
-3.428669962100000248e+02
-3.428573605500000099e+02
-3.428443717000000106e+02
-3.428283874499999797e+02
-3.428098519800000190e+02
-3.427892755500000135e+02
-3.427672180899999717e+02
-3.427442565100000138e+02
-3.427209753299999875e+02
-3.409897080100000153e+02
-3.410046453100000008e+02
-3.410240738499999793e+02
-3.410477508299999840e+02
-3.410753800300000194e+02
-3.411066217100000131e+02
-3.411410968100000218e+02
-3.411784000399999854e+02
-3.412181008399999769e+02
-3.412597560799999883e+02
-3.419012360699999817e+02
-3.419028395199999864e+02
-3.418993794900000012e+02
-3.418910114099999760e+02
-3.418780539300000214e+02
-3.418609774600000151e+02
-3.418403824000000100e+02
-3.418169707800000197e+02
-3.417915191999999820e+02
-3.417648442700000260e+02
-3.414533498800000189e+02
-3.414716791399999920e+02
-3.414942594299999996e+02
-3.415205742800000053e+02
-3.415501260400000092e+02
-3.415824457300000176e+02
-3.416170991999999842e+02
-3.416536903499999767e+02
-3.416918532400000004e+02
-3.417312572000000159e+02
-3.416593364899999870e+02
-3.416571669900000074e+02
-3.416556238599999915e+02
-3.416547826500000156e+02
-3.416547404099999881e+02
-3.416556147499999838e+02
-3.416575426699999980e+02
-3.416606775500000026e+02
-3.416651821699999800e+02
-3.416712297600000170e+02
-3.429341057099999830e+02
-3.429273853000000258e+02
-3.429172568899999760e+02
-3.429039913400000046e+02
-3.428879646299999990e+02
-3.428696442599999727e+02
-3.428495655400000146e+02
-3.428283169499999872e+02
-3.428065138399999796e+02
-3.427847864999999956e+02
-3.424454348900000014e+02
-3.424353172300000097e+02
-3.424216876300000081e+02
-3.424048566899999742e+02
-3.423852259099999742e+02
-3.423632617000000096e+02
-3.423394853899999930e+02
-3.423144480999999928e+02
-3.422887059999999906e+02
-3.422628117300000099e+02
-3.416128952500000082e+02
-3.416048517899999979e+02
-3.415955977599999756e+02
-3.415854494499999987e+02
-3.415747974600000134e+02
-3.415640995599999883e+02
-3.415538516500000128e+02
-3.415445740399999863e+02
-3.415367865599999959e+02
-3.415309899599999994e+02
-3.425287450199999739e+02
-3.425305743000000120e+02
-3.425310626699999830e+02
-3.425302239600000007e+02
-3.425281181500000116e+02
-3.425248519799999940e+02
-3.425205732100000091e+02
-3.425154670499999838e+02
-3.425097473000000150e+02
-3.425036494899999866e+02
-3.426114999100000205e+02
-3.426029167400000119e+02
-3.425919722200000024e+02
-3.425788517700000284e+02
-3.425637888200000134e+02
-3.425470666900000083e+02
-3.425290021700000125e+02
-3.425099389700000074e+02
-3.424902402899999743e+02
-3.424702810800000066e+02
-3.422841967100000033e+02
-3.422840437099999917e+02
-3.422798066299999959e+02
-3.422717181599999776e+02
-3.422601436200000080e+02
-3.422455646399999978e+02
-3.422285640299999727e+02
-3.422097925599999826e+02
-3.421899442999999792e+02
-3.421697355399999765e+02
-3.425941596399999867e+02
-3.425952874199999769e+02
-3.425934652500000084e+02
-3.425888246100000174e+02
-3.425816276900000048e+02
-3.425722594900000217e+02
-3.425612037600000122e+02
-3.425490206900000203e+02
-3.425363236700000016e+02
-3.425237469799999985e+02
-3.416599026200000253e+02
-3.416708484299999782e+02
-3.416842623100000083e+02
-3.417000944900000263e+02
-3.417183586799999944e+02
-3.417391202399999770e+02
-3.417624705599999970e+02
-3.417885066599999959e+02
-3.418172898299999929e+02
-3.418488302800000156e+02
-3.425831088799999975e+02
-3.425821700100000271e+02
-3.425777835299999765e+02
-3.425701190199999928e+02
-3.425594588000000158e+02
-3.425461849499999971e+02
-3.425307633300000134e+02
-3.425137203099999965e+02
-3.424956301400000029e+02
-3.424770814999999970e+02
-3.421429623600000127e+02
-3.421441752800000131e+02
-3.421407150399999750e+02
-3.421327229199999920e+02
-3.421204716999999960e+02
-3.421043607600000200e+02
-3.420848813599999971e+02
-3.420626038300000005e+02
-3.420381436000000122e+02
-3.420121366000000194e+02
-3.428115094799999838e+02
-3.428038509699999850e+02
-3.427924472899999842e+02
-3.427776057599999717e+02
-3.427597307300000011e+02
-3.427393023899999775e+02
-3.427168573499999980e+02
-3.426929669300000114e+02
-3.426682079199999862e+02
-3.426431605299999887e+02
-3.418400931799999967e+02
-3.418418130900000165e+02
-3.418430733199999736e+02
-3.418439622299999883e+02
-3.418446592899999814e+02
-3.418454261100000053e+02
-3.418465817200000174e+02
-3.418484945600000060e+02
-3.418515597900000103e+02
-3.418561715100000242e+02
-3.421164902799999936e+02
-3.421368163899999786e+02
-3.421561971500000254e+02
-3.421744328099999848e+02
-3.421914290500000106e+02
-3.422071874299999763e+02
-3.422218063000000257e+02
-3.422354520600000001e+02
-3.422483432500000049e+02
-3.422607281300000182e+02
-3.424180457799999999e+02
-3.424141044699999838e+02
-3.424059355200000141e+02