1.478523600428750251e-01 6.787834131808556659e-01 1.992718221827594727e+00 6.787834131808555549e-01 9.320615410055103078e-01 3.450874385944928235e+00 1.992718221827594727e+00 3.450874385944928235e+00 -3.485669852077808439e-01
2.081762244252279848e-01 7.464562731657710115e-01 2.041912619242431504e+00 7.464562731657707895e-01 1.010976408004145011e+00 3.475069701248095111e+00 2.041912619242431504e+00 3.475069701248095111e+00 -1.711370589337226633e-01
2.794693234158310835e-01 8.139214401096634965e-01 2.094368392920563426e+00 8.139214401096634965e-01 1.099952513718696512e+00 3.504335231475237844e+00 2.094368392920563426e+00 3.504335231475237844e+00 2.191653797840996051e-02
3.610829427589122287e-01 8.807469575772354231e-01 2.150067459909867917e+00 8.807469575772354231e-01 1.198427014612401420e+00 3.538639656034519909e+00 2.150067459909867917e+00 3.538639656034519909e+00 2.273388741456848217e-01
4.520377051735964824e-01 9.465135445935848324e-01 2.208959767517625572e+00 9.465135445935848324e-01 1.305353997327865612e+00 3.577823949310547480e+00 2.208959767517625572e+00 3.577823949310547480e+00 4.432674054989796386e-01
5.513813578072188637e-01 1.010723618704232107e+00 2.271023036628061487e+00 1.010723618704232329e+00 1.419624258175231413e+00 3.621921854551365616e+00 2.271023036628061487e+00 3.621921854551365616e+00 6.683097447244845668e-01
6.570676292033573729e-01 1.073083181301599964e+00 2.335916762955786208e+00 1.073083181301599964e+00 1.539269653238636071e+00 3.670524430555634154e+00 2.335916762955786208e+00 3.670524430555634154e+00 8.978909049339670601e-01
7.677449926295063509e-01 1.133057272698829498e+00 2.403654184140514793e+00 1.133057272698829498e+00 1.662947349383603335e+00 3.723582273779392882e+00 2.403654184140514793e+00 3.723582273779392882e+00 1.130311088627451666e+00
8.817034847510514251e-01 1.190285056941052355e+00 2.474140040109219285e+00 1.190285056941052355e+00 1.788823051327777414e+00 3.780858057127656213e+00 2.474140040109219285e+00 3.780858057127656213e+00 1.362478110991152569e+00
9.970828335196700865e-01 1.244397218776632785e+00 2.547306844365814449e+00 1.244397218776632785e+00 1.915194689550381746e+00 3.842307222368871678e+00 2.547306844365814449e+00 3.842307222368871678e+00 1.591372119019794029e+00
-3.365670943821358563e+00 1.202787216103159551e+01 -2.610863221338916684e+00 1.202787216103159551e+01 2.912956441141506758e+01 -1.046481773334184773e+01 -2.610863221338916684e+00 -1.046481773334184773e+01 -2.795804365641758604e+00
-3.382916835364269126e+00 1.197837304968725114e+01 -2.474615305598041548e+00 1.197837304968725114e+01 2.916917802729556541e+01 -1.062778514044515710e+01 -2.474615305598041548e+00 -1.062778514044515710e+01 -2.761420033593588119e+00
-3.374338660858501093e+00 1.191988386819281054e+01 -2.328983332569019460e+00 1.191988386819281054e+01 2.920116261950287395e+01 -1.075755017691444948e+01 -2.328983332569019460e+00 -1.075755017691444948e+01 -2.719066416253003382e+00
-3.339757335241305025e+00 1.185279860368632754e+01 -2.173913576733025987e+00 1.185279860368632754e+01 2.922535701148051857e+01 -1.085432774482502971e+01 -2.173913576733025987e+00 -1.085432774482502971e+01 -2.669388219845906907e+00
-3.279763839219757227e+00 1.177765451135605623e+01 -2.009620940165361525e+00 1.177765451135605623e+01 2.924115231401514592e+01 -1.091815366118944652e+01 -2.009620940165361525e+00 -1.091815366118944652e+01 -2.613245052673503821e+00
-3.195325232132713911e+00 1.169497093788397102e+01 -1.836338233447602830e+00 1.169497093788397102e+01 2.924768891880555444e+01 -1.094908165152652479e+01 -1.836338233447602830e+00 -1.094908165152652479e+01 -2.551818876149948956e+00
-3.087820468963356380e+00 1.160537468098970137e+01 -1.654280358655050076e+00 1.160537468098970137e+01 2.924396394950033695e+01 -1.094727289239274093e+01 -1.654280358655050076e+00 -1.094727289239274093e+01 -2.486506553764700200e+00
-2.958735955732516132e+00 1.150952835540542729e+01 -1.463626400850455145e+00 1.150952835540542729e+01 2.922881335319161167e+01 -1.091296019436966880e+01 -1.463626400850455145e+00 -1.091296019436966880e+01 -2.419206387182916806e+00
-2.809844634561428300e+00 1.140807666735704906e+01 -1.264483811071468011e+00 1.140807666735704906e+01 2.920101935145267191e+01 -1.084644800206399040e+01 -1.264483811071468011e+00 -1.084644800206399040e+01 -2.351691318525832131e+00
-2.643098532634076570e+00 1.130175386560184769e+01 -1.056995857368289382e+00 1.130175386560184769e+01 2.915929253183171710e+01 -1.074795121755100169e+01 -1.056995857368289382e+00 -1.074795121755100169e+01 -2.286020826015081386e+00
-8.665493815567539837e-01 9.494570402652923846e+00 2.569241956833847595e+00 9.494570402652923846e+00 -2.722064068260035885e+00 -3.869695370726799588e+00 2.569241956833847595e+00 -3.869695370726799588e+00 3.477061759633734539e+01
-1.050047398629850637e+00 9.450930060914911834e+00 2.743713417849061642e+00 9.450930060914911834e+00 -2.828674528154831336e+00 -3.833391353434238535e+00 2.743713417849061642e+00 -3.833391353434238535e+00 3.437130936849391105e+01
-1.274488579336013672e+00 9.397687765123295733e+00 2.920936000531319632e+00 9.397687765123295733e+00 -2.971535061780088860e+00 -3.769684006595436010e+00 2.920936000531319632e+00 -3.769684006595436010e+00 3.385235431991511490e+01
-1.538596259372235542e+00 9.335490838023263294e+00 3.100604024695393868e+00 9.335490838023263294e+00 -3.150142195889551910e+00 -3.678807085646153663e+00 3.100604024695393868e+00 -3.678807085646153663e+00 3.321589221189753971e+01
-1.841615228869131426e+00 9.265112470671562406e+00 3.281980261659267040e+00 9.265112470671562406e+00 -3.364657761169516981e+00 -3.561335988582111867e+00 3.281980261659267040e+00 -3.561335988582111867e+00 3.246454829779667506e+01
-2.182754315582585036e+00 9.187433741249144248e+00 3.464363445115653306e+00 9.187433741249144248e+00 -3.615225607118914386e+00 -3.417774188649568501e+00 3.464363445115653306e+00 -3.417774188649568501e+00 3.160098379334272778e+01
-2.561366196767408177e+00 9.103389671499057201e+00 3.647070289944633004e+00 9.103389671499057201e+00 -3.902079489173506666e+00 -3.248840933343175585e+00 3.647070289944633004e+00 -3.248840933343175585e+00 3.062796780139010622e+01
-2.976731624928949937e+00 9.013915283164344316e+00 3.829453473401019270e+00 9.013915283164344316e+00 -4.225345275644857068e+00 -3.055291432532316609e+00 3.829453473401019270e+00 -3.055291432532316609e+00 2.954871895447737984e+01
-3.428257220884121992e+00 8.920071466299621221e+00 4.010919616301723778e+00 8.920071466299621221e+00 -4.585238740781361955e+00 -2.838024745585307596e+00 4.010919616301723778e+00 -2.838024745585307596e+00 2.836634799801892726e+01
-3.915187774763539519e+00 8.822883148584766744e+00 4.190947264213123802e+00 8.822883148584766744e+00 -4.981831809332485150e+00 -2.597939931870463237e+00 4.190947264213123802e+00 -2.597939931870463237e+00 2.708432530117643466e+01
-5.650228119513981406e-01 -8.618177433458933834e+00 -1.341773049335311363e+01 -8.618177433458933834e+00 -1.148288070711000408e+01 1.520883199003247910e+01 -1.341773049335311363e+01 1.520883199003247910e+01 -1.080113545271812470e+01
-4.968921122102481491e-01 -8.575556942117243509e+00 -1.336930309702142416e+01 -8.575556942117243509e+00 -1.132578384035226904e+01 1.528894171390394163e+01 -1.336930309702142416e+01 1.528894171390394163e+01 -1.050445373771022872e+01
-4.107380941510826444e-01 -8.519277441553795072e+00 -1.328608905287229014e+01 -8.519277441553795072e+00 -1.114098548029318536e+01 1.535237941181355126e+01 -1.328608905287229014e+01 1.535237941181355126e+01 -1.015970984052095538e+01
-3.072546646594992437e-01 -8.449886752994061112e+00 -1.316823444656583675e+01 -8.449886752994061112e+00 -1.092967257292127670e+01 1.539936421225149665e+01 -1.316823444656583675e+01 1.539936421225149665e+01 -9.769989820720466511e+00
-1.871905127436424010e-01 -8.367950958371025649e+00 -1.301610449225237609e+01 -8.367950958371025649e+00 -1.069330597483780032e+01 1.542984133309523287e+01 -1.301610449225237609e+01 1.542984133309523287e+01 -9.337558006040710623e+00
-5.169606297700240355e-02 -8.274255268107868488e+00 -1.283006440408222204e+01 -8.274255268107868488e+00 -1.043380306033190941e+01 1.544368294939214969e+01 -1.283006440408222204e+01 1.544368294939214969e+01 -8.865263066854135232e+00
9.771304591661598982e-02 -8.169621414042795848e+00 -1.261053417832824053e+01 -8.169621414042795848e+00 -1.015339163572051717e+01 1.544077949689715012e+01 -1.261053417832824053e+01 1.544077949689715012e+01 -8.356556276881216050e+00
2.595211752134080063e-01 -8.055017213674139143e+00 -1.235793381126329038e+01 -8.055017213674139143e+00 -9.854463853688185893e+00 1.542085706499749875e+01 -1.235793381126329038e+01 1.542085706499749875e+01 -7.814925431257455202e+00
4.319387755768332449e-01 -7.931373963085200707e+00 -1.207253721350010700e+01 -7.931373963085200707e+00 -9.539539691872084504e+00 1.538373304661804220e+01 -1.207253721350010700e+01 1.538373304661804220e+01 -7.244150496438606091e+00
6.132493405004139087e-01 -7.799732522604377216e+00 -1.175470959918900782e+01 -7.799732522604377216e+00 -9.211102606494350198e+00 1.532898744548591452e+01 -1.175470959918900782e+01 1.532898744548591452e+01 -6.647956656757873617e+00
-2.452362276002790153e+01 1.857488879816780880e+01 -8.002263859841580285e+00 1.857488879816780880e+01 -9.549034102017413872e+00 2.067283765719966837e+01 -8.002263859841580285e+00 2.067283765719966837e+01 -3.282350855210433593e+01
-2.457889513863585051e+01 1.866419213268526534e+01 -7.918247610377898482e+00 1.866419213268526534e+01 -9.695341149332966424e+00 2.077978943055859773e+01 -7.918247610377898482e+00 2.077978943055859773e+01 -3.313272856176349279e+01
-2.457870897366916907e+01 1.874424306835861387e+01 -7.827901752047019990e+00 1.874424306835861387e+01 -9.799481831694995648e+00 2.086509021829239074e+01 -7.827901752047019990e+00 2.086509021829239074e+01 -3.332030838219249347e+01
-2.452360414353123375e+01 1.881470650824783064e+01 -7.730798105425578548e+00 1.881470650824783064e+01 -9.861586464580181399e+00 2.092918681632107081e+01 -7.730798105425578548e+00 2.092918681632107081e+01 -3.338356723787110525e+01
-2.441421360910876714e+01 1.887511703993621026e+01 -7.626657423063549324e+00 1.887511703993621026e+01 -9.881990144928550990e+00 2.097215369063132684e+01 -7.626657423063549324e+00 2.097215369063132684e+01 -3.332319393917606476e+01
-2.425195222414854967e+01 1.892508371699371850e+01 -7.514921210060883539e+00 1.892508371699371850e+01 -9.861623697573518754e+00 2.099399084122315173e+01 -7.514921210060883539e+00 2.099399084122315173e+01 -3.314093843679417972e+01
-2.403845824035738588e+01 1.896415974350031419e+01 -7.394900656040862330e+00 1.896415974350031419e+01 -9.801566879321836012e+00 2.099458656911653520e+01 -7.394900656040862330e+00 2.099458656911653520e+01 -3.283912779280897354e+01
-2.377548160842209413e+01 1.899187970703929196e+01 -7.265702169163406055e+00 1.899187970703929196e+01 -9.703104228443613977e+00 2.097377332584146359e+01 -7.265702169163406055e+00 2.097377332584146359e+01 -3.242038693325067555e+01
-2.346486536151282110e+01 1.900770372920728590e+01 -7.126301842111764984e+00 1.900770372920728590e+01 -9.567389967732280454e+00 2.093121601445790958e+01 -7.126301842111764984e+00 2.093121601445790958e+01 -3.188713600268614456e+01
-2.310856423177973440e+01 1.901111054809756951e+01 -6.975526835595840858e+00 1.901111054809756951e+01 -9.395652785967939735e+00 2.086648645554250692e+01 -6.975526835595840858e+00 2.086648645554250692e+01 -3.124211162612560955e+01
-3.839042233873799148e+01 3.350645435913647052e+00 1.938821891603933878e+01 3.350645435913647052e+00 -2.024920408911396308e+01 2.755824475976632049e-01 1.938821891603933878e+01 2.755824475976632049e-01 -3.861087319744223123e+01
-3.835748682945383337e+01 3.352325241258225841e+00 1.943257332682315663e+01 3.352325241258225841e+00 -2.028485748569720926e+01 3.125192909610374215e-01 1.943257332682315663e+01 3.125192909610374215e-01 -3.861534638695532351e+01
-3.826628661119536901e+01 3.352589480301193081e+00 1.945731742577531875e+01 3.352589480301193081e+00 -2.027238162802567700e+01 3.584968844373683239e-01 1.945731742577531875e+01 3.584968844373683239e-01 -3.847582817226852825e+01
-3.811640645118077231e+01 3.351173913999581977e+00 1.946226247072227977e+01 3.351173913999581977e+00 -2.021119141536136610e+01 4.137228444175589104e-01 1.946226247072227977e+01 4.137228444175589104e-01 -3.819318676738016194e+01
-3.790879006027779496e+01 3.347568938484811962e+00 1.944689885779545691e+01 3.347568938484811962e+00 -2.010219281013730352e+01 4.782537935536735896e-01 1.944689885779545691e+01 4.782537935536735896e-01 -3.776927184559100681e+01
-3.764449439465831659e+01 3.341359320975077818e+00 1.941060373782215009e+01 3.341359320975077818e+00 -1.994632952322123742e+01 5.520142349762930944e-01 1.941060373782215009e+01 5.520142349762930944e-01 -3.720657480359188440e+01
-3.732491614640657929e+01 3.332092080253863386e+00 1.935271651319493103e+01 3.332092080253863386e+00 -1.974486612717593559e+01 6.348720491639338048e-01 1.935271651319493103e+01 6.348720491639338048e-01 -3.650802114507280294e+01
-3.695201823412748610e+01 3.319333109322007758e+00 1.927242559256754362e+01 3.319333109322007758e+00 -1.949961454686745910e+01 7.266384939430474699e-01 1.927242559256754362e+01 7.266384939430474699e-01 -3.567791419159065214e+01
-3.652780132486065412e+01 3.302818169136544579e+00 1.916891938459373534e+01 3.302818169136544579e+00 -1.921231121029245870e+01 8.271059529227311469e-01 1.916891938459373534e+01 8.271059529227311469e-01 -3.472053839048498958e+01
-3.605443595360187459e+01 3.282132026915666412e+00 1.904114093310163369e+01 3.282132026915666412e+00 -1.888497565870788719e+01 9.360290612773721763e-01 1.904114093310163369e+01 9.360290612773721763e-01 -3.364051792500772819e+01
-2.486011943159197912e+01 9.447783644680754378e+00 1.135570600645144879e+01 9.447783644680754378e+00 -3.438452078714343685e+01 1.925498257314833594e+01 1.135570600645144879e+01 1.925498257314833594e+01 -3.183248190598887106e+01
-2.478370905032018712e+01 9.417042319605695155e+00 1.142689545145972652e+01 9.417042319605695155e+00 -3.430607480617323546e+01 1.929765477423352138e+01 1.142689545145972652e+01 1.929765477423352138e+01 -3.161154394612998075e+01
-2.466330709778831221e+01 9.377498910649549657e+00 1.148279905058457473e+01 9.377498910649549657e+00 -3.417604145136463245e+01 1.932164846327125929e+01 1.148279905058457473e+01 1.932164846327125929e+01 -3.126496424933035101e+01
-2.449989367755485858e+01 9.329285354829803367e+00 1.152398224818666250e+01 9.329285354829803367e+00 -3.399555161143895532e+01 1.932717096986046457e+01 1.152398224818666250e+01 1.932717096986046457e+01 -3.079726637047533444e+01
-2.429409077841654963e+01 9.272684374326797041e+00 1.155082200717310315e+01 9.272684374326797041e+00 -3.376543460479186365e+01 1.931427883843720394e+01 1.155082200717310315e+01 1.931427883843720394e+01 -3.021014664264693650e+01
-2.404712352982151202e+01 9.207809058012660586e+00 1.156358220157887651e+01 9.207809058012660586e+00 -3.348708519417967722e+01 1.928291552456540714e+01 1.156358220157887651e+01 1.928291552456540714e+01 -2.950673385797420423e+01
-2.376051863154354749e+01 9.134904431777020051e+00 1.156252670543896066e+01 9.134904431777020051e+00 -3.316219971268439082e+01 1.923289254679151838e+01 1.156252670543896066e+01 1.923289254679151838e+01 -2.869051492334792286e+01
-2.343584047964717954e+01 9.054121280782718273e+00 1.154795708907904483e+01 9.054121280782718273e+00 -3.279243679709731651e+01 1.916404027180734460e+01 1.154795708907904483e+01 1.916404027180734460e+01 -2.776522177154851434e+01
-2.307501158495867699e+01 8.965685782774023949e+00 1.152015607467946623e+01 8.965685782774023949e+00 -3.237988859155291976e+01 1.907609482557789349e+01 1.152015607467946623e+01 1.907609482557789349e+01 -2.673515177971706791e+01
-2.268001100274038961e+01 8.869880659931270728e+00 1.147934983998449177e+01 8.869880659931270728e+00 -3.192677917720316927e+01 1.896879233406819765e+01 1.147934983998449177e+01 1.896879233406819765e+01 -2.560496043975642522e+01
2.656047177004426274e+01 -5.393638818014975911e+00 1.057033892037324119e+00 -5.393638818014975911e+00 3.454017753420666281e+01 -5.086180673744730818e+00 1.057033892037324119e+00 -5.086180673744730818e+00 1.791322458373690907e+01
2.683293979888600944e+01 -5.334050651440238155e+00 1.217498561392433176e+00 -5.334050651440238155e+00 3.474689913615825532e+01 -5.100299185320131379e+00 1.217498561392433176e+00 -5.100299185320131379e+00 1.852896313998996902e+01
2.708934736474606808e+01 -5.266484738547799971e+00 1.386588294200667981e+00 -5.266484738547799971e+00 3.493010738054188380e+01 -5.090939329443007644e+00 1.386588294200667981e+00 -5.090939329443007644e+00 1.908075726029744246e+01
2.732672030781302652e+01 -5.191308475549663903e+00 1.564110644827171770e+00 -5.191308475549663903e+00 3.508745792962385934e+01 -5.057908660478501517e+00 1.564110644827171770e+00 -5.057908660478501517e+00 1.956118904018848426e+01
2.754320415196916372e+01 -5.109186674638970693e+00 1.749435791194231316e+00 -5.109186674638970693e+00 3.521788358488359449e+01 -5.001084713022614814e+00 1.749435791194231316e+00 -5.001084713022614814e+00 1.996695191375510348e+01
2.773662951005792365e+01 -5.020784148008861081e+00 1.941793950762419785e+00 -5.020784148008861081e+00 3.532010720710796647e+01 -4.920380011786775754e+00 1.941793950762419785e+00 -4.920380011786775754e+00 2.029473931508930917e+01
2.790470452951872815e+01 -4.926818193025620296e+00 2.140450331107738524e+00 -4.926818193025620296e+00 3.539279917191068137e+01 -4.815637101251555308e+00 2.140450331107738524e+00 -4.815637101251555308e+00 2.054120968816767601e+01
2.804522483307959746e+01 -4.828023602113245438e+00 2.344600159575331855e+00 -4.828023602113245438e+00 3.543468234007859508e+01 -4.686751011070668937e+00 2.344600159575331855e+00 -4.686751011070668937e+00 2.070319642754392575e+01
2.815563614231422918e+01 -4.725170157811164451e+00 2.553403673394916584e+00 -4.725170157811164451e+00 3.544428712676371873e+01 -4.533599275840116682e+00 2.553403673394916584e+00 -4.533599275840116682e+00 2.077716553155977763e+01
2.823362910960436167e+01 -4.619097622889660748e+00 2.766178565315635662e+00 -4.619097622889660748e+00 3.542035388781062721e+01 -4.355884479578756796e+00 2.766178565315635662e+00 -4.355884479578756796e+00 2.075989790959581072e+01
2.782136830671553795e+01 -1.377188793521686883e+01 8.511655865217884198e+00 -1.377188793521686883e+01 3.561366011526540376e+01 -1.070298804830249928e+01 8.511655865217884198e+00 -1.070298804830249928e+01 3.583496403883059855e+01
2.804666172870601670e+01 -1.372033804071718954e+01 8.474478617883544729e+00 -1.372033804071718954e+01 3.574574909806248257e+01 -1.060617738127488785e+01 8.474478617883544729e+00 -1.060617738127488785e+01 3.627870427634369577e+01
2.822765255464624801e+01 -1.364802184873741453e+01 8.418102998214415322e+00 -1.364802184873741453e+01 3.582587007298779724e+01 -1.046590034494119514e+01 8.418102998214415322e+00 -1.046590034494119514e+01 3.658218489891361003e+01
2.836193663264675635e+01 -1.355530520847811005e+01 8.342668377334522489e+00 -1.355530520847811005e+01 3.585252480045805612e+01 -1.028248794572098390e+01 8.342668377334522489e+00 -1.028248794572098390e+01 3.674059760276138320e+01
2.844759760975216878e+01 -1.344293723973092547e+01 8.248627711396956386e+00 -1.344293723973092547e+01 3.582498158207212668e+01 -1.005641056115785226e+01 8.248627711396956386e+00 -1.005641056115785226e+01 3.675195634936962819e+01
2.848261460466407868e+01 -1.331187611897355083e+01 8.136660434631352246e+00 -1.331187611897355083e+01 3.574247387664783560e+01 -9.788277939919417747e+00 8.136660434631352246e+00 -9.788277939919417747e+00 3.661443189273548171e+01
2.846468799383604420e+01 -1.316327165797921417e+01 8.007689880734391252e+00 -1.316327165797921417e+01 3.560406092909800435e+01 -9.478734673454306758e+00 8.007689880734391252e+00 -9.478734673454306758e+00 3.632622982963708580e+01
2.839188400292216841e+01 -1.299848272520718062e+01 7.862743911745775804e+00 -1.299848272520718062e+01 3.540906330519301548e+01 -9.128460195992154524e+00 7.862743911745775804e+00 -9.128460195992154524e+00 3.588606097717718058e+01
2.826181590142349265e+01 -1.281926888109829932e+01 7.702902653876718908e+00 -1.281926888109829932e+01 3.515622666481659309e+01 -8.737768092562022915e+00 7.702902653876718908e+00 -8.737768092562022915e+00 3.529254904550600713e+01
2.807300287114721726e+01 -1.262707610106435752e+01 7.529855982006055548e+00 -1.262707610106435752e+01 3.484558585074977088e+01 -8.308086917185196540e+00 7.529855982006055548e+00 -8.308086917185196540e+00 3.454478812231738516e+01
-1.159236321829760463e+01 -8.605287228386892195e+00 -5.902064574201209446e+00 -8.605287228386892195e+00 -1.447765795780869347e+01 -1.344297979043030389e-01 -5.902064574201209446e+00 -1.344297979043030389e-01 -3.917165021690929727e+00
-1.159518945568699344e+01 -8.707178591931558742e+00 -5.880060297383835177e+00 -8.707178591931558742e+00 -1.454095466401646597e+01 -4.147595129880202527e-03 -5.880060297383835177e+00 -4.147595129880202527e-03 -4.016725656998893612e+00
-1.158650886941958902e+01 -8.800334312636302059e+00 -5.843154041604237570e+00 -8.800334312636302059e+00 -1.458648644949094653e+01 1.324661134844039856e-01 -5.843154041604237570e+00 1.324661134844039856e-01 -4.093584632237559973e+00
-1.156628475511371157e+01 -8.884203824775916303e+00 -5.791474272198297690e+00 -8.884203824775916303e+00 -1.461381286165197224e+01 2.754480323202299630e-01 -5.791474272198297690e+00 2.754480323202299630e-01 -4.148531091613051558e+00
-1.153541637012053478e+01 -8.958346675770235024e+00 -5.725167806692734729e+00 -8.958346675770235024e+00 -1.462328259212550385e+01 4.248165135684377480e-01 -5.725167806692734729e+00 4.248165135684377480e-01 -4.182225713995618044e+00
-1.149535353751642575e+01 -9.022359117420773345e+00 -5.644271349469230259e+00 -9.022359117420773345e+00 -1.461596006798027325e+01 5.806449659923882400e-01 -5.644271349469230259e+00 5.806449659923882400e-01 -4.196393605324235665e+00
-1.144774795447700377e+01 -9.075819049338212707e+00 -5.548711491764423798e+00 -9.075819049338212707e+00 -1.459305653381173151e+01 7.430067983554420330e-01 -5.548711491764423798e+00 7.430067983554420330e-01 -4.192906689064601622e+00
-1.139452660104048753e+01 -9.118414484278265064e+00 -5.438378120433275065e+00 -9.118414484278265064e+00 -1.455620533460465360e+01 9.122507022835625312e-01 -5.438378120433275065e+00 9.122507022835625312e-01 -4.174224158789300532e+00
-1.133761645724509748e+01 -9.149815082805810462e+00 -5.313032656994859160e+00 -9.149815082805810462e+00 -1.450702146315297725e+01 1.088743721593553371e+00 -5.313032656994859160e+00 1.088743721593553371e+00 -4.142805208070916123e+00
-1.127901791189240832e+01 -9.169727209867401641e+00 -5.172253001059854860e+00 -9.169727209867401641e+00 -1.444734013854071897e+01 1.273018069819779496e+00 -5.172253001059854860e+00 1.273018069819779496e+00 -4.101182439245393496e+00
-1.574654087979760853e+01 1.012669388344207944e+00 3.264368219948655447e+00 1.012669388344207944e+00 -4.158717858221550046e+01 -1.636425518237070875e+01 3.264368219948655447e+00 -1.636425518237070875e+01 -5.568339849901176564e+01
-1.564132059974956768e+01 1.032834081782809665e+00 3.105116416410526270e+00 1.032834081782809665e+00 -4.144896325397515824e+01 -1.636243581153414439e+01 3.105116416410526270e+00 -1.636243581153414439e+01 -5.530724357855184081e+01
-1.547511349311748674e+01 1.053718942844218409e+00 2.941448848237816271e+00 1.053718942844218409e+00 -4.124013359514061960e+01 -1.634103925242495237e+01 2.941448848237816271e+00 -1.634103925242495237e+01 -5.474647937351915061e+01
-1.524799536701955205e+01 1.075323971528434397e+00 2.773308660091882594e+00 1.075323971528434397e+00 -4.095976096851404691e+01 -1.629942114453851332e+01 2.773308660091882594e+00 -1.629942114453851332e+01 -5.400267888161614138e+01
-1.496203196542645131e+01 1.097478601819529498e+00 2.601093839343224356e+00 1.097478601819529498e+00 -4.060928570934105153e+01 -1.623705083804750160e+01 2.601093839343224356e+00 -1.623705083804750160e+01 -5.307982197654780521e+01
-1.461919427341112865e+01 1.120163881937956241e+00 2.425391891157815394e+00 1.120163881937956241e+00 -4.019001549041043120e+01 -1.615339768312458091e+01 2.425391891157815394e+00 -1.615339768312458091e+01 -5.198308249413063464e+01
-1.422205973299205262e+01 1.143304004765524295e+00 2.246904031378914812e+00 1.143304004765524295e+00 -3.970395920035421966e+01 -1.604804474061970510e+01 2.246904031378914812e+00 -1.604804474061970510e+01 -5.071933993034038224e+01
-1.377087471730334123e+01 1.166728404286305976e+00 2.066767366779377557e+00 1.166728404286305976e+00 -3.915045352688824210e+01 -1.592089725163514302e+01 2.066767366779377557e+00 -1.592089725163514302e+01 -4.929276367667750947e+01
-1.327556995882791746e+01 1.190361273382110729e+00 1.885228270493320535e+00 1.190361273382110729e+00 -3.854022517723642949e+01 -1.577115924142988668e+01 1.885228270493320535e+00 -1.577115924142988668e+01 -4.772160429684631566e+01
-1.273732046789772454e+01 1.214032046037010426e+00 1.703613367089073405e+00 1.214032046037010426e+00 -3.787403222258067359e+01 -1.559892546890168141e+01 1.703613367089073405e+00 -1.559892546890168141e+01 -4.601349935800447355e+01
2.144326128597035819e+01 6.679356780523381332e+00 1.189509788865900930e+01 6.679356780523381332e+00 4.636386812597019969e+01 1.474113757407816649e+01 1.189509788865900930e+01 1.474113757407816649e+01 5.527074562996160978e+01
2.137948269056047224e+01 6.580942647970228876e+00 1.189494195077292105e+01 6.580942647970228876e+00 4.606496985120357834e+01 1.465256485478032999e+01 1.189494195077292105e+01 1.465256485478032999e+01 5.481067688670740523e+01
2.125324230855655117e+01 6.478248886765557657e+00 1.187856847273370775e+01 6.478248886765557657e+00 4.567169450249028984e+01 1.454741074026182801e+01 1.187856847273370775e+01 1.454741074026182801e+01 5.414913639462784545e+01
2.106537180868439663e+01 6.372297756384830869e+00 1.184625467744997174e+01 6.372297756384830869e+00 4.518799250627790798e+01 1.442645491995310181e+01 1.184625467744997174e+01 1.442645491995310181e+01 5.329055972026052501e+01
2.081566327376256353e+01 6.264440718507477079e+00 1.179824313496673227e+01 6.264440718507477079e+00 4.461779696258218308e+01 1.429071965332961902e+01 1.179824313496673227e+01 1.429071965332961902e+01 5.223988489666490409e+01
2.050415135665461719e+01 6.156063887676495483e+00 1.173486304748796094e+01 6.156063887676495483e+00 4.396573402869039882e+01 1.414138313775292488e+01 1.173486304748796094e+01 1.414138313775292488e+01 5.100298558421693684e+01
2.013116525956452563e+01 6.048484072707741355e+00 1.165651292294476526e+01 6.048484072707741355e+00 4.323710559272953446e+01 1.397981416133423771e+01 1.165651292294476526e+01 1.397981416133423771e+01 4.958712155783560860e+01
1.969611588381151535e+01 5.943156693871366691e+00 1.156376453358613254e+01 5.943156693871366691e+00 4.243674572916830812e+01 1.380758942936621914e+01 1.156376453358613254e+01 1.380758942936621914e+01 4.799913675807697899e+01
1.920286702368420251e+01 5.841207969233558117e+00 1.145710301950211729e+01 5.841207969233558117e+00 4.157336963319584555e+01 1.362616436211902737e+01 1.145710301950211729e+01 1.362616436211902737e+01 4.625258045459892031e+01
1.865211173645408493e+01 5.743920054746594950e+00 1.133723876439600708e+01 5.743920054746594950e+00 4.065318016739208673e+01 1.343727160277140875e+01 1.133723876439600708e+01 1.343727160277140875e+01 4.435753663070174468e+01
1.544952454081805904e+01 2.382885500772215082e+01 4.422476305052059686e+00 2.382885500772215082e+01 1.762110537198866211e+01 -2.478395773644505251e+00 4.422476305052059686e+00 -2.478395773644505251e+00 8.229828236599178837e+00
1.525664655929532287e+01 2.374612439116641127e+01 4.480494485823726336e+00 2.374612439116641127e+01 1.737882031042823172e+01 -2.244508314452744457e+00 4.480494485823726336e+00 -2.244508314452744457e+00 7.657350161563937441e+00
1.505410777674252998e+01 2.363916171014854584e+01 4.535203441933163937e+00 2.363916171014854584e+01 1.713632175050249629e+01 -1.993772275932321092e+00 4.535203441933163937e+00 -1.993772275932321092e+00 7.062454758171657687e+00
1.484457692272599516e+01 2.350917678873861405e+01 4.585553473084287290e+00 2.350917678873861405e+01 1.689638517096042492e+01 -1.726543488692077188e+00 4.585553473084287290e+00 -1.726543488692077188e+00 6.449732241276399769e+00
1.462844541091544315e+01 2.335737945100667190e+01 4.630637211224553518e+00 2.335737945100667190e+01 1.665949094312395218e+01 -1.443711529254116943e+00 4.630637211224553518e+00 -1.443711529254116943e+00 5.821833548914037593e+00
1.440606907191971686e+01 2.318526418550985824e+01 4.669707412075390529e+00 2.318526418550985824e+01 1.642603048066279925e+01 -1.146272723323198406e+00 4.669707412075390529e+00 -1.146272723323198406e+00 5.181018205450714120e+00
1.417739453114749004e+01 2.299448560457929247e+01 4.702052414419116921e+00 2.299448560457929247e+01 1.619609274122918663e+01 -8.352056050736361703e-01 4.702052414419116921e+00 -8.352056050736361703e-01 4.528994197808872357e+00
1.394236841400743643e+01 2.278664494595475531e+01 4.727102889281583842e+00 2.278664494595475531e+01 1.596953539257956756e+01 -5.114531256188611374e-01 4.727102889281583842e+00 -5.114531256188611374e-01 3.867291597606532516e+00
1.370063488989071310e+01 2.256348577961957602e+01 4.744396256871298512e+00 2.256348577961957602e+01 1.574607377022687160e+01 -1.759048614809781974e-01 4.744396256871298512e+00 -1.759048614809781974e-01 3.196782189835355670e+00
1.345182033665803445e+01 2.232671609249619848e+01 4.753576686579418897e+00 2.232671609249619848e+01 1.552526308591004955e+01 1.707275261223289986e-01 4.753576686579418897e+00 1.707275261223289986e-01 2.518070886530373365e+00
-2.759446275610998711e+01 1.222276515704522026e+01 6.592190021413507850e+00 1.222276515704522026e+01 -2.479462921421209831e+00 -2.251861169728061540e+01 6.592190021413507850e+00 -2.251861169728061540e+01 -4.263293466793086139e+01