1.849702750455632705e+00 9.041476067736649587e-06 0.000000000000000000e+00 9.041476067624092461e-06 1.849671429863801064e+00 0.000000000000000000e+00 0.000000000000000000e+00 0.000000000000000000e+00 -3.095801404211043772e-01
1.768484942835866880e+00 -1.103428207716025539e-01 -3.449283334887046776e-02 -1.103428207716025122e-01 1.624618277301776326e+00 -2.842366678250355869e-02 -3.449283334887046776e-02 -2.842366678250355869e-02 -7.375312854681754793e-01
1.697014669500183093e+00 -2.196293076872207761e-01 -6.750975059537149547e-02 -2.196293076872208039e-01 1.411336303487277455e+00 -5.884787582433473330e-02 -6.750975059537149547e-02 -5.884787582433473330e-02 -1.150762907483541930e+00
1.635902230082741715e+00 -3.272631581739515183e-01 -9.909466082229698158e-02 -3.272631581739515183e-01 1.211113918759519903e+00 -9.105935265372940013e-02 -9.909466082229698158e-02 -9.105935265372940013e-02 -1.546924222690642337e+00
1.584817610707041968e+00 -4.325005081758038217e-01 -1.292872769487887485e-01 -4.325005081758037662e-01 1.024480049468406762e+00 -1.249098866388035495e-01 -1.292872769487887485e-01 -1.249098866388035495e-01 -1.925020668722469130e+00
1.542585419484616693e+00 -5.345583428969968853e-01 -1.581628286494783930e-01 -5.345583428969968853e-01 8.511634513322124951e-01 -1.601681203556693800e-01 -1.581628286494783930e-01 -1.601681203556693800e-01 -2.285124577387531719e+00
1.508384655600949698e+00 -6.327831260727045937e-01 -1.858097832387113346e-01 -6.327831260727045937e-01 6.909724798463191542e-01 -1.965532928364777387e-01 -1.858097832387113346e-01 -1.965532928364777387e-01 -2.627217865733703306e+00
1.480750275359171919e+00 -7.264912121743787310e-01 -2.124087962988988887e-01 -7.264912121743788420e-01 5.431479755959253142e-01 -2.338358201647880441e-01 -2.124087962988988887e-01 -2.338358201647880441e-01 -2.952168515463098331e+00
1.458372713662962949e+00 -8.151284342044252673e-01 -2.381109763280617186e-01 -8.151284342044252673e-01 4.068114664699361560e-01 -2.716987754685037393e-01 -2.381109763280617186e-01 -2.716987754685037393e-01 -3.261170001416125785e+00
1.439583493604044806e+00 -8.981129385577473201e-01 -2.631192580243867929e-01 -8.981129385577474311e-01 2.808828206532644756e-01 -3.098788315831416673e-01 -2.631192580243867929e-01 -3.098788315831416673e-01 -3.555759374523614902e+00
-3.772639562215292841e+01 1.387424743704280816e+00 -7.069446262161761751e+00 1.387424743704280816e+00 -4.271993029377112094e+01 -3.097090196534183271e+00 -7.069446262161761751e+00 -3.097090196534183271e+00 -4.569901550237780441e+01
-3.754983795651736500e+01 1.474267992727324561e+00 -6.996499464271785484e+00 1.474267992727324561e+00 -4.270289469940689031e+01 -2.983659935632583249e+00 -6.996499464271785484e+00 -2.983659935632583249e+00 -4.541377457292190911e+01
-3.732119731080869229e+01 1.559771363541946343e+00 -6.918652540362435488e+00 1.559771363541946343e+00 -4.262728728621733154e+01 -2.868143292949297152e+00 -6.918652540362435488e+00 -2.868143292949297152e+00 -4.497257182000562636e+01
-3.704016742715069199e+01 1.643513751568355108e+00 -6.835350398033080310e+00 1.643513751568355108e+00 -4.249243811509823843e+01 -2.749851188262849355e+00 -6.835350398033080310e+00 -2.749851188262849355e+00 -4.437802957669401849e+01
-3.670831787715895445e+01 1.725150616695814376e+00 -6.746191073821191431e+00 1.725150616695814376e+00 -4.229964878202348899e+01 -2.628439081462503601e+00 -6.746191073821191431e+00 -2.628439081462503601e+00 -4.363365066744623988e+01
-3.632731393803537401e+01 1.804184289875481406e+00 -6.650542910857084600e+00 1.804184289875481406e+00 -4.204999118955984017e+01 -2.503485867968469947e+00 -6.650542910857084600e+00 -2.503485867968469947e+00 -4.274318675124587941e+01
-3.589933769714794920e+01 1.880040537589460437e+00 -6.547869957857392009e+00 1.880040537589460437e+00 -4.174501576820561155e+01 -2.374570443200958447e+00 -6.547869957857392009e+00 -2.374570443200958447e+00 -4.171167194193315453e+01
-3.542683921750636955e+01 1.952202549671646192e+00 -6.437483134600637591e+00 1.952202549671646192e+00 -4.138667491192163794e+01 -2.241271702580178271e+00 -6.437483134600637591e+00 -2.241271702580178271e+00 -4.054484857468700909e+01
-3.491253653776200849e+01 2.020096092604142690e+00 -6.318693360865347053e+00 2.020096092604142690e+00 -4.097705500248959964e+01 -2.103149400409077163e+00 -6.318693360865347053e+00 -2.103149400409077163e+00 -3.924909064155610139e+01
-3.435972193008412745e+01 2.083070368400002259e+00 -6.190868979781836146e+00 2.083070368400002259e+00 -4.051879751409182262e+01 -1.959763290990601758e+00 -6.190868979781836146e+00 -1.959763290990601758e+00 -3.783195888385935746e+01
4.457427631193477069e+00 -7.947867928605075960e+00 1.351615318701171553e+01 -7.947867928605075960e+00 4.244973235098619568e+00 -1.992780549459835626e+01 1.351615318701171553e+01 -1.992780549459835626e+01 1.878954656883608365e+01
4.477120630019589598e+00 -7.919622131018716260e+00 1.382768349143430164e+01 -7.919622131018716260e+00 4.259509399378114125e+00 -1.972654520276322998e+01 1.382768349143430164e+01 -1.972654520276322998e+01 1.883385581619483773e+01
4.480211137134637589e+00 -7.878619007550476283e+00 1.410974616987620500e+01 -7.878619007550476283e+00 4.262492098105426841e+00 -1.948938471781261939e+01 1.410974616987620500e+01 -1.948938471781261939e+01 1.882160159612238459e+01
4.465621068661276283e+00 -7.825164015298937237e+00 1.436264667943600770e+01 -7.825164015298937237e+00 4.252969023855572850e+00 -1.921618029522954529e+01 1.436264667943600770e+01 -1.921618029522954529e+01 1.875071758118714982e+01
4.434194923636757935e+00 -7.759418866845700258e+00 1.458523506397787806e+01 -7.759418866845700258e+00 4.232215909216740179e+00 -1.890795611469747683e+01 1.458523506397787806e+01 -1.890795611469747683e+01 1.862339587527306506e+01
4.384243703986579810e+00 -7.681940572194057459e+00 1.477756522769568370e+01 -7.681940572194057459e+00 4.198453915791313662e+00 -1.856489185686264065e+01 1.477756522769568370e+01 -1.856489185686264065e+01 1.843764202320704371e+01
4.314455740993309973e+00 -7.593322077476546639e+00 1.493943952187858137e+01 -7.593322077476546639e+00 4.150191694215638272e+00 -1.818747265946983660e+01 1.493943952187858137e+01 -1.818747265946983660e+01 1.819223419659476804e+01
4.223663110456493008e+00 -7.494282105278065487e+00 1.507076810620345597e+01 -7.494282105278065487e+00 4.086189448030770777e+00 -1.777611178800538738e+01 1.507076810620345597e+01 -1.777611178800538738e+01 1.788634586446360686e+01
4.110554143658698756e+00 -7.385485473989638727e+00 1.517151504454106359e+01 -7.385485473989638727e+00 4.004794115291451462e+00 -1.733107876343862586e+01 1.517151504454106359e+01 -1.733107876343862586e+01 1.751864739003150362e+01
3.973403906396178353e+00 -7.267794650713139681e+00 1.524175220914989204e+01 -7.267794650713139681e+00 3.904172953406201074e+00 -1.685276888319123856e+01 1.524175220914989204e+01 -1.685276888319123856e+01 1.708764742393480773e+01
-1.101091666677355185e+01 2.187429447402738703e+00 -6.834128330318898215e+00 2.187429447402738703e+00 6.849884557496346282e+00 2.867990295149190771e+01 -6.834128330318898215e+00 2.867990295149190771e+01 3.664633433992101885e+01
-1.101919139019969229e+01 2.239691807342579555e+00 -6.799082442866999365e+00 2.239691807342579555e+00 6.670382550624665896e+00 2.869432512739803798e+01 -6.799082442866999365e+00 2.869432512739803798e+01 3.639540650687422385e+01
-1.104926162696397540e+01 2.289520425098261480e+00 -6.754698196515882991e+00 2.289520425098261480e+00 6.429766573350756076e+00 2.864229712781667203e+01 -6.754698196515882991e+00 2.864229712781667203e+01 3.601558047666638629e+01
-1.110165018094299683e+01 2.336608829431778389e+00 -6.701209951624020000e+00 2.336608829431778389e+00 6.129947563982179659e+00 2.852497272682029816e+01 -6.701209951624020000e+00 2.852497272682029816e+01 3.550851479952670786e+01
-1.117738463217006384e+01 2.380596465945477469e+00 -6.638707846790826039e+00 2.380596465945477469e+00 5.772872516266263965e+00 2.834372203112000221e+01 -6.638707846790826039e+00 2.834372203112000221e+01 3.487655307903994384e+01
-1.127779903191650135e+01 2.421176863401353074e+00 -6.567282020615713201e+00 2.421176863401353074e+00 5.360686728869046291e+00 2.810027570182451129e+01 -6.567282020615713201e+00 2.810027570182451129e+01 3.412259777810719186e+01
-1.140440770865244602e+01 2.458025522841517319e+00 -6.486986556258329983e+00 2.458025522841517319e+00 4.895697749935507659e+00 2.779661678812092873e+01 -6.486986556258329983e+00 2.779661678812092873e+01 3.324996599718686241e+01
-1.155894132348663739e+01 2.490890056187612611e+00 -6.397785398278911018e+00 2.490890056187612611e+00 4.380501571128751159e+00 2.743501678271446309e+01 -6.397785398278911018e+00 2.743501678271446309e+01 3.226291227817127805e+01
-1.174293223260910146e+01 2.519572158520930305e+00 -6.299714602117221673e+00 2.519572158520930305e+00 3.817766294991409737e+00 2.701794548322904532e+01 -6.299714602117221673e+00 2.701794548322904532e+01 3.116522244223577331e+01
-1.195794884764962873e+01 2.543999718961939216e+00 -6.192756140053378822e+00 2.543999718961939216e+00 3.210484523024008219e+00 2.654817915852660093e+01 -6.192756140053378822e+00 2.654817915852660093e+01 2.996154764111010493e+01
2.148108101634843337e+01 -1.232267866001961742e+01 9.586674191341330697e+00 -1.232267866001961742e+01 6.078161534950426770e+00 -4.664764415896276439e+00 9.586674191341330697e+00 -4.664764415896276439e+00 5.650658044768751331e+00
2.141795166082860646e+01 -1.232503729996544628e+01 9.619427123316379280e+00 -1.232503729996544628e+01 6.064956724950667066e+00 -4.734951822769155605e+00 9.619427123316379280e+00 -4.734951822769155605e+00 5.528223189398852710e+00
2.134812162364449151e+01 -1.231031366878844757e+01 9.631595561218729173e+00 -1.231031366878844757e+01 6.064402801933085563e+00 -4.794328796556980521e+00 9.631595561218729173e+00 -4.794328796556980521e+00 5.397693910578491128e+00
2.127185893206265632e+01 -1.227900808405288657e+01 9.624108666239161280e+00 -1.227900808405288657e+01 6.075981579848978242e+00 -4.843449260277332691e+00 9.624108666239161280e+00 -4.843449260277332691e+00 5.257694335005933972e+00
2.118857392609664458e+01 -1.223179954816741244e+01 9.597806257146270781e+00 -1.223179954816741244e+01 6.097798999347904925e+00 -4.882742057556726856e+00 9.597806257146270781e+00 -4.882742057556726856e+00 5.107080879677142526e+00
2.109789136757326133e+01 -1.216936706354067255e+01 9.553456678770892552e+00 -1.216936706354067255e+01 6.128229028345998586e+00 -4.912618163537239013e+00 9.553456678770892552e+00 -4.912618163537239013e+00 4.944477671290381515e+00
2.099882848984840322e+01 -1.209249684348794140e+01 9.491703196552800037e+00 -1.209249684348794140e+01 6.164948763866306081e+00 -4.933560027298699247e+00 9.491703196552800037e+00 -4.933560027298699247e+00 4.767883439588584515e+00
2.089042039476241541e+01 -1.200197510132449885e+01 9.413296286838392035e+00 -1.200197510132449885e+01 6.205510223540805725e+00 -4.945907150045429468e+00 9.413296286838392035e+00 -4.945907150045429468e+00 4.575064624016986770e+00
2.077155923628013667e+01 -1.189867739278780867e+01 9.318736267191939149e+00 -1.189867739278780867e+01 6.247251003188219798e+00 -4.950052638435070484e+00 9.318736267191939149e+00 -4.950052638435070484e+00 4.363483899785379094e+00
2.064094061503758581e+01 -1.178338993119315248e+01 9.208487718208827388e+00 -1.178338993119315248e+01 6.287437224689520043e+00 -4.946246651249754045e+00 9.208487718208827388e+00 -4.946246651249754045e+00 4.130550336650235188e+00
-6.608056188363276462e+00 -5.859818364773307309e+00 5.529808035429684132e+00 -5.859818364773307309e+00 -5.343852429741840382e+00 -1.951440003218320740e+01 5.529808035429684132e+00 -1.951440003218320740e+01 1.644144458188786118e+01
-6.591939066783726098e+00 -5.942439054539050858e+00 5.629199980232548306e+00 -5.942439054539050858e+00 -5.296682139301577941e+00 -1.943514086157441412e+01 5.629199980232548306e+00 -1.943514086157441412e+01 1.651525264035024421e+01
-6.585888332301211179e+00 -6.016973927954288648e+00 5.714782440931174712e+00 -6.016973927954288648e+00 -5.261358932592845150e+00 -1.932232101051756246e+01 5.714782440931174712e+00 -1.932232101051756246e+01 1.654370744575449947e+01
-6.590031177532482687e+00 -6.082914214552020304e+00 5.786301032292066715e+00 -6.082914214552020304e+00 -5.237937320737106717e+00 -1.917579511602207987e+01 5.786301032292066715e+00 -1.917579511602207987e+01 1.652533719782109856e+01
-6.605421484159178291e+00 -6.139769314239069686e+00 5.843483198707899895e+00 -6.139769314239069686e+00 -5.227307652051607967e+00 -1.899556317808796635e+01 5.843483198707899895e+00 -1.899556317808796635e+01 1.645881545926108558e+01
-6.633240326479687532e+00 -6.187139478791366720e+00 5.886147236440463892e+00 -6.187139478791366720e+00 -5.230541978591810803e+00 -1.878164336708904258e+01 5.886147236440463892e+00 -1.878164336708904258e+01 1.634274311129021129e+01
-6.674904993652075902e+00 -6.224697641480127608e+00 5.914056930630079201e+00 -6.224697641480127608e+00 -5.248821374656102989e+00 -1.853405385339912925e+01 5.914056930630079201e+00 -1.853405385339912925e+01 1.617572103512422643e+01
-6.732032648946447040e+00 -6.252171246698030593e+00 5.927066918286176822e+00 -6.252171246698030593e+00 -5.283417766411981020e+00 -1.825277646664440212e+01 5.927066918286176822e+00 -1.825277646664440212e+01 1.595595036375482145e+01
-6.806367648249648461e+00 -6.269414931454505790e+00 5.925068177165826455e+00 -6.269414931454505790e+00 -5.335784783765154415e+00 -1.793777486607723048e+01 5.925068177165826455e+00 -1.793777486607723048e+01 1.568170491166896596e+01
-6.899618006700891648e+00 -6.276319673506623786e+00 5.907933514652279783e+00 -6.276319673506623786e+00 -5.407321545499867099e+00 -1.758883100721174486e+01 5.907933514652279783e+00 -1.758883100721174486e+01 1.535116764148452795e+01
-5.206223850341736181e+01 -2.603696003571052131e+00 -1.611284049433468368e+01 -2.603696003571052131e+00 -4.209206848321709060e+01 2.833967706070076087e+00 -1.611284049433468368e+01 2.833967706070076087e+00 -4.702323485092006905e+01
-5.208482930435010161e+01 -2.621981036462765591e+00 -1.614995119467034357e+01 -2.621981036462765591e+00 -4.208834196648202663e+01 2.855747555174461549e+00 -1.614995119467034357e+01 2.855747555174461549e+00 -4.706229569731915774e+01
-5.204876125636518225e+01 -2.638470390305979407e+00 -1.617333363905457233e+01 -2.638470390305979407e+00 -4.203292692487778481e+01 2.873163711107223239e+00 -1.617333363905457233e+01 2.873163711107223239e+00 -4.694526762513681462e+01
-5.195378335056334151e+01 -2.652777897563381337e+00 -1.618294921073363568e+01 -2.652777897563381337e+00 -4.192520549034466626e+01 2.886447874390749124e+00 -1.618294921073363568e+01 2.886447874390749124e+00 -4.667172585008200514e+01
-5.180064861364235185e+01 -2.664633240958853566e+00 -1.617854690080828206e+01 -2.664633240958853566e+00 -4.176596930633414217e+01 2.895812437170560028e+00 -1.617854690080828206e+01 2.895812437170560028e+00 -4.624317642555023866e+01
-5.159038038957607597e+01 -2.673766103216277834e+00 -1.615968261661060268e+01 -2.673766103216277834e+00 -4.155618379168950582e+01 2.901469791592177661e+00 -1.615968261661060268e+01 2.901469791592177661e+00 -4.566166603948926905e+01
-5.132419510610705515e+01 -2.679867550305804258e+00 -1.612581572358835658e+01 -2.679867550305804258e+00 -4.129694952389210272e+01 2.903690254931720727e+00 -1.612581572358835658e+01 2.903690254931720727e+00 -4.492997509816774482e+01
-5.100356019987707157e+01 -2.682647956574448767e+00 -1.607636697043558272e+01 -2.682647956574448767e+00 -4.098961808932250506e+01 2.902666910957844681e+00 -1.607636697043558272e+01 2.902666910957844681e+00 -4.405130879214534900e+01
-5.063021342480402609e+01 -2.681856313122959801e+00 -1.601064125558511719e+01 -2.681856313122959801e+00 -4.063577277488371209e+01 2.898689385323533152e+00 -1.601064125558511719e+01 2.898689385323533152e+00 -4.302954810517207562e+01
-5.020616285208194540e+01 -2.677260919428948949e+00 -1.592788555233919645e+01 -2.677260919428948949e+00 -4.023740234339285848e+01 2.891989378551173218e+00 -1.592788555233919645e+01 2.891989378551173218e+00 -4.186955874821803292e+01
-1.839170462372134551e+01 -1.740232398058396024e+00 -2.251979236603874313e+01 -1.740232398058396024e+00 -4.140157718497248140e+01 -6.633620126351595481e+00 -2.251979236603874313e+01 -6.633620126351595481e+00 -5.615042649985333867e+01
-1.832917800274870856e+01 -1.694416296950445044e+00 -2.261334466211850724e+01 -1.694416296950445044e+00 -4.138011395752398869e+01 -6.632327389888798663e+00 -2.261334466211850724e+01 -6.632327389888798663e+00 -5.601989813877151647e+01
-1.820925768499395758e+01 -1.650254138081660660e+00 -2.268376077768026988e+01 -1.650254138081660660e+00 -4.128850076613841935e+01 -6.625407447646766812e+00 -2.268376077768026988e+01 -6.625407447646766812e+00 -5.570589625412419821e+01
-1.803363563435692285e+01 -1.608012073076736437e+00 -2.273105972355437032e+01 -1.608012073076736437e+00 -4.112823946641226769e+01 -6.612423050527792334e+00 -2.273105972355437032e+01 -6.612423050527792334e+00 -5.521326860764688149e+01
-1.780312931654202302e+01 -1.567861199408689732e+00 -2.275474721815209023e+01 -1.567861199408689732e+00 -4.089961522080056255e+01 -6.592974971094831993e+00 -2.275474721815209023e+01 -6.592974971094831993e+00 -5.454391628237308964e+01
-1.751901245718172007e+01 -1.530105690362884241e+00 -2.275425293656337544e+01 -1.530105690362884241e+00 -4.060336945168636902e+01 -6.566625960250175531e+00 -2.275425293656337544e+01 -6.566625960250175531e+00 -5.370086200032611146e+01
-1.718305306349719430e+01 -1.494897632582002478e+00 -2.272885446723548242e+01 -1.494897632582002478e+00 -4.024075687387182398e+01 -6.532957779726449310e+00 -2.272885446723548242e+01 -6.532957779726449310e+00 -5.268849726331341543e+01
-1.679722826184330842e+01 -1.462427134369396420e+00 -2.267775335529433178e+01 -1.462427134369396420e+00 -3.981305121298937877e+01 -6.491533180425941296e+00 -2.267775335529433178e+01 -6.491533180425941296e+00 -5.151170785473114222e+01
-1.636429462261867229e+01 -1.432884304028418709e+00 -2.260015114586584417e+01 -1.432884304028418709e+00 -3.932238168203659257e+01 -6.441819859099263468e+00 -2.260015114586584417e+01 -6.441819859099263468e+00 -5.017714756519662700e+01
-1.588710377037357802e+01 -1.406516282353427849e+00 -2.249534443822761531e+01 -1.406516282353427849e+00 -3.877135276476938941e+01 -6.383608696612730782e+00 -2.249534443822761531e+01 -6.383608696612730782e+00 -4.869375148496744998e+01
-1.505003659401160654e+01 1.035768138302019281e+01 8.940407021125237108e+00 1.035768138302019281e+01 1.825959153040863825e+01 6.193050913320801154e-01 8.940407021125237108e+00 6.193050913320801154e-01 -4.939410021849828247e+00
-1.512107437097794005e+01 1.030861853859168420e+01 9.031515961721416019e+00 1.030861853859168420e+01 1.832393891949835663e+01 5.997234682785729243e-01 9.031515961721416019e+00 5.997234682785729243e-01 -4.960786627016574357e+00
-1.515947610952176206e+01 1.025398943649888928e+01 9.114393368182140520e+00 1.025398943649888928e+01 1.838825004632316507e+01 5.761711272169933729e-01 9.114393368182140520e+00 5.761711272169933729e-01 -4.950270570191541708e+00
-1.516502423605358807e+01 1.019413856825849329e+01 9.188984847110035048e+00 1.019413856825849329e+01 1.845178153445231928e+01 5.492101332535069824e-01 9.188984847110035048e+00 5.492101332535069824e-01 -4.908949719322150074e+00
-1.513837147134187155e+01 1.012926537632752222e+01 9.254982169253338498e+00 1.012926537632752222e+01 1.851306476215681585e+01 5.197651741434182737e-01 9.254982169253338498e+00 5.197651741434182737e-01 -4.838619056521636708e+00
-1.508067820786385305e+01 1.005964182769282900e+01 9.312040843095363840e+00 1.005964182769282900e+01 1.857021409166112491e+01 4.885977574499192899e-01 9.312040843095363840e+00 4.885977574499192899e-01 -4.741508711082206950e+00
-1.499330428055380615e+01 9.985485495943899892e+00 9.359653196927318675e+00 9.985485495943899892e+00 1.862112631160024634e+01 4.565237841335728075e-01 9.359653196927318675e+00 4.565237841335728075e-01 -4.620501533064514277e+00
-1.487791775359776913e+01 9.906959561272843828e+00 9.397275296775491782e+00 9.906959561272843828e+00 1.866355316154950827e+01 4.242141060952858700e-01 9.397275296775491782e+00 4.242141060952858700e-01 -4.478661683853785824e+00
-1.473618669118178204e+01 9.824227203871776837e+00 9.424290684136348517e+00 9.824227203871776837e+00 1.869524638108426018e+01 3.923577063684227095e-01 9.424290684136348517e+00 3.923577063684227095e-01 -4.319415947484383622e+00
-1.456996046881645412e+01 9.737542259595093341e+00 9.439955982579153471e+00 9.737542259595093341e+00 1.871379452958772305e+01 3.614803877942348587e-01 9.439955982579153471e+00 3.614803877942348587e-01 -4.145828485341533920e+00
-6.251323821858327356e+00 -6.006215189206818295e+00 1.906586348204487891e+01 -6.006215189206818295e+00 -3.276341337876674942e+01 4.462457874010388181e+00 1.906586348204487891e+01 4.462457874010388181e+00 -3.014043583509049995e+01
-6.168427384809255010e+00 -5.904650735625434521e+00 1.904307395536907066e+01 -5.904650735625434521e+00 -3.264359119473068915e+01 4.651002976050011561e+00 1.904307395536907066e+01 4.651002976050011561e+00 -2.984385494906319281e+01
-6.052297775471892294e+00 -5.796708198473571549e+00 1.899301905389781808e+01 -5.796708198473571549e+00 -3.246920096236941333e+01 4.836825270483522843e+00 1.899301905389781808e+01 4.836825270483522843e+00 -2.943440809295242033e+01
-5.904240449547801362e+00 -5.683058954969173904e+00 1.891566147889679428e+01 -5.683058954969173904e+00 -3.224160408548596735e+01 5.019607718069115876e+00 1.891566147889679428e+01 5.019607718069115876e+00 -2.891742898576741538e+01
-5.724852186786264951e+00 -5.564448979798847006e+00 1.881100123036599925e+01 -5.564448979798847006e+00 -3.196165843496997283e+01 5.198455149182862556e+00 1.881100123036599925e+01 5.198455149182862556e+00 -2.829457742118588115e+01
-5.515457092256009553e+00 -5.441642897016363278e+00 1.867900100957109899e+01 -5.441642897016363278e+00 -3.163102380449910100e+01 5.372453744833672218e+00 1.867900100957109899e+01 5.372453744833672218e+00 -2.756921028529754025e+01
-5.277584414064575569e+00 -5.315517226878482049e+00 1.851969811524642040e+01 -5.315517226878482049e+00 -3.125163972825854586e+01 5.540782932866276767e+00 1.851969811524642040e+01 5.540782932866276767e+00 -2.674539314014439384e+01
-5.013024491459819210e+00 -5.186967139009133199e+00 1.833303659929048024e+01 -5.186967139009133199e+00 -3.082602387081558959e+01 5.702566193023915986e+00 1.833303659929048024e+01 5.702566193023915986e+00 -2.582784427561922769e+01
-4.723772806728409712e+00 -5.056869153665076944e+00 1.811907240980476175e+01 -5.056869153665076944e+00 -3.035691768914351130e+01 5.856964303784156556e+00 1.811907240980476175e+01 5.856964303784156556e+00 -2.482184146262977009e+01
-4.412104582664494679e+00 -4.926248986040396183e+00 1.787784284552360248e+01 -4.926248986040396183e+00 -2.984749157566039912e+01 6.003249939827559167e+00 1.787784284552360248e+01 6.003249939827559167e+00 -2.373314735563006295e+01
-8.754712564433903665e+00 2.492352534448694534e+00 -1.128201503583026089e+01 2.492352534448694534e+00 4.906181896392913799e+00 -1.492365961605350577e+01 -1.128201503583026089e+01 -1.492365961605350577e+01 -2.238082151561704336e+01
-8.726357989346201549e+00 2.499331560017961085e+00 -1.131908425802932605e+01 2.499331560017961085e+00 4.861749984915276102e+00 -1.486150609514605492e+01 -1.131908425802932605e+01 -1.486150609514605492e+01 -2.241021746363000489e+01
-8.658120658191196028e+00 2.501542193771577161e+00 -1.134172041687833676e+01 2.501542193771577161e+00 4.849107352208646304e+00 -1.477719142760111382e+01 -1.134172041687833676e+01 -1.477719142760111382e+01 -2.235261309813288477e+01
-8.550256346775089611e+00 2.498783469004667968e+00 -1.134974081537285961e+01 2.498783469004667968e+00 4.868655931682771332e+00 -1.467102619832621890e+01 -1.134974081537285961e+01 -1.467102619832621890e+01 -2.220904979205094776e+01
-8.404025664428459663e+00 2.490945767514574971e+00 -1.134287140800625160e+01 2.490945767514574971e+00 4.920103408130560574e+00 -1.454343061043155672e+01 -1.134287140800625160e+01 -1.454343061043155672e+01 -2.198076988501432183e+01
-8.220835378085423528e+00 2.477773313495094332e+00 -1.132081987957142211e+01 2.477773313495094332e+00 5.002846881437394089e+00 -1.439482486702732089e+01 -1.132081987957142211e+01 -1.439482486702732089e+01 -2.166958207736687569e+01
-8.002421109288075485e+00 2.459211297844897448e+00 -1.128322083605950610e+01 2.459211297844897448e+00 5.115844978678012467e+00 -1.422551955302104787e+01 -1.128322083605950610e+01 -1.422551955302104787e+01 -2.127815374537330229e+01
-7.750701176582943219e+00 2.435150102361325342e+00 -1.122961753495943071e+01 2.435150102361325342e+00 5.257946708724500873e+00 -1.403577044421893483e+01 -1.122961753495943071e+01 -1.403577044421893483e+01 -2.080928015320139934e+01
-7.467831404622313762e+00 2.405534917943048523e+00 -1.115960804286144281e+01 2.405534917943048523e+00 5.427672225840967535e+00 -1.382577850732585922e+01 -1.115960804286144281e+01 -1.382577850732585922e+01 -2.026648735303668403e+01
-7.155711842252268973e+00 2.370365744590066992e+00 -1.107266253845269510e+01 2.370365744590066992e+00 5.623578223692406119e+00 -1.359559855144315144e+01 -1.107266253845269510e+01 -1.359559855144315144e+01 -1.965284465455359708e+01
-2.634094097130374479e+01 1.108710521655129355e+01 -2.496450741375789306e+01 1.108710521655129355e+01 -3.485226497849815530e+01 -7.251690582037646493e+00 -2.496450741375789306e+01 -7.251690582037646493e+00 -4.309293789196407687e+01
-2.615824532369205357e+01 1.109188107787890232e+01 -2.495620651192657391e+01 1.109188107787890232e+01 -3.463026323408701757e+01 -7.297004409157933580e+00 -2.495620651192657391e+01 -7.297004409157933580e+00 -4.249102775004007526e+01
-2.593074754838803031e+01 1.108481204504081497e+01 -2.491557378698056979e+01 1.108481204504081497e+01 -3.435011727319530905e+01 -7.327441049206105284e+00 -2.491557378698056979e+01 -7.327441049206105284e+00 -4.174785066233832254e+01
-2.565994484001422649e+01 1.106586021437570189e+01 -2.484230600962924029e+01 1.106586021437570189e+01 -3.401328638678425165e+01 -7.342924694859502388e+00 -2.484230600962924029e+01 -7.342924694859502388e+00 -4.086985025128495153e+01
-2.534729648953185333e+01 1.103510139320622230e+01 -2.473591043227529696e+01 1.103510139320622230e+01 -3.362140043229103270e+01 -7.343493249779456278e+00 -2.473591043227529696e+01 -7.343493249779456278e+00 -3.986106325681163298e+01
-2.499426178790212205e+01 1.099245977420971698e+01 -2.459638705491873267e+01 1.099245977420971698e+01 -3.317610821898353635e+01 -7.329184617627295673e+00 -2.459638705491873267e+01 -7.329184617627295673e+00 -3.872806596415915692e+01
-2.460394883535411026e+01 1.093842810498347973e+01 -2.442303465982493904e+01 1.093842810498347973e+01 -3.268082107638146283e+01 -7.300150413048341669e+00 -2.442303465982493904e+01 -7.300150413048341669e+00 -3.747516043888851556e+01
-2.417866975522897022e+01 1.087313904834216416e+01 -2.421598590980857679e+01 1.087313904834216416e+01 -3.213828701993125492e+01 -7.256750720825232648e+00 -2.421598590980857679e+01 -7.256750720825232648e+00 -3.611125404141230177e+01
-2.372147579226377090e+01 1.079700954456040307e+01 -2.397527870853096843e+01 1.079700954456040307e+01 -3.155220165661263110e+01 -7.199383529401933934e+00 -2.397527870853096843e+01 -7.199383529401933934e+00 -3.464514042115912673e+01
-2.323570246865558886e+01 1.071055129306615683e+01 -2.370121628528276858e+01 1.071055129306615683e+01 -3.092677229283322049e+01 -7.128579490037070698e+00 -2.370121628528276858e+01 -7.128579490037070698e+00 -3.308654186726020896e+01
-6.782293484920940863e+00 6.172516153786705040e+00 -1.647208723923660800e+00 6.172516153786705040e+00 -1.625131663163072560e+01 1.496902014244150614e+01 -1.647208723923660800e+00 1.496902014244150614e+01 -3.024181945748954803e+01
-6.655478439526757661e+00 6.146812900199956964e+00 -1.742310762194626772e+00 6.146812900199956964e+00 -1.616289004267257567e+01 1.481520743500656678e+01 -1.742310762194626772e+00 1.481520743500656678e+01 -2.993406460177427064e+01
-6.485689033459479447e+00 6.114230790257619397e+00 -1.836414256801071954e+00 6.114230790257619397e+00 -1.602784625782076233e+01 1.464575087682746179e+01 -1.836414256801071954e+00 1.464575087682746179e+01 -2.951299353168518635e+01
-6.274182692074429468e+00 6.074936247903778508e+00 -1.929482224644309518e+00 6.074936247903778508e+00 -1.584683248130229494e+01 1.446011421297324695e+01 -1.929482224644309518e+00 1.446011421297324695e+01 -2.898237852328826492e+01
-6.022642146361819826e+00 6.029151171730550374e+00 -2.021200309385509541e+00 6.029151171730550374e+00 -1.562097669762708918e+01 1.425798308710509055e+01 -2.021200309385509541e+00 1.425798308710509055e+01 -2.834564051321195777e+01
-5.733101466749378261e+00 5.977134443428736787e+00 -2.111106222291097012e+00 5.977134443428736787e+00 -1.535153633215047186e+01 1.403913560063087651e+01 -2.111106222291097012e+00 1.403913560063087651e+01 -2.760669970991698108e+01
-5.408057012398407970e+00 5.919218910886510976e+00 -2.198811640824869684e+00 5.919218910886510976e+00 -1.504054545530016718e+01 1.380310946481703027e+01 -2.198811640824869684e+00 1.380310946481703027e+01 -2.677053034017658817e+01
-5.050264024161013054e+00 5.855811388189419375e+00 -2.283817293154566830e+00 5.855811388189419375e+00 -1.469001964595456577e+01 1.354940540783129066e+01 -2.283817293154566830e+00 1.354940540783129066e+01 -2.584242098710288715e+01
-4.662662658382727976e+00 5.787318689423007534e+00 -2.365642398997270135e+00 5.787318689423007534e+00 -1.430236280552825257e+01 1.327739471699599783e+01 -2.365642398997270135e+00 1.327739471699599783e+01 -2.482814101409087826e+01
-4.248470444649231403e+00 5.714277069518220564e+00 -2.443806178070063062e+00 5.714277069518220564e+00 -1.388007129318252986e+01 1.298639320498546113e+01 -2.443806178070063062e+00 1.298639320498546113e+01 -2.373377414087440584e+01