0.000000000000000000e+00 2.032270000000000021e+00 9.266510000000000247e+00 -1.760000000000000009e+00 5.080680000000000085e+00 9.266510000000000247e+00 -3.520000000000000018e+00 8.129089999999999705e+00 9.266510000000000247e+00 3.520000000000000018e+00 2.032270000000000021e+00 9.266510000000000247e+00 1.760000000000000009e+00 5.080680000000000085e+00 9.266510000000000247e+00 0.000000000000000000e+00 8.129089999999999705e+00 9.266510000000000247e+00 7.040000000000000036e+00 2.032270000000000021e+00 9.266510000000000247e+00 5.280000000000000249e+00 5.080680000000000085e+00 9.266510000000000247e+00 3.520000000000000018e+00 8.129089999999999705e+00 9.266510000000000247e+00 5.280000000000000249e-01 2.032270000000000021e+00 1.711283999999999850e+01 -1.231999999999999984e+00 5.080680000000000085e+00 1.711283999999999850e+01 -2.991999999999999993e+00 8.129089999999999705e+00 1.711283999999999850e+01 4.048000000000000043e+00 2.032270000000000021e+00 1.711283999999999850e+01 2.287999999999999812e+00 5.080680000000000085e+00 1.711283999999999850e+01 5.280000000000000249e-01 8.129089999999999705e+00 1.711283999999999850e+01 7.567999999999999616e+00 2.032270000000000021e+00 1.711283999999999850e+01 5.807999999999999829e+00 5.080680000000000085e+00 1.711283999999999850e+01 4.048000000000000043e+00 8.129089999999999705e+00 1.711283999999999850e+01 0.000000000000000000e+00 2.032270000000000021e+00 1.288716999999999935e+01 -1.760000000000000009e+00 5.080680000000000085e+00 1.288716999999999935e+01 -3.520000000000000018e+00 8.129089999999999705e+00 1.288716999999999935e+01 3.520000000000000018e+00 2.032270000000000021e+00 1.288716999999999935e+01 1.760000000000000009e+00 5.080680000000000085e+00 1.288716999999999935e+01 0.000000000000000000e+00 8.129089999999999705e+00 1.288716999999999935e+01 7.040000000000000036e+00 2.032270000000000021e+00 1.288716999999999935e+01 5.280000000000000249e+00 5.080680000000000085e+00 1.288716999999999935e+01 3.520000000000000018e+00 8.129089999999999705e+00 1.288716999999999935e+01 5.280000000000000249e-01 2.032270000000000021e+00 2.073349999999999937e+01 -1.231999999999999984e+00 5.080680000000000085e+00 2.073349999999999937e+01 -2.991999999999999993e+00 8.129089999999999705e+00 2.073349999999999937e+01 4.048000000000000043e+00 2.032270000000000021e+00 2.073349999999999937e+01 2.287999999999999812e+00 5.080680000000000085e+00 2.073349999999999937e+01 5.280000000000000249e-01 8.129089999999999705e+00 2.073349999999999937e+01 7.567999999999999616e+00 2.032270000000000021e+00 2.073349999999999937e+01 5.807999999999999829e+00 5.080680000000000085e+00 2.073349999999999937e+01 4.048000000000000043e+00 8.129089999999999705e+00 2.073349999999999937e+01 0.000000000000000000e+00 0.000000000000000000e+00 1.107665000000000077e+01 -1.760000000000000009e+00 3.048410000000000064e+00 1.107665000000000077e+01 -3.520000000000000018e+00 6.096820000000000128e+00 1.107665000000000077e+01 3.520000000000000018e+00 0.000000000000000000e+00 1.107665000000000077e+01 1.760000000000000009e+00 3.048410000000000064e+00 1.107665000000000077e+01 0.000000000000000000e+00 6.096820000000000128e+00 1.107665000000000077e+01 7.040000000000000036e+00 0.000000000000000000e+00 1.107665000000000077e+01 5.280000000000000249e+00 3.048410000000000064e+00 1.107665000000000077e+01 3.520000000000000018e+00 6.096820000000000128e+00 1.107665000000000077e+01 5.280000000000000249e-01 0.000000000000000000e+00 1.892336999999999847e+01 -1.231999999999999984e+00 3.048410000000000064e+00 1.892336999999999847e+01 -2.991999999999999993e+00 6.096820000000000128e+00 1.892336999999999847e+01 4.048000000000000043e+00 0.000000000000000000e+00 1.892336999999999847e+01 2.287999999999999812e+00 3.048410000000000064e+00 1.892336999999999847e+01 5.280000000000000249e-01 6.096820000000000128e+00 1.892336999999999847e+01 7.567999999999999616e+00 0.000000000000000000e+00 1.892336999999999847e+01 5.807999999999999829e+00 3.048410000000000064e+00 1.892336999999999847e+01 4.048000000000000043e+00 6.096820000000000128e+00 1.892336999999999847e+01
-2.400000000000000061e-04 2.032119999999999926e+00 9.266809999999999548e+00 -1.761039999999999939e+00 5.083219999999999850e+00 9.265340000000000131e+00 -3.517479999999999940e+00 8.129530000000000811e+00 9.263379999999999725e+00 3.520239999999999814e+00 2.033619999999999983e+00 9.268610000000000682e+00 1.758869999999999933e+00 5.078990000000000116e+00 9.263419999999999987e+00 -1.779999999999999898e-03 8.129789999999999850e+00 9.267640000000000100e+00 7.039570000000000327e+00 2.032950000000000035e+00 9.268330000000000624e+00 5.281380000000000408e+00 5.081400000000000361e+00 9.264820000000000277e+00 3.520830000000000126e+00 8.129080000000000084e+00 9.265539999999999665e+00 5.276899999999999924e-01 2.033879999999999910e+00 1.711426000000000158e+01 -1.233130000000000059e+00 5.081640000000000157e+00 1.711281999999999925e+01 -2.991639999999999855e+00 8.131510000000000460e+00 1.711362000000000094e+01 4.046149999999999913e+00 2.031169999999999920e+00 1.711297000000000068e+01 2.288870000000000182e+00 5.078750000000000320e+00 1.711356999999999928e+01 5.259099999999999886e-01 8.130300000000000082e+00 1.711277000000000115e+01 7.568249999999999922e+00 2.032259999999999955e+00 1.711343000000000103e+01 5.810550000000000104e+00 5.079780000000000406e+00 1.711261000000000010e+01 4.050150000000000361e+00 8.124969999999999359e+00 1.711422999999999917e+01 1.610000000000000103e-03 2.030749999999999833e+00 1.288406999999999947e+01 -1.759730000000000016e+00 5.080790000000000362e+00 1.288740999999999914e+01 -3.519499999999999851e+00 8.130860000000000198e+00 1.288697999999999944e+01 3.522670000000000190e+00 2.029860000000000220e+00 1.288785999999999987e+01 1.758699999999999930e+00 5.078350000000000364e+00 1.288763999999999932e+01 1.309999999999999967e-03 8.129390000000000782e+00 1.288650999999999947e+01 7.038280000000000314e+00 2.034879999999999800e+00 1.288754999999999917e+01 5.276559999999999917e+00 5.077679999999999971e+00 1.288481999999999950e+01 3.519899999999999807e+00 8.127610000000000667e+00 1.288604999999999912e+01 5.289800000000000058e-01 2.032179999999999875e+00 2.073566999999999894e+01 -1.229190000000000005e+00 5.080869999999999997e+00 2.073383000000000109e+01 -2.992150000000000087e+00 8.129820000000000491e+00 2.073619000000000057e+01 4.048479999999999634e+00 2.032779999999999809e+00 2.073459000000000074e+01 2.286840000000000206e+00 5.078479999999999883e+00 2.073442000000000007e+01 5.262299999999999756e-01 8.131679999999999353e+00 2.073745999999999867e+01 7.565870000000000317e+00 2.032340000000000035e+00 2.073342999999999847e+01 5.806759999999999700e+00 5.082119999999999749e+00 2.073543000000000092e+01 4.050279999999999880e+00 8.129329999999999501e+00 2.073354000000000141e+01 -5.279060000000000308e+00 9.145049999999999457e+00 1.107933000000000057e+01 8.797599999999999199e+00 3.047309999999999963e+00 1.107634000000000007e+01 -3.519499999999999851e+00 6.100609999999999644e+00 1.107343000000000011e+01 3.520919999999999828e+00 2.300000000000000070e-04 1.107568000000000019e+01 1.758089999999999931e+00 3.050590000000000135e+00 1.107809999999999917e+01 2.060000000000000199e-03 6.095690000000000275e+00 1.107945999999999920e+01 7.040269999999999584e+00 3.299999999999999982e-04 1.107587999999999973e+01 5.277459999999999596e+00 3.049619999999999997e+00 1.107790999999999926e+01 3.520410000000000039e+00 6.098790000000000155e+00 1.107301000000000002e+01 -4.751649999999999707e+00 9.143629999999999924e+00 1.892824999999999847e+01 -1.231980000000000075e+00 3.046149999999999913e+00 1.892302000000000106e+01 -2.992900000000000116e+00 6.095900000000000318e+00 1.892363999999999891e+01 -1.232310000000000016e+00 9.144729999999999137e+00 1.892219000000000051e+01 2.287110000000000198e+00 3.048519999999999897e+00 1.892289999999999850e+01 5.293299999999999672e-01 6.094759999999999955e+00 1.892097000000000051e+01 2.289320000000000022e+00 9.143319999999999226e+00 1.891950999999999894e+01 5.808320000000000149e+00 3.048820000000000086e+00 1.891903999999999897e+01 4.047119999999999607e+00 6.097999999999999865e+00 1.892173000000000016e+01
-4.800000000000000122e-04 2.031979999999999897e+00 9.267120000000000246e+00 -1.762070000000000025e+00 5.085749999999999993e+00 9.264170000000000016e+00 -3.514979999999999993e+00 8.129970000000000141e+00 9.260249999999999204e+00 3.520480000000000054e+00 2.034969999999999946e+00 9.270709999999999340e+00 1.757749999999999924e+00 5.077309999999999768e+00 9.260339999999999350e+00 -3.559999999999999797e-03 8.130489999999999995e+00 9.268760000000000332e+00 7.039139999999999731e+00 2.033630000000000049e+00 9.270129999999999981e+00 5.282759999999999678e+00 5.082110000000000127e+00 9.263120000000000687e+00 3.521659999999999791e+00 8.129080000000000084e+00 9.264559999999999462e+00 5.273900000000000254e-01 2.035480000000000178e+00 1.711568000000000112e+01 -1.234250000000000069e+00 5.082600000000000229e+00 1.711279000000000039e+01 -2.991289999999999782e+00 8.133910000000000196e+00 1.711439999999999984e+01 4.044299999999999784e+00 2.030060000000000198e+00 1.711308000000000007e+01 2.289740000000000109e+00 5.076830000000000176e+00 1.711427000000000120e+01 5.238399999999999723e-01 8.131489999999999441e+00 1.711270000000000024e+01 7.568500000000000227e+00 2.032249999999999890e+00 1.711400000000000077e+01 5.813089999999999868e+00 5.078879999999999839e+00 1.711235999999999891e+01 4.052299999999999791e+00 8.120860000000000412e+00 1.711559000000000097e+01 3.200000000000000153e-03 2.029230000000000089e+00 1.288097999999999921e+01 -1.759479999999999933e+00 5.080890000000000128e+00 1.288766000000000034e+01 -3.519000000000000128e+00 8.132609999999999673e+00 1.288678999999999952e+01 3.525319999999999787e+00 2.027439999999999909e+00 1.288855000000000040e+01 1.757409999999999917e+00 5.076030000000000264e+00 1.288812000000000069e+01 2.609999999999999907e-03 8.129690000000000083e+00 1.288585999999999920e+01 7.036559999999999704e+00 2.037479999999999958e+00 1.288793000000000077e+01 5.273130000000000095e+00 5.074690000000000367e+00 1.288246999999999964e+01 3.519789999999999974e+00 8.126139999999999475e+00 1.288494999999999990e+01 5.299500000000000322e-01 2.032090000000000174e+00 2.073785000000000167e+01 -1.226390000000000091e+00 5.081059999999999910e+00 2.073414999999999964e+01 -2.992300000000000182e+00 8.130539999999999878e+00 2.073886999999999858e+01 4.048969999999999736e+00 2.033290000000000042e+00 2.073567999999999856e+01 2.285690000000000222e+00 5.076290000000000191e+00 2.073534000000000077e+01 5.244600000000000373e-01 8.134259999999999380e+00 2.074138999999999911e+01 7.563740000000000130e+00 2.032410000000000050e+00 2.073335000000000150e+01 5.805519999999999570e+00 5.083540000000000170e+00 2.073733999999999966e+01 4.052550000000000097e+00 8.129569999999999297e+00 2.073357999999999990e+01 -5.278109999999999857e+00 9.144859999999999545e+00 1.108197999999999972e+01 8.795210000000000861e+00 3.046219999999999928e+00 1.107602999999999938e+01 -3.519010000000000193e+00 6.104379999999999917e+00 1.107024999999999970e+01 3.521830000000000016e+00 4.600000000000000139e-04 1.107471999999999923e+01 1.756199999999999983e+00 3.052750000000000075e+00 1.107953999999999972e+01 4.109999999999999938e-03 6.094560000000000421e+00 1.108225999999999978e+01 7.040540000000000020e+00 6.700000000000000226e-04 1.107512000000000008e+01 5.274930000000000341e+00 3.050819999999999865e+00 1.107915000000000028e+01 3.520799999999999930e+00 6.100749999999999673e+00 1.106939000000000028e+01 -4.751299999999999635e+00 9.142039999999999722e+00 1.893308999999999997e+01 -1.231959999999999944e+00 3.043909999999999894e+00 1.892267000000000010e+01 -2.993799999999999795e+00 6.094999999999999751e+00 1.892391999999999896e+01 -1.232609999999999983e+00 9.144239999999999924e+00 1.892104000000000141e+01 2.286220000000000141e+00 3.048630000000000173e+00 1.892244000000000170e+01 5.306600000000000206e-01 6.092730000000000423e+00 1.891858999999999824e+01 2.290639999999999787e+00 9.141410000000000480e+00 1.891567999999999827e+01 5.808639999999999581e+00 3.049220000000000041e+00 1.891473999999999833e+01 4.046260000000000190e+00 6.099160000000000359e+00 1.892011000000000109e+01
-7.200000000000000453e-04 2.031829999999999803e+00 9.267419999999999547e+00 -1.763079999999999981e+00 5.088260000000000005e+00 9.263009999999999522e+00 -3.512480000000000047e+00 8.130430000000000490e+00 9.257130000000000081e+00 3.520709999999999784e+00 2.036329999999999973e+00 9.272800000000000153e+00 1.756620000000000070e+00 5.075639999999999930e+00 9.257270000000000110e+00 -5.320000000000000076e-03 8.131169999999999121e+00 9.269869999999999166e+00 7.038710000000000022e+00 2.034299999999999997e+00 9.271929999999999339e+00 5.284130000000000216e+00 5.082830000000000403e+00 9.261430000000000717e+00 3.522489999999999899e+00 8.129089999999999705e+00 9.263579999999999259e+00 5.270899999999999475e-01 2.037049999999999805e+00 1.711708000000000141e+01 -1.235360000000000014e+00 5.083540000000000170e+00 1.711276000000000153e+01 -2.990940000000000154e+00 8.136300000000000310e+00 1.711517999999999873e+01 4.042460000000000164e+00 2.028970000000000162e+00 1.711317999999999984e+01 2.290620000000000100e+00 5.074900000000000411e+00 1.711495999999999995e+01 5.217699999999999561e-01 8.132680000000000575e+00 1.711260000000000048e+01 7.568769999999999776e+00 2.032230000000000203e+00 1.711454000000000164e+01 5.815620000000000012e+00 5.078000000000000291e+00 1.711210000000000164e+01 4.054470000000000240e+00 8.116770000000000707e+00 1.711693999999999960e+01 4.769999999999999934e-03 2.027719999999999967e+00 1.287792999999999921e+01 -1.759239999999999915e+00 5.081000000000000405e+00 1.288790000000000013e+01 -3.518499999999999961e+00 8.134359999999999147e+00 1.288662000000000063e+01 3.527940000000000076e+00 2.025040000000000173e+00 1.288923999999999914e+01 1.756129999999999969e+00 5.073730000000000295e+00 1.288860999999999990e+01 3.910000000000000281e-03 8.129979999999999762e+00 1.288522000000000034e+01 7.034839999999999982e+00 2.040070000000000050e+00 1.288831000000000060e+01 5.269709999999999894e+00 5.071740000000000137e+00 1.288012999999999941e+01 3.519680000000000142e+00 8.124660000000000437e+00 1.288385000000000069e+01 5.309199999999999475e-01 2.031989999999999963e+00 2.074002000000000123e+01 -1.223600000000000021e+00 5.081240000000000201e+00 2.073447000000000173e+01 -2.992440000000000211e+00 8.131240000000000023e+00 2.074155000000000015e+01 4.049459999999999837e+00 2.033809999999999896e+00 2.073674000000000106e+01 2.284539999999999793e+00 5.074110000000000120e+00 2.073623999999999867e+01 5.227100000000000080e-01 8.136829999999999785e+00 2.074529000000000067e+01 7.561609999999999943e+00 2.032469999999999999e+00 2.073325000000000173e+01 5.804289999999999949e+00 5.084959999999999702e+00 2.073923999999999879e+01 4.054789999999999672e+00 8.129810000000000869e+00 2.073363000000000156e+01 -5.277169999999999916e+00 9.144650000000000389e+00 1.108455999999999975e+01 8.792849999999999611e+00 3.045160000000000089e+00 1.107571000000000083e+01 -3.518530000000000157e+00 6.108130000000000059e+00 1.106710999999999956e+01 3.522730000000000139e+00 6.899999999999999667e-04 1.107376999999999967e+01 1.754350000000000076e+00 3.054889999999999883e+00 1.108094999999999963e+01 6.130000000000000032e-03 6.093440000000000190e+00 1.108500000000000085e+01 7.040799999999999947e+00 1.010000000000000047e-03 1.107436000000000043e+01 5.272439999999999571e+00 3.052010000000000112e+00 1.108037000000000027e+01 3.521150000000000002e+00 6.102660000000000196e+00 1.106578999999999979e+01 -4.750939999999999941e+00 9.140480000000000160e+00 1.893787000000000020e+01 -1.231940000000000035e+00 3.041700000000000070e+00 1.892235000000000156e+01 -2.994670000000000165e+00 6.094120000000000203e+00 1.892421999999999827e+01 -1.232920000000000016e+00 9.143760000000000332e+00 1.891993000000000080e+01 2.285350000000000215e+00 3.048729999999999940e+00 1.892201000000000022e+01 5.319700000000000539e-01 6.090740000000000265e+00 1.891626000000000118e+01 2.291939999999999866e+00 9.139519999999999200e+00 1.891193000000000168e+01 5.808950000000000280e+00 3.049630000000000063e+00 1.891052000000000177e+01 4.045410000000000394e+00 6.100270000000000081e+00 1.891854000000000013e+01
-9.700000000000000505e-04 2.031670000000000087e+00 9.267730000000000246e+00 -1.764070000000000027e+00 5.090760000000000396e+00 9.261870000000000047e+00 -3.510009999999999852e+00 8.130919999999999703e+00 9.254020000000000579e+00 3.520919999999999828e+00 2.037679999999999936e+00 9.274869999999999948e+00 1.755500000000000060e+00 5.073990000000000222e+00 9.254220000000000113e+00 -7.049999999999999843e-03 8.131840000000000401e+00 9.270979999999999777e+00 7.038249999999999673e+00 2.034980000000000011e+00 9.273699999999999832e+00 5.285499999999999865e+00 5.083540000000000170e+00 9.259729999999999350e+00 3.523320000000000007e+00 8.129110000000000724e+00 9.262589999999999435e+00 5.267899999999999805e-01 2.038590000000000124e+00 1.711848000000000170e+01 -1.236459999999999892e+00 5.084469999999999601e+00 1.711271999999999949e+01 -2.990610000000000213e+00 8.138669999999999405e+00 1.711596000000000117e+01 4.040630000000000166e+00 2.027870000000000061e+00 1.711326999999999998e+01 2.291490000000000027e+00 5.072989999999999888e+00 1.711561000000000021e+01 5.197300000000000253e-01 8.133839999999999293e+00 1.711250000000000071e+01 7.569049999999999834e+00 2.032189999999999941e+00 1.711505000000000010e+01 5.818139999999999645e+00 5.077130000000000365e+00 1.711182000000000158e+01 4.056639999999999802e+00 8.112719999999999487e+00 1.711825999999999937e+01 6.320000000000000097e-03 2.026229999999999976e+00 1.287490999999999985e+01 -1.759020000000000028e+00 5.081100000000000172e+00 1.288812000000000069e+01 -3.517990000000000173e+00 8.136089999999999378e+00 1.288644999999999996e+01 3.530530000000000168e+00 2.022660000000000124e+00 1.288993999999999929e+01 1.754890000000000061e+00 5.071449999999999569e+00 1.288909999999999911e+01 5.210000000000000221e-03 8.130280000000000840e+00 1.288458999999999932e+01 7.033120000000000260e+00 2.042640000000000011e+00 1.288870000000000005e+01 5.266309999999999825e+00 5.068839999999999790e+00 1.287778999999999918e+01 3.519559999999999800e+00 8.123200000000000642e+00 1.288275999999999932e+01 5.318699999999999539e-01 2.031909999999999883e+00 2.074218000000000117e+01 -1.220830000000000082e+00 5.081409999999999982e+00 2.073476000000000141e+01 -2.992560000000000109e+00 8.131930000000000547e+00 2.074421999999999855e+01 4.049949999999999939e+00 2.034320000000000128e+00 2.073778000000000077e+01 2.283399999999999874e+00 5.071950000000000180e+00 2.073714000000000013e+01 5.209899999999999531e-01 8.139359999999999928e+00 2.074912000000000134e+01 7.559499999999999886e+00 2.032519999999999882e+00 2.073312999999999917e+01 5.803049999999999820e+00 5.086359999999999992e+00 2.074109999999999943e+01 4.056989999999999874e+00 8.130039999999999267e+00 2.073368999999999929e+01 -5.276209999999999845e+00 9.144429999999999836e+00 1.108704000000000001e+01 8.790509999999999380e+00 3.044140000000000068e+00 1.107540000000000013e+01 -3.518060000000000187e+00 6.111819999999999808e+00 1.106404000000000032e+01 3.523590000000000000e+00 9.100000000000000016e-04 1.107285000000000075e+01 1.752539999999999987e+00 3.056989999999999874e+00 1.108230999999999966e+01 8.130000000000000074e-03 6.092319999999999958e+00 1.108765999999999963e+01 7.041080000000000005e+00 1.360000000000000098e-03 1.107362999999999964e+01 5.269989999999999952e+00 3.053179999999999783e+00 1.108154000000000039e+01 3.521459999999999813e+00 6.104510000000000325e+00 1.106221999999999994e+01 -4.750569999999999737e+00 9.138970000000000482e+00 1.894256999999999991e+01 -1.231919999999999904e+00 3.039530000000000065e+00 1.892207000000000150e+01 -2.995519999999999960e+00 6.093280000000000030e+00 1.892454999999999998e+01 -1.233230000000000048e+00 9.143290000000000362e+00 1.891890000000000072e+01 2.284499999999999975e+00 3.048810000000000020e+00 1.892162000000000077e+01 5.332700000000000218e-01 6.088809999999999611e+00 1.891400000000000148e+01 2.293219999999999814e+00 9.137639999999999318e+00 1.890828000000000131e+01 5.809230000000000338e+00 3.050040000000000084e+00 1.890641000000000105e+01 4.044579999999999842e+00 6.101320000000000299e+00 1.891704000000000008e+01
-1.219999999999999947e-03 2.031519999999999992e+00 9.268060000000000187e+00 -1.765039999999999942e+00 5.093239999999999768e+00 9.260759999999999437e+00 -3.507559999999999789e+00 8.131429999999999936e+00 9.250920000000000698e+00 3.521119999999999806e+00 2.039039999999999964e+00 9.276920000000000499e+00 1.754380000000000051e+00 5.072359999999999758e+00 9.251200000000000756e+00 -8.760000000000000425e-03 8.132479999999999265e+00 9.272069999999999368e+00 7.037779999999999703e+00 2.035649999999999959e+00 9.275439999999999685e+00 5.286859999999999893e+00 5.084259999999999557e+00 9.258039999999999381e+00 3.524150000000000116e+00 8.129170000000000229e+00 9.261599999999999611e+00 5.264900000000000135e-01 2.040090000000000181e+00 1.711987999999999843e+01 -1.237559999999999993e+00 5.085379999999999789e+00 1.711268000000000100e+01 -2.990289999999999893e+00 8.141019999999999257e+00 1.711674000000000007e+01 4.038809999999999789e+00 2.026790000000000092e+00 1.711333000000000126e+01 2.292370000000000019e+00 5.071089999999999876e+00 1.711623000000000161e+01 5.177100000000000035e-01 8.134980000000000544e+00 1.711236999999999853e+01 7.569340000000000401e+00 2.032150000000000123e+00 1.711552000000000007e+01 5.820640000000000036e+00 5.076279999999999681e+00 1.711151999999999873e+01 4.058819999999999872e+00 8.108710000000000306e+00 1.711953000000000102e+01 7.820000000000000562e-03 2.024760000000000115e+00 1.287195000000000000e+01 -1.758839999999999959e+00 5.081209999999999560e+00 1.288833999999999946e+01 -3.517479999999999940e+00 8.137800000000000367e+00 1.288630000000000031e+01 3.533069999999999933e+00 2.020290000000000141e+00 1.289063999999999943e+01 1.753670000000000062e+00 5.069209999999999994e+00 1.288960999999999935e+01 6.499999999999999702e-03 8.130570000000000519e+00 1.288396999999999970e+01 7.031410000000000160e+00 2.045170000000000154e+00 1.288908999999999949e+01 5.262940000000000396e+00 5.066010000000000346e+00 1.287546000000000035e+01 3.519429999999999836e+00 8.121740000000000848e+00 1.288169000000000075e+01 5.328100000000000058e-01 2.031820000000000181e+00 2.074435000000000073e+01 -1.218080000000000052e+00 5.081579999999999764e+00 2.073502999999999830e+01 -2.992659999999999876e+00 8.132600000000000051e+00 2.074687000000000126e+01 4.050449999999999662e+00 2.034839999999999982e+00 2.073876999999999882e+01 2.282280000000000086e+00 5.069819999999999993e+00 2.073800999999999917e+01 5.192999999999999838e-01 8.141859999999999431e+00 2.075288000000000110e+01 7.557389999999999830e+00 2.032550000000000079e+00 2.073297000000000168e+01 5.801809999999999690e+00 5.087729999999999642e+00 2.074292000000000158e+01 4.059149999999999814e+00 8.130250000000000199e+00 2.073376000000000019e+01 -5.275249999999999773e+00 9.144170000000000798e+00 1.108938000000000024e+01 8.788209999999999411e+00 3.043179999999999996e+00 1.107508999999999943e+01 -3.517619999999999969e+00 6.115459999999999674e+00 1.106105999999999945e+01 3.524430000000000174e+00 1.119999999999999902e-03 1.107194999999999929e+01 1.750799999999999912e+00 3.059029999999999916e+00 1.108362999999999943e+01 1.009000000000000001e-02 6.091219999999999857e+00 1.109022000000000041e+01 7.041350000000000442e+00 1.719999999999999958e-03 1.107291999999999987e+01 5.267590000000000217e+00 3.054330000000000211e+00 1.108263999999999960e+01 3.521710000000000118e+00 6.106279999999999930e+00 1.105870999999999960e+01 -4.750169999999999781e+00 9.137499999999999289e+00 1.894715000000000060e+01 -1.231899999999999995e+00 3.037420000000000009e+00 1.892184999999999917e+01 -2.996329999999999938e+00 6.092480000000000118e+00 1.892492999999999981e+01 -1.233549999999999924e+00 9.142839999999999634e+00 1.891796000000000078e+01 2.283679999999999932e+00 3.048859999999999904e+00 1.892128999999999905e+01 5.345400000000000151e-01 6.086969999999999992e+00 1.891182999999999836e+01 2.294459999999999944e+00 9.135780000000000456e+00 1.890475999999999956e+01 5.809490000000000265e+00 3.050450000000000106e+00 1.890243999999999858e+01 4.043779999999999930e+00 6.102289999999999992e+00 1.891562000000000054e+01
-1.479999999999999979e-03 2.031359999999999832e+00 9.268390000000000128e+00 -1.765980000000000105e+00 5.095690000000000275e+00 9.259669999999999845e+00 -3.505139999999999922e+00 8.131980000000000430e+00 9.247840000000000060e+00 3.521279999999999966e+00 2.040410000000000057e+00 9.278950000000000031e+00 1.753260000000000041e+00 5.070759999999999934e+00 9.248200000000000642e+00 -1.042000000000000044e-02 8.133089999999999264e+00 9.273160000000000736e+00 7.037279999999999980e+00 2.036329999999999973e+00 9.277150000000000674e+00 5.288210000000000299e+00 5.084970000000000212e+00 9.256339999999999790e+00 3.524989999999999846e+00 8.129250000000000753e+00 9.260600000000000165e+00 5.261799999999999811e-01 2.041529999999999845e+00 1.712125999999999948e+01 -1.238639999999999963e+00 5.086260000000000225e+00 1.711263999999999896e+01 -2.990000000000000213e+00 8.143330000000000624e+00 1.711751999999999896e+01 4.036999999999999922e+00 2.025720000000000187e+00 1.711337999999999937e+01 2.293250000000000011e+00 5.069200000000000372e+00 1.711680000000000135e+01 5.157199999999999562e-01 8.136089999999999378e+00 1.711221000000000103e+01 7.569659999999999833e+00 2.032080000000000108e+00 1.711595000000000155e+01 5.823109999999999786e+00 5.075459999999999638e+00 1.711119000000000057e+01 4.061029999999999696e+00 8.104749999999999233e+00 1.712076000000000064e+01 9.280000000000000054e-03 2.023309999999999942e+00 1.286904999999999966e+01 -1.758680000000000021e+00 5.081319999999999837e+00 1.288852999999999938e+01 -3.516950000000000021e+00 8.139490000000000336e+00 1.288616000000000028e+01 3.535550000000000193e+00 2.017939999999999845e+00 1.289133999999999958e+01 1.752510000000000012e+00 5.067000000000000171e+00 1.289012999999999920e+01 7.790000000000000049e-03 8.130860000000000198e+00 1.288336999999999932e+01 7.029690000000000438e+00 2.047680000000000167e+00 1.288948000000000071e+01 5.259599999999999831e+00 5.063259999999999650e+00 1.287312999999999974e+01 3.519289999999999807e+00 8.120279999999999276e+00 1.288063000000000002e+01 5.337399999999999922e-01 2.031750000000000167e+00 2.074650000000000105e+01 -1.215349999999999930e+00 5.081719999999999793e+00 2.073527999999999949e+01 -2.992729999999999890e+00 8.133229999999999293e+00 2.074952000000000041e+01 4.050950000000000273e+00 2.035359999999999836e+00 2.073970999999999876e+01 2.281169999999999920e+00 5.067719999999999558e+00 2.073886999999999858e+01 5.176399999999999890e-01 8.144320000000000448e+00 2.075653000000000148e+01 7.555299999999999905e+00 2.032560000000000144e+00 2.073276999999999859e+01 5.800569999999999560e+00 5.089089999999999669e+00 2.074470000000000169e+01 4.061239999999999739e+00 8.130449999999999733e+00 2.073385000000000034e+01 -5.274280000000000079e+00 9.143879999999999342e+00 1.109157000000000082e+01 8.785959999999999326e+00 3.042300000000000004e+00 1.107476999999999911e+01 -3.517199999999999882e+00 6.119030000000000413e+00 1.105819999999999936e+01 3.525230000000000086e+00 1.330000000000000019e-03 1.107108000000000025e+01 1.749130000000000074e+00 3.061020000000000074e+00 1.108488000000000007e+01 1.200000000000000025e-02 6.090139999999999887e+00 1.109266000000000041e+01 7.041629999999999612e+00 2.089999999999999844e-03 1.107222999999999935e+01 5.265270000000000117e+00 3.055460000000000065e+00 1.108367999999999931e+01 3.521879999999999900e+00 6.107949999999999768e+00 1.105523999999999951e+01 -4.749760000000000204e+00 9.136110000000000397e+00 1.895158999999999949e+01 -1.231899999999999995e+00 3.035369999999999902e+00 1.892169000000000167e+01 -2.997090000000000032e+00 6.091750000000000220e+00 1.892536000000000129e+01 -1.233870000000000022e+00 9.142409999999999926e+00 1.891713999999999984e+01 2.282890000000000086e+00 3.048890000000000100e+00 1.892101999999999862e+01 5.357899999999999885e-01 6.085219999999999629e+00 1.890977000000000174e+01 2.295669999999999877e+00 9.133950000000000458e+00 1.890140999999999849e+01 5.809720000000000439e+00 3.050860000000000127e+00 1.889864000000000033e+01 4.043029999999999902e+00 6.103150000000000297e+00 1.891431000000000040e+01