-3.345819142400000032e+02
-3.345797815700000228e+02
-3.345711870599999997e+02
-3.345561632499999973e+02
-3.345357148599999846e+02
-3.345102860399999827e+02
-3.344804208599999811e+02
-3.344474630099999786e+02
-3.344117051999999717e+02
-3.343741774000000078e+02
-3.330460759200000211e+02
-3.330472723999999971e+02
-3.330490096500000163e+02
-3.330511004100000036e+02
-3.330542445300000054e+02
-3.330589735600000267e+02
-3.330656322699999805e+02
-3.330746505700000171e+02
-3.330867027200000052e+02
-3.331023715900000184e+02
-3.341486464899999760e+02
-3.341444953399999918e+02
-3.341367302500000278e+02
-3.341253125499999896e+02
-3.341105540899999937e+02
-3.340931500799999867e+02
-3.340735597600000233e+02
-3.340520485000000122e+02
-3.340291685700000244e+02
-3.340054094899999768e+02
-3.336684775100000024e+02
-3.336700260700000058e+02
-3.336679453099999932e+02
-3.336623390199999903e+02
-3.336532702499999914e+02
-3.336406698900000265e+02
-3.336245753599999944e+02
-3.336061785599999894e+02
-3.335855657199999769e+02
-3.335629624499999863e+02
-3.335160562400000117e+02
-3.335084427599999799e+02
-3.335030865300000187e+02
-3.335002932500000270e+02
-3.335000700699999925e+02
-3.335023828199999798e+02
-3.335073559599999840e+02
-3.335148975299999847e+02
-3.335248935600000095e+02
-3.335372429000000238e+02
-3.335361608700000033e+02
-3.335387940100000037e+02
-3.335383506200000170e+02
-3.335349711000000070e+02
-3.335286928099999955e+02
-3.335199717400000168e+02
-3.335088933600000018e+02
-3.334958261400000197e+02
-3.334815410900000074e+02
-3.334666263099999810e+02
-3.324683020800000008e+02
-3.324800046500000121e+02
-3.324950298900000121e+02
-3.325131405800000266e+02
-3.325341181800000072e+02
-3.325577611499999762e+02
-3.325842551599999979e+02
-3.326136029200000053e+02
-3.326458304899999803e+02
-3.326805630999999721e+02
-3.335761246700000129e+02
-3.335692734099999939e+02
-3.335596949299999778e+02
-3.335478181500000119e+02
-3.335338498099999924e+02
-3.335180166100000179e+02
-3.335013425199999801e+02
-3.334844307000000185e+02
-3.334677455699999769e+02
-3.334519146000000092e+02
-3.339439714499999923e+02
-3.339381975900000157e+02
-3.339293153400000165e+02
-3.339175754199999915e+02
-3.339031458800000109e+02
-3.338865741600000092e+02
-3.338682315300000027e+02
-3.338487952400000154e+02
-3.338287324500000182e+02
-3.338088946099999816e+02
-3.336281113699999992e+02
-3.336207208000000151e+02
-3.336139248900000212e+02
-3.336078031800000190e+02
-3.336023915900000247e+02
-3.335980253600000083e+02
-3.335948031799999853e+02
-3.335929649899999845e+02
-3.335927310299999817e+02
-3.335943439399999875e+02
-3.330512676499999998e+02
-3.330573492400000077e+02
-3.330629079899999851e+02
-3.330677443199999743e+02
-3.330720301000000063e+02
-3.330759662799999887e+02
-3.330796212600000104e+02
-3.330832533500000068e+02
-3.330869685000000118e+02
-3.330908689199999912e+02
-3.341166236199999844e+02
-3.341219920600000250e+02
-3.341242538299999865e+02
-3.341235218099999997e+02
-3.341197737300000199e+02
-3.341130194300000085e+02
-3.341038204600000086e+02
-3.340921805799999902e+02
-3.340784542100000181e+02
-3.340630592200000137e+02
-3.312262768300000175e+02
-3.312468131699999958e+02
-3.312796559999999886e+02
-3.313240948900000262e+02
-3.313798250400000143e+02
-3.314456151699999964e+02
-3.315208161300000143e+02
-3.316041189200000190e+02
-3.316946635599999809e+02
-3.317909512599999857e+02
-3.331089285499999733e+02
-3.331113395500000252e+02
-3.331138023899999894e+02
-3.331160235799999896e+02
-3.331183995000000095e+02
-3.331211336700000061e+02
-3.331248920300000123e+02
-3.331301894399999810e+02
-3.331372121100000072e+02
-3.331461744000000067e+02
-3.330172631400000114e+02
-3.330205970700000080e+02
-3.330207042499999943e+02
-3.330176687200000174e+02
-3.330117744899999934e+02
-3.330035544699999832e+02
-3.329936301800000251e+02
-3.329825115900000014e+02
-3.329708704399999988e+02
-3.329592168099999867e+02
-3.341875586400000202e+02
-3.341808133600000019e+02
-3.341703266600000006e+02
-3.341562103300000217e+02
-3.341392054799999869e+02
-3.341194110999999793e+02
-3.340974448499999880e+02
-3.340738596900000061e+02
-3.340493323900000178e+02
-3.340242708299999777e+02
-3.323314728700000273e+02
-3.323328256799999849e+02
-3.323392774299999815e+02
-3.323506585800000153e+02
-3.323671669299999962e+02
-3.323885943600000132e+02
-3.324149153700000170e+02
-3.324458718800000270e+02
-3.324813248400000134e+02
-3.325208637499999895e+02
-3.333491444699999988e+02
-3.333437709199999972e+02
-3.333385775699999840e+02
-3.333339580599999863e+02
-3.333297188899999810e+02
-3.333262997699999914e+02
-3.333236643299999855e+02
-3.333221950700000207e+02
-3.333221412799999825e+02
-3.333237047499999903e+02
-3.337620327999999859e+02
-3.337603541299999961e+02
-3.337556546899999717e+02
-3.337483819700000254e+02
-3.337386041999999975e+02
-3.337266023199999836e+02
-3.337127283099999886e+02
-3.336971408800000063e+02
-3.336806404199999747e+02
-3.336634127199999966e+02
-3.341685139400000253e+02
-3.341648247399999718e+02
-3.341556922699999745e+02
-3.341411508099999992e+02
-3.341217163000000028e+02
-3.340982515300000273e+02
-3.340710506500000179e+02
-3.340408460699999864e+02
-3.340085246599999778e+02
-3.339745367699999861e+02
-3.328698871000000281e+02
-3.328851134700000216e+02
-3.329027129899999977e+02
-3.329222396000000117e+02
-3.329435692299999801e+02
-3.329666308700000172e+02
-3.329915033799999833e+02
-3.330180312699999945e+02
-3.330463150699999915e+02
-3.330763788500000260e+02
-3.340509260599999948e+02
-3.340545647700000131e+02
-3.340554354399999966e+02
-3.340539826599999742e+02
-3.340500958200000241e+02
-3.340435333199999945e+02
-3.340346677800000066e+02
-3.340235813900000039e+02
-3.340109593999999902e+02
-3.339968808599999761e+02
-3.335653824500000155e+02
-3.335634915599999886e+02
-3.335572027599999956e+02
-3.335468251300000020e+02
-3.335328418299999953e+02
-3.335154013200000236e+02
-3.334952406099999962e+02
-3.334729180799999995e+02
-3.334489606800000274e+02
-3.334242925799999853e+02
-3.327548391000000265e+02
-3.327546411000000148e+02
-3.327593207099999972e+02
-3.327688113899999962e+02
-3.327828794700000117e+02
-3.328016540799999916e+02
-3.328251308800000174e+02
-3.328529603000000066e+02
-3.328847522500000196e+02
-3.329203058900000087e+02
-3.342322485600000164e+02
-3.342280357999999865e+02
-3.342215197799999942e+02
-3.342126809299999763e+02
-3.342016119300000128e+02
-3.341885727399999837e+02
-3.341739068399999724e+02
-3.341579613000000109e+02
-3.341409974700000021e+02
-3.341234932699999831e+02
-3.336891067999999905e+02
-3.336915013600000179e+02
-3.336934575999999879e+02
-3.336945614699999965e+02
-3.336951704300000188e+02
-3.336955733300000020e+02
-3.336959501800000112e+02
-3.336966362399999753e+02
-3.336977271000000087e+02
-3.337001273800000263e+02
-3.332857746299999917e+02
-3.332818771999999967e+02
-3.332775838000000022e+02
-3.332734287299999778e+02
-3.332693243599999846e+02
-3.332655230299999971e+02
-3.332624238999999875e+02
-3.332600751900000091e+02
-3.332587096199999905e+02
-3.332585804700000267e+02
-3.338603112499999952e+02
-3.338645748999999796e+02
-3.338661749699999746e+02
-3.338651299399999743e+02
-3.338614820099999747e+02
-3.338555361699999935e+02
-3.338477252600000043e+02
-3.338384245899999883e+02
-3.338279430599999955e+02
-3.338171912799999745e+02
-3.332612724599999865e+02
-3.332649079999999913e+02
-3.332694866300000172e+02
-3.332751924799999870e+02
-3.332821357400000011e+02
-3.332908187900000030e+02
-3.333016395299999886e+02
-3.333151029599999902e+02
-3.333317711299999928e+02
-3.333518322300000136e+02
-3.342329213200000027e+02
-3.342210748599999874e+02
-3.342050406899999757e+02
-3.341852104700000154e+02
-3.341620958299999984e+02
-3.341364116600000216e+02
-3.341087422599999854e+02
-3.340799549999999840e+02
-3.340506875099999888e+02
-3.340218958799999882e+02
-3.336174981699999762e+02
-3.336208065800000213e+02
-3.336197991799999727e+02
-3.336145888300000024e+02
-3.336052106999999864e+02
-3.335919998499999792e+02
-3.335755368299999759e+02
-3.335561930000000075e+02
-3.335344291700000099e+02
-3.335108650700000226e+02
-3.340606579199999828e+02
-3.340592553500000008e+02
-3.340538477100000136e+02
-3.340449295799999732e+02
-3.340324576200000024e+02
-3.340171922800000175e+02
-3.339993721399999913e+02
-3.339795215600000233e+02
-3.339579232300000058e+02
-3.339351985399999876e+02
-3.342504582299999925e+02
-3.342535321099999805e+02
-3.342526423300000147e+02
-3.342482364100000041e+02
-3.342402675499999987e+02
-3.342290491800000041e+02
-3.342148399600000062e+02
-3.341980583800000204e+02
-3.341790968099999759e+02
-3.341587967300000059e+02
-3.338054280800000129e+02
-3.338050405800000249e+02
-3.338004580300000157e+02
-3.337918749799999887e+02
-3.337793874899999764e+02
-3.337633802199999877e+02
-3.337441281800000183e+02
-3.337220163299999740e+02
-3.336975644299999999e+02
-3.336712079399999880e+02
-3.326828906700000061e+02
-3.326765898200000038e+02
-3.326741252599999825e+02
-3.326760606199999870e+02
-3.326824678599999743e+02
-3.326937213499999757e+02
-3.327102077100000201e+02
-3.327319814200000110e+02
-3.327588618600000245e+02
-3.327908164599999736e+02
-3.339486038699999995e+02
-3.339445933200000241e+02
-3.339384031399999913e+02
-3.339301865099999986e+02
-3.339203658299999802e+02
-3.339090024399999947e+02
-3.338964901400000258e+02
-3.338831839700000046e+02
-3.338697002499999940e+02
-3.338558396500000072e+02
-3.335749458000000232e+02
-3.335726265600000033e+02
-3.335693768400000181e+02
-3.335653810599999929e+02
-3.335605838199999766e+02
-3.335551030099999821e+02
-3.335492838299999789e+02
-3.335430495599999858e+02
-3.335368584199999873e+02
-3.335307910799999718e+02
-3.337169917499999769e+02
-3.337260076900000172e+02
-3.337317806799999858e+02
-3.337341680900000256e+02
-3.337337097500000027e+02
-3.337304947399999833e+02
-3.337248385400000075e+02
-3.337170817200000101e+02
-3.337081198899999777e+02
-3.336987199499999974e+02
-3.342861319500000263e+02
-3.342879524800000013e+02
-3.342854987900000197e+02
-3.342789417000000185e+02
-3.342686212500000238e+02
-3.342550661700000205e+02
-3.342385706200000186e+02
-3.342197049600000014e+02
-3.341992223099999819e+02
-3.341775393899999926e+02
-3.332028968700000178e+02
-3.332078121399999873e+02
-3.332138317999999799e+02
-3.332210434899999996e+02
-3.332294946399999844e+02
-3.332396218399999839e+02
-3.332519069200000104e+02
-3.332658728499999938e+02
-3.332827722600000016e+02
-3.333030846699999756e+02
-3.328469947300000058e+02
-3.328398976099999800e+02
-3.328369215299999837e+02
-3.328380267000000003e+02
-3.328432810300000142e+02
-3.328526446600000099e+02
-3.328660843000000114e+02
-3.328834995600000184e+02
-3.329048541299999897e+02
-3.329300055699999916e+02
-3.335781958399999780e+02
-3.335713315699999839e+02
-3.335653389899999866e+02
-3.335600843600000189e+02
-3.335561098300000253e+02
-3.335535596099999793e+02
-3.335525324800000249e+02
-3.335537858199999732e+02
-3.335572379500000011e+02
-3.335628922399999965e+02
-3.338703606199999854e+02
-3.338619982700000151e+02
-3.338528667100000007e+02
-3.338431577900000207e+02
-3.338330940100000248e+02
-3.338227094900000225e+02
-3.338123384500000270e+02
-3.338021472199999948e+02
-3.337923739700000283e+02
-3.337831829500000254e+02
-3.343784341499999755e+02
-3.343798985000000243e+02
-3.343768266000000153e+02
-3.343692039300000260e+02
-3.343575672000000054e+02
-3.343424589499999797e+02
-3.343242919599999823e+02
-3.343034990300000118e+02
-3.342806671199999755e+02
-3.342560853100000031e+02
-3.334442204599999968e+02
-3.334388744199999906e+02
-3.334357307899999796e+02
-3.334348687500000210e+02
-3.334366247899999962e+02
-3.334411207800000057e+02
-3.334485991299999910e+02
-3.334593383399999880e+02
-3.334737111399999776e+02
-3.334919021300000281e+02
-3.340917249600000218e+02
-3.340920966400000225e+02
-3.340885027799999989e+02
-3.340810117199999922e+02
-3.340699970599999915e+02
-3.340558744799999999e+02
-3.340389172999999801e+02
-3.340196998700000108e+02
-3.339987314100000049e+02
-3.339768656400000282e+02
-3.336983300300000224e+02
-3.336966497399999980e+02
-3.336913522799999896e+02
-3.336828478200000063e+02
-3.336715419000000225e+02
-3.336574176299999976e+02
-3.336410411400000271e+02
-3.336226438799999983e+02
-3.336029417299999977e+02
-3.335824850600000104e+02
-3.340034147100000155e+02
-3.340037203399999726e+02
-3.340002284999999915e+02
-3.339934223100000281e+02
-3.339835883700000068e+02
-3.339710831500000268e+02
-3.339563506700000062e+02
-3.339400728900000104e+02
-3.339225896400000124e+02
-3.339047098199999937e+02
-3.341338436899999920e+02
-3.341289313500000162e+02
-3.341195698700000207e+02
-3.341056733699999768e+02
-3.340878751999999849e+02
-3.340668547999999873e+02
-3.340432276899999806e+02
-3.340177497700000231e+02
-3.339911013899999830e+02
-3.339640167599999927e+02
-3.341254401499999744e+02
-3.341294101899999873e+02
-3.341298083199999951e+02
-3.341265634900000236e+02
-3.341197354500000074e+02
-3.341098021500000073e+02
-3.340969243499999948e+02
-3.340817160199999876e+02
-3.340649717200000168e+02
-3.340469729999999799e+02
-3.331266789900000163e+02
-3.331389558399999942e+02
-3.331505297300000166e+02
-3.331615964499999905e+02
-3.331725630299999921e+02
-3.331838836800000081e+02
-3.331959424600000261e+02
-3.332089401499999894e+02
-3.332234648799999945e+02
-3.332397664499999905e+02
-3.334064131900000234e+02
-3.334082812300000001e+02
-3.334091407099999742e+02
-3.334092312500000048e+02
-3.334088294700000006e+02
-3.334083204099999875e+02
-3.334080392000000188e+02
-3.334087479899999948e+02
-3.334112271999999848e+02
-3.334158502500000054e+02
-3.339068766799999821e+02
-3.339033330999999976e+02
-3.338970730199999934e+02
-3.338879683800000180e+02
-3.338767713199999889e+02
-3.338634321900000259e+02
-3.338484210299999972e+02
-3.338319285599999944e+02
-3.338144718699999771e+02
-3.337962306300000250e+02
-3.339924507700000049e+02
-3.339881492499999922e+02
-3.339807961000000205e+02
-3.339704538699999716e+02
-3.339576265900000180e+02
-3.339425690599999825e+02
-3.339255310699999768e+02
-3.339068388599999935e+02
-3.338866470099999901e+02
-3.338655759700000090e+02
-3.335825807400000258e+02
-3.335841434999999819e+02
-3.335820494499999995e+02
-3.335763265200000092e+02
-3.335672716999999921e+02
-3.335554851200000144e+02
-3.335415144500000224e+02
-3.335260520699999915e+02
-3.335096998800000279e+02
-3.334932150700000193e+02
-3.337532465900000034e+02
-3.337547269400000118e+02
-3.337526172500000143e+02
-3.337473152499999856e+02
-3.337387873499999955e+02
-3.337271813400000156e+02
-3.337131478499999844e+02
-3.336965574800000240e+02
-3.336780072600000153e+02
-3.336578447300000221e+02
-3.328281111000000010e+02
-3.328263899599999718e+02
-3.328282076099999927e+02
-3.328335788100000059e+02
-3.328429512499999987e+02
-3.328563474700000029e+02
-3.328739854699999796e+02
-3.328961666899999727e+02
-3.329228446100000269e+02
-3.329538999600000011e+02
-3.330564743599999815e+02
-3.330656915199999730e+02
-3.330744226699999899e+02
-3.330827727999999865e+02
-3.330911714000000075e+02
-3.330998273199999744e+02
-3.331095283399999971e+02
-3.331202777899999887e+02
-3.331326235099999735e+02
-3.331474345500000140e+02
-3.341106499200000144e+02
-3.341078528799999958e+02
-3.341005010800000150e+02
-3.340888677500000199e+02
-3.340732347100000084e+02
-3.340540392199999928e+02
-3.340315661000000205e+02
-3.340064628900000230e+02
-3.339790939000000094e+02
-3.339505410900000015e+02
-3.340362216099999841e+02
-3.340333012599999734e+02
-3.340278661899999975e+02
-3.340202368099999717e+02
-3.340105644600000119e+02
-3.339990389899999741e+02
-3.339859361599999943e+02
-3.339717015900000092e+02
-3.339564906100000030e+02
-3.339406635799999776e+02
-3.332399346799999762e+02
-3.332335663900000213e+02
-3.332234211599999867e+02
-3.332097333099999901e+02
-3.331926579700000275e+02
-3.331726886899999727e+02
-3.331503175700000270e+02
-3.331257779000000028e+02
-3.330995912500000031e+02
-3.330722519700000248e+02
-3.334321709100000248e+02
-3.334269159799999898e+02
-3.334217980299999908e+02
-3.334167373000000225e+02
-3.334119059600000128e+02
-3.334074402699999951e+02
-3.334039065299999720e+02
-3.334016771500000118e+02
-3.334009480299999950e+02
-3.334023125300000174e+02
-3.340206915300000219e+02
-3.340199893800000268e+02
-3.340157763600000180e+02
-3.340077392399999781e+02
-3.339961557400000061e+02
-3.339814209200000050e+02
-3.339641316799999800e+02
-3.339449996999999826e+02
-3.339247039599999880e+02
-3.339039015000000177e+02
-3.326868854800000008e+02
-3.326907041700000036e+02
-3.326992887700000097e+02
-3.327126848600000244e+02
-3.327305795600000238e+02
-3.327528356199999848e+02
-3.327790475200000060e+02
-3.328091296000000057e+02
-3.328429086900000016e+02
-3.328797499099999868e+02
-3.336501114299999813e+02
-3.336493115800000169e+02
-3.336448285499999997e+02
-3.336368220300000189e+02
-3.336254170700000259e+02
-3.336112345099999743e+02
-3.335945613200000253e+02
-3.335759272299999907e+02
-3.335558841899999720e+02
-3.335351212799999985e+02
-3.339228142399999797e+02
-3.339205643700000223e+02
-3.339151031200000261e+02
-3.339065642599999819e+02
-3.338952814200000034e+02
-3.338813548699999956e+02
-3.338650963700000034e+02
-3.338471825899999885e+02
-3.338278971299999967e+02
-3.338074732200000199e+02
-3.335678250899999853e+02
-3.335761937600000238e+02
-3.335841076799999882e+02
-3.335916791399999966e+02
-3.335990696800000137e+02
-3.336059018299999934e+02
-3.336122936400000185e+02
-3.336185079900000119e+02
-3.336245167800000218e+02
-3.336301172299999962e+02
-3.342545133200000009e+02
-3.342486261999999897e+02
-3.342376224700000193e+02
-3.342216303800000219e+02
-3.342011121400000206e+02
-3.341763741600000230e+02
-3.341484121799999798e+02
-3.341178291800000011e+02
-3.340849511800000187e+02
-3.340509576499999866e+02
-3.335255140799999936e+02
-3.335254117999999721e+02
-3.335244171200000096e+02
-3.335224259999999958e+02
-3.335198635599999761e+02
-3.335167399300000284e+02
-3.335133009099999981e+02
-3.335097120699999778e+02
-3.335061631500000203e+02
-3.335031096999999818e+02
-3.328870903499999940e+02
-3.328923112200000105e+02
-3.328992342799999733e+02
-3.329073526099999754e+02
-3.329170196399999782e+02
-3.329286209100000065e+02
-3.329420444300000099e+02
-3.329575775199999725e+02
-3.329751974100000211e+02
-3.329953405800000041e+02
-3.327186063899999908e+02
-3.327285109200000193e+02
-3.327430974399999855e+02
-3.327624507500000277e+02
-3.327863427199999933e+02
-3.328145355600000244e+02
-3.328465410100000099e+02
-3.328819721699999832e+02
-3.329202697800000124e+02
-3.329609377799999947e+02
-3.341183050399999956e+02
-3.341196867400000201e+02
-3.341197753499999976e+02
-3.341188705000000141e+02
-3.341167720600000166e+02
-3.341135149400000159e+02
-3.341095801000000165e+02
-3.341048157800000240e+02
-3.340996907599999872e+02
-3.340942232500000273e+02
-3.334424918500000103e+02
-3.334397731000000249e+02
-3.334358196599999928e+02
-3.334307612100000142e+02
-3.334249269300000265e+02
-3.334184276299999965e+02
-3.334116312799999946e+02
-3.334046997600000282e+02
-3.333978285100000107e+02
-3.333916345200000251e+02
-3.336336048300000243e+02
-3.336353927100000192e+02
-3.336337582599999791e+02
-3.336284271800000170e+02
-3.336199649600000043e+02
-3.336085796699999833e+02
-3.335947618299999817e+02
-3.335789116000000263e+02
-3.335616527000000247e+02
-3.335435693800000081e+02
-3.318469600000000241e+02
-3.318599851399999920e+02
-3.318777093499999751e+02
-3.319000471200000106e+02
-3.319269018900000106e+02
-3.319586870200000135e+02
-3.319952154000000064e+02
-3.320360136799999964e+02
-3.320811479600000098e+02
-3.321304396099999963e+02
-3.331107843500000172e+02
-3.331196954499999947e+02
-3.331291966800000068e+02
-3.331393981800000006e+02
-3.331502598299999818e+02
-3.331616920499999992e+02
-3.331740782800000034e+02
-3.331876017199999751e+02
-3.332024140600000237e+02
-3.332185943599999973e+02
-3.330700598500000069e+02
-3.330793454500000053e+02
-3.330921382399999970e+02
-3.331085911600000031e+02
-3.331287063899999907e+02
-3.331523760200000197e+02
-3.331797989300000040e+02
-3.332109800900000209e+02
-3.332460280899999816e+02
-3.332847594500000241e+02
-3.339617342199999825e+02
-3.339633580500000107e+02
-3.339622953900000084e+02
-3.339586733400000185e+02
-3.339526237499999866e+02
-3.339446111999999971e+02
-3.339349164999999857e+02
-3.339239442200000099e+02
-3.339119901600000162e+02
-3.338993537999999717e+02
-3.340815688299999806e+02
-3.340764468099999931e+02
-3.340687779699999851e+02
-3.340589289100000201e+02
-3.340467819099999929e+02
-3.340328999899999758e+02
-3.340174946800000271e+02
-3.340010232399999950e+02
-3.339837015800000017e+02
-3.339661415099999999e+02
-3.343879955599999789e+02
-3.343869769699999779e+02
-3.343808001099999956e+02
-3.343694844199999920e+02
-3.343533726200000160e+02
-3.343328491400000075e+02
-3.343084711800000264e+02
-3.342808943900000145e+02
-3.342509470599999872e+02
-3.342192985699999781e+02
-3.336892370200000073e+02
-3.337006627200000253e+02
-3.337131602499999872e+02
-3.337267755699999725e+02
-3.337410891399999855e+02
-3.337558938700000226e+02
-3.337711518599999749e+02
-3.337866355900000030e+02
-3.338020752200000061e+02
-3.338177088300000150e+02
-3.333996500000000083e+02
-3.333992909300000065e+02
-3.333986082200000283e+02
-3.333977245099999891e+02
-3.333970924399999944e+02
-3.333968650799999978e+02
-3.333974145700000236e+02
-3.333989586100000224e+02
-3.334016782799999987e+02
-3.334065552600000046e+02
-3.341131473699999788e+02
-3.341080551200000173e+02
-3.340985944999999901e+02
-3.340850409099999752e+02
-3.340675298099999964e+02
-3.340465859099999761e+02
-3.340226607899999749e+02
-3.339962547800000152e+02
-3.339682383900000104e+02
-3.339392721500000221e+02
-3.337076431400000160e+02
-3.337102879000000257e+02
-3.337095322999999780e+02
-3.337057394299999942e+02
-3.336988991599999963e+02
-3.336895095599999763e+02
-3.336776502299999834e+02
-3.336636994200000004e+02
-3.336483815099999788e+02
-3.336325576500000238e+02
-3.337427409900000157e+02
-3.337454628799999909e+02
-3.337476571799999761e+02
-3.337490930100000242e+02
-3.337496270699999741e+02
-3.337494275199999834e+02
-3.337485130000000026e+02
-3.337471459700000196e+02
-3.337453529399999752e+02
-3.337432566200000110e+02
-3.338249859200000174e+02
-3.338343191800000227e+02
-3.338405057699999929e+02
-3.338440276200000199e+02
-3.338449748400000203e+02
-3.338433598600000209e+02
-3.338394750900000076e+02
-3.338335898999999927e+02
-3.338261726700000054e+02
-3.338179975900000045e+02
-3.340462416500000131e+02
-3.340455140000000256e+02
-3.340414333900000088e+02
-3.340339653300000009e+02
-3.340232038899999907e+02
-3.340097631699999852e+02
-3.339941480300000194e+02
-3.339767403700000159e+02
-3.339577563999999938e+02
-3.339376591100000269e+02
-3.331988415299999815e+02
-3.331986502400000063e+02
-3.331937183499999833e+02
-3.331841094600000019e+02
-3.331701740299999983e+02
-3.331524239899999884e+02
-3.331311639499999728e+02
-3.331074353399999950e+02
-3.330814047499999901e+02
-3.330542087200000196e+02
-3.332387530500000139e+02
-3.332394402400000217e+02
-3.332388183900000058e+02
-3.332375040499999841e+02
-3.332354515800000172e+02
-3.332332428899999854e+02
-3.332310773099999892e+02
-3.332295867400000020e+02
-3.332294613199999844e+02
-3.332313911900000107e+02
-3.339170904100000143e+02
-3.339075584600000184e+02
-3.338975213400000257e+02
-3.338872392900000250e+02
-3.338771644799999763e+02
-3.338677749999999946e+02
-3.338593704699999876e+02
-3.338528354499999864e+02
-3.338481547599999999e+02
-3.338456411700000217e+02
-3.337723712000000091e+02
-3.337739058700000214e+02
-3.337715566399999716e+02
-3.337657654399999956e+02
-3.337568402800000058e+02
-3.337454663899999900e+02
-3.337322444499999960e+02
-3.337181667599999741e+02
-3.337038127800000211e+02
-3.336899879599999963e+02
-3.329143466400000193e+02
-3.329226617699999906e+02
-3.329326556199999914e+02
-3.329440170099999818e+02
-3.329568895500000281e+02
-3.329714225100000249e+02
-3.329876428700000019e+02
-3.330056885500000021e+02
-3.330256035200000042e+02
-3.330474744100000066e+02
-3.333879713599999945e+02
-3.333892747500000269e+02
-3.333888327000000231e+02
-3.333865075699999920e+02
-3.333824177000000191e+02
-3.333768931199999770e+02
-3.333703629199999909e+02
-3.333632188799999767e+02
-3.333557773699999984e+02
-3.333486033899999939e+02
-3.336816578599999730e+02
-3.336798523699999919e+02
-3.336783578999999804e+02
-3.336773105999999984e+02
-3.336766545099999917e+02
-3.336760017099999800e+02
-3.336758110200000260e+02
-3.336760800100000210e+02
-3.336767552800000090e+02
-3.336778613700000164e+02
-3.337382945900000095e+02
-3.337359817299999918e+02
-3.337288365699999986e+02
-3.337168812099999968e+02
-3.337007895799999915e+02
-3.336810760299999856e+02
-3.336582800200000065e+02
-3.336331286100000284e+02
-3.336063308500000062e+02
-3.335785449900000117e+02
-3.341584516699999767e+02
-3.341540562600000044e+02
-3.341454882500000281e+02
-3.341324599100000228e+02
-3.341153892400000132e+02
-3.340950680500000090e+02
-3.340716597900000124e+02
-3.340458947000000194e+02
-3.340182226800000080e+02
-3.339892412099999888e+02
-3.339387025999999992e+02
-3.339342494599999895e+02
-3.339267019299999788e+02
-3.339163651999999729e+02
-3.339035431199999948e+02
-3.338886491800000158e+02
-3.338720769099999757e+02
-3.338539903700000195e+02
-3.338350996500000178e+02
-3.338156357199999889e+02
-3.343291139199999975e+02
-3.343280854100000283e+02
-3.343229166300000088e+02
-3.343134584800000084e+02
-3.342998995699999796e+02
-3.342824915499999747e+02
-3.342615993599999911e+02
-3.342376749000000018e+02
-3.342113964999999780e+02
-3.341833287599999949e+02
-3.331580750599999874e+02
-3.331482380499999749e+02
-3.331396805300000210e+02
-3.331323229500000025e+02
-3.331264069999999720e+02
-3.331222957599999859e+02
-3.331198744299999817e+02
-3.331194421100000227e+02
-3.331214283799999976e+02
-3.331259924600000204e+02
-3.332001305399999751e+02
-3.331934620399999858e+02
-3.331883034699999939e+02
-3.331847590599999762e+02
-3.331833103999999821e+02
-3.331844865099999993e+02
-3.331878075899999772e+02
-3.331938702699999908e+02
-3.332030155699999909e+02
-3.332157235500000070e+02
