4.539999999999999765e-04 1.389999999999999905e-04 -1.002800000000000046e-02 4.369999999999999970e-04 1.469999999999999953e-04 -1.001400000000000033e-02 4.380000000000000213e-04 1.190000000000000058e-04 -1.000500000000000000e-02 3.840000000000000097e-04 1.169999999999999979e-04 -1.001999999999999939e-02 4.159999999999999744e-04 1.060000000000000016e-04 -1.002100000000000039e-02 3.980000000000000248e-04 1.039999999999999936e-04 -1.001299999999999933e-02 4.090000000000000211e-04 1.100000000000000039e-04 -1.004500000000000011e-02 3.939999999999999817e-04 1.399999999999999877e-04 -1.001800000000000086e-02 4.150000000000000043e-04 9.100000000000000287e-05 -1.003000000000000072e-02 1.327899999999999914e-02 -3.339999999999999870e-04 -1.216300000000000020e-02 1.328099999999999940e-02 -3.469999999999999777e-04 -1.217999999999999985e-02 1.327700000000000061e-02 -3.260000000000000094e-04 -1.218200000000000012e-02 1.328900000000000046e-02 -3.269999999999999795e-04 -1.218799999999999918e-02 1.329299999999999926e-02 -3.390000000000000001e-04 -1.218400000000000039e-02 1.329400000000000026e-02 -3.190000000000000019e-04 -1.218299999999999939e-02 1.329900000000000006e-02 -3.299999999999999982e-04 -1.216700000000000073e-02 1.329299999999999926e-02 -3.379999999999999758e-04 -1.218499999999999965e-02 1.329100000000000073e-02 -3.139999999999999888e-04 -1.217200000000000053e-02 -1.323099999999999971e-02 -2.930000000000000204e-04 1.227400000000000019e-02 -1.326199999999999948e-02 -2.689999999999999791e-04 1.226299999999999960e-02 -1.325199999999999989e-02 -2.910000000000000260e-04 1.225799999999999980e-02 -1.328299999999999967e-02 -2.939999999999999905e-04 1.226299999999999960e-02 -1.325199999999999989e-02 -2.990000000000000036e-04 1.226099999999999933e-02 -1.327300000000000008e-02 -2.950000000000000148e-04 1.225900000000000080e-02 -1.327700000000000061e-02 -2.970000000000000092e-04 1.228899999999999958e-02 -1.328000000000000014e-02 -2.860000000000000129e-04 1.226700000000000013e-02 -1.326399999999999975e-02 -3.200000000000000262e-04 1.227499999999999945e-02 -4.029999999999999837e-04 7.600000000000000418e-05 1.007800000000000015e-02 -3.919999999999999873e-04 7.799999999999999859e-05 1.009600000000000081e-02 -3.970000000000000005e-04 9.100000000000000287e-05 1.009400000000000054e-02 -3.939999999999999817e-04 8.200000000000000095e-05 1.009400000000000054e-02 -3.879999999999999985e-04 8.000000000000000654e-05 1.009900000000000034e-02 -3.869999999999999742e-04 9.500000000000000523e-05 1.009299999999999954e-02 -3.840000000000000097e-04 7.600000000000000418e-05 1.007100000000000009e-02 -3.919999999999999873e-04 8.700000000000000051e-05 1.009400000000000054e-02 -3.899999999999999929e-04 9.899999999999999404e-05 1.008099999999999968e-02 -5.041999999999999607e-03 1.820000000000000057e-04 -7.810000000000000102e-04 -5.046000000000000138e-03 1.949999999999999965e-04 -7.820000000000000345e-04 -5.049999999999999802e-03 1.959999999999999937e-04 -7.870000000000000476e-04 -5.052000000000000067e-03 1.859999999999999945e-04 -7.919999999999999523e-04 -5.041999999999999607e-03 1.869999999999999917e-04 -8.000000000000000383e-04 -5.055999999999999731e-03 1.959999999999999937e-04 -7.979999999999999897e-04 -5.074000000000000385e-03 1.700000000000000122e-04 -7.820000000000000345e-04 -5.078000000000000048e-03 1.859999999999999945e-04 -7.749999999999999728e-04 -5.056999999999999863e-03 1.779999999999999898e-04 -7.889999999999999878e-04 5.040000000000000209e-03 1.979999999999999881e-04 6.650000000000000095e-04 5.043999999999999873e-03 1.869999999999999917e-04 6.570000000000000319e-04 5.036999999999999811e-03 1.979999999999999881e-04 6.589999999999999721e-04 5.039000000000000076e-03 1.920000000000000049e-04 6.679999999999999740e-04 5.039000000000000076e-03 1.949999999999999965e-04 6.610000000000000207e-04 5.040000000000000209e-03 1.949999999999999965e-04 6.639999999999999852e-04 5.048999999999999669e-03 2.000000000000000096e-04 6.689999999999999983e-04 5.048999999999999669e-03 1.969999999999999909e-04 6.589999999999999721e-04 5.047000000000000271e-03 1.990000000000000124e-04 6.610000000000000207e-04
-4.564000000000000348e-03 -2.194999999999999903e-03 9.610000000000000486e-04 2.425300000000000025e-02 -2.131600000000000161e-02 1.423100000000000059e-02 -2.370200000000000085e-02 2.564900000000000166e-02 7.692000000000000053e-03 -1.721999999999999920e-02 2.648999999999999879e-03 -2.449600000000000041e-02 2.592999999999999819e-03 2.050199999999999939e-02 1.621200000000000072e-02 2.838699999999999904e-02 -2.053599999999999870e-02 -1.634700000000000042e-02 -1.553599999999999946e-02 -6.849999999999999535e-04 -3.097899999999999959e-02 -7.505000000000000386e-03 -1.809999999999999977e-03 -5.961000000000000153e-03 2.575000000000000032e-03 2.123299999999999840e-02 -1.047999999999999973e-02 9.745000000000000190e-03 -3.979599999999999804e-02 -1.581899999999999973e-02 1.894099999999999950e-02 -1.879499999999999921e-02 -1.136900000000000063e-02 -5.330999999999999801e-03 -2.531100000000000017e-02 -7.427999999999999707e-03 1.986600000000000171e-02 8.472000000000000364e-03 -2.679199999999999984e-02 1.024199999999999937e-02 9.969000000000000430e-03 -4.286999999999999839e-02 3.113700000000000148e-02 -2.333700000000000011e-02 -2.676500000000000060e-02 2.279799999999999882e-02 -1.266199999999999964e-02 -4.465399999999999925e-02 -9.931000000000000591e-03 1.816299999999999859e-02 -2.825000000000000080e-02 1.923599999999999963e-02 3.966800000000000187e-02 -4.256299999999999667e-02 -4.303200000000000081e-02 1.741799999999999946e-02 5.581900000000000056e-02 -3.415900000000000186e-02 1.404999999999999999e-03 -3.959999999999999978e-03 -3.412999999999999801e-03 -1.890700000000000019e-02 1.994800000000000045e-02 -5.177099999999999758e-02 1.795199999999999921e-02 1.092899999999999948e-02 2.272000000000000061e-02 3.101100000000000037e-02 1.746299999999999936e-02 -1.445199999999999957e-02 -1.322999999999999957e-03 2.057099999999999901e-02 -6.107999999999999714e-03 -2.558099999999999957e-02 1.206499999999999934e-02 1.714299999999999852e-02 5.799800000000000094e-02 1.327899999999999914e-02 -1.730100000000000041e-02 6.884000000000000362e-03 2.195099999999999829e-02 -1.239600000000000077e-02 4.094999999999999682e-03 6.679999999999999740e-04 -2.069299999999999959e-02 -1.027600000000000041e-02 -1.326399999999999975e-02 1.829300000000000023e-02 -2.058600000000000013e-02 -5.374000000000000304e-03 3.993000000000000022e-03 3.066000000000000149e-03 -2.926899999999999988e-02 1.253300000000000074e-02 2.551300000000000096e-02 -9.414000000000000493e-03 2.856600000000000111e-02 -3.288499999999999757e-02 -6.640600000000000669e-02 1.003500000000000052e-02 -1.329400000000000026e-02 -2.195799999999999835e-02 2.200000000000000078e-04 -2.035899999999999863e-02 -3.010799999999999935e-02 -4.291899999999999882e-02 -9.109000000000000777e-03 1.720400000000000054e-02 1.619999999999999912e-03 -1.849599999999999855e-02 -8.555200000000000304e-02 2.274899999999999839e-02 3.761400000000000160e-02 -1.621000000000000045e-03 -1.723099999999999979e-02 -4.001299999999999996e-02 6.193099999999999994e-02 -2.461599999999999899e-02 -5.080000000000000314e-03 1.643500000000000169e-02 3.890400000000000108e-02 -3.475600000000000217e-02 -3.471099999999999880e-02 -2.971800000000000136e-02 8.576000000000000290e-03 -6.674900000000000277e-02 -1.928000000000000026e-03 7.107999999999999735e-03 1.350200000000000011e-02 3.464799999999999824e-02 -1.335700000000000082e-02 -3.895499999999999657e-02 -4.404399999999999982e-02 -5.208200000000000329e-02 3.134200000000000180e-02 1.419100000000000049e-02 3.552799999999999708e-02 -7.542300000000000393e-02 1.015000000000000060e-03 3.642399999999999805e-02 3.440100000000000102e-02 2.715000000000000052e-02 3.077999999999999833e-02 2.828999999999999918e-02 3.490000000000000263e-04 1.184600000000000063e-02 6.247799999999999881e-02 2.161300000000000027e-02 -1.450300000000000027e-02 3.575300000000000006e-02 -1.109300000000000043e-02 5.446600000000000052e-02 6.202099999999999974e-02 -1.755699999999999969e-02 1.484899999999999935e-02 9.106999999999999817e-02 -1.308800000000000067e-02 1.193999999999999966e-03 9.432899999999999618e-02 2.416499999999999898e-02 -5.329600000000000309e-02 5.752999999999999781e-02
-9.516999999999999418e-03 -4.389999999999999805e-03 1.166200000000000049e-02 4.774899999999999978e-02 -4.258699999999999986e-02 3.787000000000000088e-02 -4.718300000000000272e-02 5.081900000000000306e-02 2.486100000000000115e-02 -3.479299999999999754e-02 5.035000000000000413e-03 -3.884699999999999959e-02 4.732000000000000095e-03 4.054499999999999771e-02 4.183100000000000013e-02 5.634399999999999825e-02 -4.094400000000000123e-02 -2.284200000000000119e-02 -3.156199999999999978e-02 -1.533000000000000074e-03 -5.199199999999999655e-02 -1.538699999999999964e-02 -3.779999999999999940e-03 -1.925000000000000062e-03 4.564000000000000348e-03 4.232199999999999851e-02 -1.143199999999999945e-02 6.298999999999999912e-03 -7.857000000000000095e-02 -1.989600000000000049e-02 2.460299999999999987e-02 -3.704699999999999660e-02 -1.053899999999999976e-02 -2.388499999999999998e-02 -5.003699999999999815e-02 -2.861999999999999961e-03 2.641900000000000151e-02 1.723299999999999832e-02 -4.114700000000000302e-02 7.262000000000000226e-03 2.019699999999999968e-02 -7.332299999999999929e-02 4.882600000000000134e-02 -4.621800000000000214e-02 -4.125700000000000200e-02 3.231400000000000244e-02 -2.489900000000000099e-02 -7.698399999999999688e-02 -3.297300000000000231e-02 3.661699999999999677e-02 -4.441699999999999815e-02 2.518300000000000052e-02 7.996599999999999542e-02 -7.324300000000000255e-02 -7.285600000000000409e-02 3.528300000000000186e-02 9.957299999999999485e-02 -5.459699999999999970e-02 3.062000000000000052e-03 -1.988399999999999890e-02 6.546999999999999868e-03 -3.734400000000000219e-02 2.768699999999999981e-02 -8.974500000000000532e-02 3.579800000000000343e-02 9.879000000000000628e-03 5.799599999999999894e-02 6.190799999999999775e-02 2.360599999999999851e-02 -1.569600000000000162e-02 -2.320000000000000014e-03 2.873099999999999959e-02 1.020000000000000073e-03 -5.047499999999999903e-02 1.190399999999999965e-02 4.668800000000000033e-02 1.161309999999999981e-01 1.548300000000000023e-02 -2.119700000000000056e-02 1.395399999999999939e-02 3.143800000000000067e-02 -2.424400000000000166e-02 7.962999999999999592e-03 -8.673000000000000154e-03 -4.071299999999999919e-02 -2.047900000000000068e-02 -3.608900000000000302e-02 3.680599999999999844e-02 -4.088800000000000073e-02 -2.032700000000000132e-02 8.165000000000000382e-03 5.964999999999999816e-03 -6.771000000000000629e-02 2.518899999999999958e-02 5.056599999999999984e-02 -2.837599999999999845e-02 5.668800000000000228e-02 -6.474000000000000588e-02 -1.403729999999999978e-01 2.038900000000000087e-02 -2.622299999999999978e-02 -5.320099999999999829e-02 8.589999999999999546e-04 -4.022300000000000181e-02 -6.928399999999999836e-02 -8.530799999999999494e-02 -1.854599999999999999e-02 2.486899999999999875e-02 7.945000000000000673e-03 -3.707499999999999685e-02 -1.694330000000000003e-01 5.051400000000000334e-02 7.453799999999999315e-02 -1.981000000000000122e-03 -2.902700000000000072e-02 -7.947700000000000597e-02 1.232789999999999997e-01 -4.417000000000000093e-02 -1.005200000000000017e-02 3.361800000000000205e-02 8.249499999999999889e-02 -6.936799999999999911e-02 -6.904799999999999827e-02 -5.429699999999999804e-02 1.702199999999999894e-02 -1.318650000000000100e-01 1.101999999999999898e-03 1.390199999999999943e-02 2.761600000000000166e-02 7.410899999999999432e-02 -2.738099999999999909e-02 -7.721300000000000385e-02 -8.212800000000000655e-02 -1.037340000000000068e-01 6.280099999999999572e-02 2.370200000000000085e-02 7.042400000000000049e-02 -1.507439999999999891e-01 -2.984000000000000107e-03 7.226000000000000478e-02 6.774600000000000066e-02 4.899499999999999689e-02 6.094499999999999917e-02 5.547400000000000247e-02 -4.264999999999999694e-03 2.338200000000000001e-02 1.235519999999999952e-01 3.800200000000000106e-02 -2.913900000000000171e-02 7.044599999999999473e-02 -2.708400000000000044e-02 1.070829999999999976e-01 1.214380000000000043e-01 -3.955499999999999988e-02 2.934000000000000150e-02 1.794820000000000026e-01 -3.109299999999999911e-02 1.663999999999999898e-03 1.864619999999999889e-01 4.313100000000000267e-02 -1.067659999999999998e-01 1.140800000000000008e-01
-1.443799999999999945e-02 -6.389999999999999847e-03 2.198599999999999860e-02 7.073899999999999633e-02 -6.366199999999999637e-02 6.079699999999999688e-02 -7.003399999999999903e-02 7.530399999999999594e-02 4.152900000000000341e-02 -5.221699999999999953e-02 7.141999999999999911e-03 -5.343900000000000039e-02 6.878000000000000433e-03 6.024199999999999694e-02 6.700200000000000600e-02 8.427900000000000669e-02 -6.102099999999999885e-02 -2.963299999999999962e-02 -4.740300000000000069e-02 -2.467000000000000009e-03 -7.318299999999999805e-02 -2.328200000000000061e-02 -5.644999999999999844e-03 2.187999999999999841e-03 6.259999999999999939e-03 6.310999999999999943e-02 -1.258199999999999943e-02 2.972999999999999948e-03 -1.163899999999999935e-01 -2.449300000000000088e-02 3.029499999999999901e-02 -5.495200000000000085e-02 -9.514999999999999153e-03 -4.216700000000000309e-02 -7.460799999999999377e-02 1.492000000000000054e-03 3.304699999999999999e-02 2.594899999999999984e-02 -5.505100000000000271e-02 4.237000000000000315e-03 3.039100000000000135e-02 -1.032679999999999987e-01 6.646699999999999831e-02 -6.879200000000000592e-02 -5.535999999999999949e-02 4.171699999999999714e-02 -3.709300000000000097e-02 -1.087579999999999936e-01 -5.571199999999999763e-02 5.497799999999999909e-02 -6.042299999999999754e-02 3.076600000000000168e-02 1.205490000000000034e-01 -1.039729999999999960e-01 -1.026549999999999963e-01 5.321399999999999741e-02 1.433550000000000102e-01 -7.445200000000000429e-02 4.730999999999999962e-03 -3.540200000000000291e-02 1.642199999999999910e-02 -5.566600000000000020e-02 3.546400000000000247e-02 -1.271079999999999988e-01 5.331899999999999834e-02 9.136999999999999289e-03 9.236600000000000366e-02 9.235999999999999766e-02 3.047800000000000162e-02 -1.700199999999999975e-02 -3.403999999999999908e-03 3.672999999999999876e-02 8.297999999999999821e-03 -7.498499999999999610e-02 1.180999999999999932e-02 7.537199999999999456e-02 1.740359999999999963e-01 1.895300000000000110e-02 -2.486599999999999921e-02 2.091499999999999956e-02 4.062700000000000339e-02 -3.593699999999999672e-02 1.169700000000000080e-02 -1.783399999999999916e-02 -6.055800000000000072e-02 -3.038799999999999835e-02 -5.819599999999999773e-02 5.504699999999999871e-02 -6.081799999999999706e-02 -3.474300000000000305e-02 1.202800000000000050e-02 8.715999999999999789e-03 -1.048859999999999931e-01 3.752899999999999986e-02 7.520999999999999908e-02 -4.660299999999999859e-02 8.399299999999999822e-02 -9.544400000000000106e-02 -2.115970000000000073e-01 3.076299999999999868e-02 -3.872500000000000248e-02 -8.341600000000000403e-02 1.778000000000000067e-03 -5.945500000000000090e-02 -1.071970000000000006e-01 -1.275000000000000022e-01 -2.815199999999999994e-02 3.305000000000000299e-02 1.375200000000000033e-02 -5.547699999999999854e-02 -2.517889999999999850e-01 7.819600000000000162e-02 1.107189999999999980e-01 -1.848000000000000033e-03 -4.042599999999999666e-02 -1.180609999999999993e-01 1.828869999999999940e-01 -6.358199999999999963e-02 -1.480000000000000066e-02 5.070299999999999807e-02 1.253660000000000052e-01 -1.034169999999999950e-01 -1.034899999999999987e-01 -7.866700000000000081e-02 2.551399999999999849e-02 -1.956809999999999938e-01 4.072000000000000099e-03 2.043700000000000030e-02 4.147699999999999998e-02 1.131270000000000053e-01 -4.176200000000000051e-02 -1.152370000000000061e-01 -1.190260000000000068e-01 -1.543819999999999915e-01 9.358600000000000252e-02 3.339000000000000301e-02 1.047010000000000024e-01 -2.249929999999999986e-01 -6.976999999999999695e-03 1.075720000000000010e-01 1.003239999999999965e-01 7.047200000000000686e-02 9.044099999999999362e-02 8.186699999999999533e-02 -8.619999999999999191e-03 3.471400000000000180e-02 1.832959999999999867e-01 5.403000000000000164e-02 -4.354899999999999743e-02 1.043680000000000024e-01 -4.286700000000000232e-02 1.578569999999999973e-01 1.784870000000000068e-01 -6.092700000000000199e-02 4.364500000000000324e-02 2.652590000000000225e-01 -4.873600000000000154e-02 1.551000000000000078e-03 2.763869999999999938e-01 6.178999999999999770e-02 -1.597600000000000131e-01 1.697929999999999995e-01
-1.925800000000000081e-02 -8.160999999999999852e-03 3.183600000000000319e-02 9.307500000000000495e-02 -8.443799999999999917e-02 8.284299999999999997e-02 -9.218899999999999317e-02 9.887400000000000355e-02 5.766099999999999698e-02 -6.933200000000000474e-02 8.907999999999999252e-03 -6.830500000000000460e-02 9.013000000000000178e-03 7.944800000000000473e-02 9.155900000000000150e-02 1.120850000000000041e-01 -8.062400000000000122e-02 -3.673300000000000176e-02 -6.292300000000000670e-02 -3.488999999999999914e-03 -9.450799999999999479e-02 -3.118299999999999891e-02 -7.428999999999999840e-03 6.375999999999999723e-03 7.596000000000000321e-03 8.342399999999999816e-02 -1.389600000000000037e-02 -2.079999999999999872e-04 -1.530169999999999864e-01 -2.949600000000000138e-02 3.606800000000000284e-02 -7.239700000000000302e-02 -8.193000000000000629e-03 -5.999999999999999778e-02 -9.889900000000000080e-02 5.616000000000000332e-03 3.980399999999999910e-02 3.457699999999999663e-02 -6.823999999999999511e-02 1.165000000000000020e-03 4.055500000000000077e-02 -1.322520000000000084e-01 8.395700000000000385e-02 -9.090199999999999669e-02 -6.886899999999999966e-02 5.086600000000000149e-02 -4.913200000000000206e-02 -1.395830000000000126e-01 -7.809499999999999775e-02 7.311900000000000344e-02 -7.592500000000000637e-02 3.586600000000000205e-02 1.611239999999999895e-01 -1.343229999999999980e-01 -1.322170000000000012e-01 7.103800000000000392e-02 1.867270000000000041e-01 -9.353200000000000403e-02 6.455999999999999933e-03 -5.041400000000000048e-02 2.603099999999999858e-02 -7.375600000000000211e-02 4.322600000000000053e-02 -1.636350000000000027e-01 7.055999999999999772e-02 8.597999999999999740e-03 1.255549999999999999e-01 1.221819999999999989e-01 3.788400000000000101e-02 -1.838599999999999957e-02 -4.643999999999999691e-03 4.447999999999999871e-02 1.570500000000000021e-02 -9.899499999999999966e-02 1.170099999999999960e-02 1.031129999999999963e-01 2.313399999999999901e-01 2.369599999999999831e-02 -2.819199999999999831e-02 2.779300000000000173e-02 4.934600000000000097e-02 -4.743100000000000094e-02 1.523900000000000081e-02 -2.679899999999999990e-02 -8.015999999999999515e-02 -3.993200000000000222e-02 -7.926199999999999912e-02 7.281799999999999384e-02 -8.017799999999999927e-02 -4.850700000000000151e-02 1.554600000000000079e-02 1.130300000000000055e-02 -1.404249999999999943e-01 4.951900000000000052e-02 9.935900000000000287e-02 -6.396799999999999708e-02 1.103579999999999978e-01 -1.249539999999999956e-01 -2.795880000000000032e-01 4.114000000000000296e-02 -5.068000000000000282e-02 -1.122250000000000053e-01 3.008999999999999956e-03 -7.800500000000000489e-02 -1.435579999999999912e-01 -1.691469999999999918e-01 -3.792600000000000138e-02 4.164299999999999946e-02 1.897199999999999928e-02 -7.351800000000000002e-02 -3.318429999999999991e-01 1.056369999999999948e-01 1.458490000000000064e-01 -1.190000000000000085e-03 -5.137200000000000100e-02 -1.555229999999999946e-01 2.402859999999999996e-01 -8.269899999999999474e-02 -1.924400000000000069e-02 6.755899999999999406e-02 1.672059999999999935e-01 -1.366839999999999999e-01 -1.376219999999999943e-01 -1.026480000000000031e-01 3.394599999999999701e-02 -2.576229999999999909e-01 6.982000000000000359e-03 2.671400000000000163e-02 5.499899999999999928e-02 1.514079999999999870e-01 -5.643700000000000105e-02 -1.526589999999999892e-01 -1.544919999999999904e-01 -2.036550000000000027e-01 1.235129999999999978e-01 4.316400000000000098e-02 1.380939999999999945e-01 -2.975630000000000219e-01 -1.085900000000000060e-02 1.421229999999999993e-01 1.317339999999999900e-01 9.132500000000000340e-02 1.190569999999999962e-01 1.071239999999999970e-01 -1.270699999999999955e-02 4.581400000000000056e-02 2.410420000000000063e-01 6.958999999999999908e-02 -5.759299999999999836e-02 1.370969999999999966e-01 -5.825000000000000316e-02 2.064159999999999884e-01 2.326270000000000004e-01 -8.149900000000000200e-02 5.762899999999999967e-02 3.475559999999999761e-01 -6.593400000000000649e-02 9.370000000000000074e-04 3.631800000000000028e-01 8.003499999999999504e-02 -2.118599999999999928e-01 2.240189999999999959e-01
-2.397300000000000125e-02 -9.634000000000000202e-03 4.108400000000000246e-02 1.145810000000000023e-01 -1.048759999999999970e-01 1.039009999999999934e-01 -1.135430000000000050e-01 1.213100000000000012e-01 7.326900000000000079e-02 -8.600299999999999612e-02 1.020199999999999926e-02 -8.347599999999999465e-02 1.116600000000000058e-02 9.806900000000000339e-02 1.153580000000000022e-01 1.396290000000000031e-01 -9.957100000000000672e-02 -4.411500000000000143e-02 -7.792100000000000415e-02 -4.596000000000000259e-03 -1.158970000000000000e-01 -3.910899999999999793e-02 -9.090000000000000857e-03 1.070199999999999971e-02 8.481999999999999956e-03 1.030340000000000006e-01 -1.532799999999999961e-02 -3.229999999999999798e-03 -1.882220000000000004e-01 -3.481399999999999773e-02 4.196199999999999930e-02 -8.926199999999999413e-02 -6.429999999999999952e-03 -7.722099999999999798e-02 -1.228189999999999976e-01 9.556000000000000258e-03 4.673900000000000277e-02 4.309700000000000336e-02 -8.049499999999999711e-02 -2.020000000000000094e-03 5.066699999999999676e-02 -1.599440000000000028e-01 1.012529999999999958e-01 -1.123809999999999948e-01 -8.149299999999999600e-02 5.962499999999999745e-02 -6.094499999999999917e-02 -1.690149999999999986e-01 -1.000029999999999947e-01 9.088599999999999457e-02 -9.067300000000000360e-02 4.031699999999999867e-02 2.014809999999999934e-01 -1.639230000000000131e-01 -1.613860000000000017e-01 8.862799999999999845e-02 2.293399999999999883e-01 -1.117059999999999997e-01 8.238999999999999796e-03 -6.482899999999999774e-02 3.525699999999999668e-02 -9.152399999999999425e-02 5.091500000000000192e-02 -1.991400000000000114e-01 8.751100000000000545e-02 8.148999999999999994e-03 1.573700000000000099e-01 1.512229999999999963e-01 4.564100000000000101e-02 -1.989399999999999849e-02 -6.061999999999999680e-03 5.189300000000000163e-02 2.330000000000000127e-02 -1.224009999999999959e-01 1.150999999999999940e-02 1.298179999999999890e-01 2.877649999999999930e-01 2.966500000000000040e-02 -3.109699999999999964e-02 3.456300000000000344e-02 5.745000000000000107e-02 -5.869800000000000018e-02 1.852600000000000080e-02 -3.556100000000000233e-02 -9.949500000000000011e-02 -4.902600000000000013e-02 -9.907100000000000628e-02 8.992200000000000193e-02 -9.882100000000000606e-02 -6.158600000000000185e-02 1.868399999999999922e-02 1.371299999999999950e-02 -1.739640000000000075e-01 6.109599999999999753e-02 1.229350000000000026e-01 -8.025899999999999701e-02 1.357289999999999885e-01 -1.532310000000000061e-01 -3.440489999999999937e-01 5.151800000000000129e-02 -6.203399999999999886e-02 -1.393830000000000069e-01 4.660000000000000080e-03 -9.585899999999999976e-02 -1.780760000000000121e-01 -2.099570000000000047e-01 -4.778299999999999909e-02 5.054299999999999765e-02 2.355099999999999902e-02 -9.105699999999999905e-02 -4.088689999999999825e-01 1.326019999999999976e-01 1.796669999999999934e-01 6.000000000000000152e-06 -6.180700000000000083e-02 -1.916309999999999958e-01 2.950329999999999897e-01 -1.013450000000000045e-01 -2.335100000000000023e-02 8.405799999999999383e-02 2.077070000000000027e-01 -1.689299999999999968e-01 -1.710520000000000096e-01 -1.260860000000000036e-01 4.226900000000000102e-02 -3.171660000000000035e-01 9.806999999999999745e-03 3.271799999999999708e-02 6.808100000000000263e-02 1.886909999999999976e-01 -7.131700000000000539e-02 -1.891309999999999936e-01 -1.882919999999999872e-01 -2.511829999999999896e-01 1.524010000000000087e-01 5.288400000000000045e-02 1.703759999999999997e-01 -3.678660000000000263e-01 -1.460900000000000046e-02 1.756379999999999886e-01 1.616130000000000067e-01 1.113989999999999980e-01 1.465710000000000068e-01 1.309490000000000098e-01 -1.646299999999999847e-02 5.659600000000000047e-02 2.961739999999999928e-01 8.449700000000000266e-02 -7.118299999999999628e-02 1.682539999999999869e-01 -7.312899999999999956e-02 2.525069999999999815e-01 2.833840000000000248e-01 -1.011770000000000030e-01 7.124999999999999389e-02 4.256389999999999896e-01 -8.247799999999999576e-02 -2.020000000000000040e-04 4.460189999999999988e-01 9.774199999999999555e-02 -2.625739999999999741e-01 2.761709999999999998e-01
-2.852400000000000074e-02 -1.076599999999999953e-02 4.962799999999999850e-02 1.351009999999999989e-01 -1.248780000000000029e-01 1.238989999999999952e-01 -1.340339999999999865e-01 1.423800000000000066e-01 8.836700000000000110e-02 -1.021149999999999974e-01 1.094000000000000007e-02 -9.901799999999999491e-02 1.332999999999999984e-02 1.159870000000000068e-01 1.383010000000000073e-01 1.668119999999999881e-01 -1.177249999999999963e-01 -5.173900000000000027e-02 -9.224300000000000554e-02 -5.805000000000000264e-03 -1.373389999999999889e-01 -4.704300000000000148e-02 -1.059900000000000078e-02 1.518899999999999938e-02 8.835000000000000839e-03 1.217580000000000051e-01 -1.682300000000000115e-02 -6.095999999999999856e-03 -2.217999999999999972e-01 -4.038100000000000023e-02 4.798000000000000181e-02 -1.054429999999999951e-01 -4.093000000000000284e-03 -9.363299999999999401e-02 -1.463039999999999896e-01 1.332400000000000077e-02 5.390299999999999953e-02 5.144499999999999768e-02 -9.161800000000000499e-02 -5.334000000000000200e-03 6.073400000000000326e-02 -1.859830000000000094e-01 1.182779999999999943e-01 -1.330510000000000026e-01 -9.299899999999999833e-02 6.787999999999999590e-02 -7.245500000000000551e-02 -1.966590000000000005e-01 -1.213359999999999994e-01 1.081740000000000063e-01 -1.043380000000000002e-01 4.395799999999999708e-02 2.413490000000000080e-01 -1.923719999999999875e-01 -1.899530000000000107e-01 1.058179999999999954e-01 2.708130000000000259e-01 -1.288569999999999993e-01 1.014100000000000071e-02 -7.859199999999999520e-02 4.394900000000000195e-02 -1.089149999999999979e-01 5.846900000000000014e-02 -2.334640000000000049e-01 1.042069999999999941e-01 7.709999999999999840e-03 1.875940000000000107e-01 1.793289999999999884e-01 5.349199999999999788e-02 -2.154100000000000112e-02 -7.710999999999999972e-03 5.888199999999999684e-02 3.109599999999999864e-02 -1.451340000000000130e-01 1.121699999999999954e-02 1.554669999999999941e-01 3.430300000000000016e-01 3.681999999999999856e-02 -3.348899999999999794e-02 4.123799999999999688e-02 6.479699999999999349e-02 -6.973400000000000432e-02 2.152700000000000100e-02 -4.407200000000000006e-02 -1.185540000000000066e-01 -5.760500000000000342e-02 -1.174270000000000036e-01 1.062109999999999999e-01 -1.166190000000000004e-01 -7.394399999999999584e-02 2.140799999999999995e-02 1.590099999999999847e-02 -2.051870000000000083e-01 7.223300000000000554e-02 1.458790000000000087e-01 -9.533800000000000607e-02 1.600499999999999978e-01 -1.802370000000000083e-01 -4.046960000000000002e-01 6.192299999999999888e-02 -7.274300000000000210e-02 -1.646199999999999886e-01 6.819000000000000408e-03 -1.129809999999999981e-01 -2.105319999999999969e-01 -2.496629999999999960e-01 -5.767300000000000204e-02 5.962699999999999945e-02 2.746099999999999930e-02 -1.079600000000000004e-01 -4.821710000000000163e-01 1.589230000000000087e-01 2.119379999999999875e-01 1.730999999999999900e-03 -7.167900000000000660e-02 -2.261420000000000097e-01 3.467350000000000154e-01 -1.193899999999999961e-01 -2.711500000000000021e-02 1.000709999999999933e-01 2.465479999999999894e-01 -1.999190000000000134e-01 -2.033689999999999942e-01 -1.488079999999999958e-01 5.039699999999999736e-02 -3.738119999999999776e-01 1.255399999999999919e-02 3.840600000000000264e-02 8.062800000000000522e-02 2.247139999999999971e-01 -8.627999999999999559e-02 -2.242969999999999964e-01 -2.202389999999999903e-01 -2.965999999999999748e-01 1.800960000000000061e-01 6.240899999999999920e-02 2.012980000000000047e-01 -4.353730000000000100e-01 -1.819000000000000131e-02 2.079030000000000045e-01 1.896170000000000078e-01 1.304939999999999989e-01 1.727839999999999931e-01 1.530529999999999946e-01 -1.981899999999999981e-02 6.697899999999999687e-02 3.481139999999999790e-01 9.861999999999999933e-02 -8.417900000000000382e-02 1.974690000000000056e-01 -8.736199999999999521e-02 2.959129999999999816e-01 3.303550000000000098e-01 -1.198729999999999934e-01 8.440999999999999892e-02 4.988460000000000116e-01 -9.821900000000000075e-02 -1.784999999999999911e-03 5.241240000000000343e-01 1.148050000000000043e-01 -3.114569999999999839e-01 3.256589999999999763e-01