0.000000000000000000e+00 2.032270000000000021e+00 9.621900000000000119e+00 -1.760000000000000009e+00 5.080680000000000085e+00 9.621900000000000119e+00 -3.520000000000000018e+00 8.129089999999999705e+00 9.621900000000000119e+00 3.520000000000000018e+00 2.032270000000000021e+00 9.621900000000000119e+00 1.760000000000000009e+00 5.080680000000000085e+00 9.621900000000000119e+00 0.000000000000000000e+00 8.129089999999999705e+00 9.621900000000000119e+00 7.040000000000000036e+00 2.032270000000000021e+00 9.621900000000000119e+00 5.280000000000000249e+00 5.080680000000000085e+00 9.621900000000000119e+00 3.520000000000000018e+00 8.129089999999999705e+00 9.621900000000000119e+00 0.000000000000000000e+00 2.032299999999999940e-01 1.675825999999999993e+01 -1.760000000000000009e+00 3.251640000000000086e+00 1.675825999999999993e+01 -3.520000000000000018e+00 6.300049999999999706e+00 1.675825999999999993e+01 3.520000000000000018e+00 2.032299999999999940e-01 1.675825999999999993e+01 1.760000000000000009e+00 3.251640000000000086e+00 1.675825999999999993e+01 0.000000000000000000e+00 6.300049999999999706e+00 1.675825999999999993e+01 7.040000000000000036e+00 2.032299999999999940e-01 1.675825999999999993e+01 5.280000000000000249e+00 3.251640000000000086e+00 1.675825999999999993e+01 3.520000000000000018e+00 6.300049999999999706e+00 1.675825999999999993e+01 0.000000000000000000e+00 2.032270000000000021e+00 1.324250999999999934e+01 -1.760000000000000009e+00 5.080680000000000085e+00 1.324250999999999934e+01 -3.520000000000000018e+00 8.129089999999999705e+00 1.324250999999999934e+01 3.520000000000000018e+00 2.032270000000000021e+00 1.324250999999999934e+01 1.760000000000000009e+00 5.080680000000000085e+00 1.324250999999999934e+01 0.000000000000000000e+00 8.129089999999999705e+00 1.324250999999999934e+01 7.040000000000000036e+00 2.032270000000000021e+00 1.324250999999999934e+01 5.280000000000000249e+00 5.080680000000000085e+00 1.324250999999999934e+01 3.520000000000000018e+00 8.129089999999999705e+00 1.324250999999999934e+01 0.000000000000000000e+00 2.032299999999999940e-01 2.037849999999999895e+01 -1.760000000000000009e+00 3.251640000000000086e+00 2.037849999999999895e+01 -3.520000000000000018e+00 6.300049999999999706e+00 2.037849999999999895e+01 3.520000000000000018e+00 2.032299999999999940e-01 2.037849999999999895e+01 1.760000000000000009e+00 3.251640000000000086e+00 2.037849999999999895e+01 0.000000000000000000e+00 6.300049999999999706e+00 2.037849999999999895e+01 7.040000000000000036e+00 2.032299999999999940e-01 2.037849999999999895e+01 5.280000000000000249e+00 3.251640000000000086e+00 2.037849999999999895e+01 3.520000000000000018e+00 6.300049999999999706e+00 2.037849999999999895e+01 0.000000000000000000e+00 0.000000000000000000e+00 1.143094999999999928e+01 -1.760000000000000009e+00 3.048410000000000064e+00 1.143094999999999928e+01 -3.520000000000000018e+00 6.096820000000000128e+00 1.143094999999999928e+01 3.520000000000000018e+00 0.000000000000000000e+00 1.143094999999999928e+01 1.760000000000000009e+00 3.048410000000000064e+00 1.143094999999999928e+01 0.000000000000000000e+00 6.096820000000000128e+00 1.143094999999999928e+01 7.040000000000000036e+00 0.000000000000000000e+00 1.143094999999999928e+01 5.280000000000000249e+00 3.048410000000000064e+00 1.143094999999999928e+01 3.520000000000000018e+00 6.096820000000000128e+00 1.143094999999999928e+01 1.760000000000000009e+00 1.219359999999999999e+00 1.856792000000000087e+01 0.000000000000000000e+00 4.267769999999999619e+00 1.856792000000000087e+01 -1.760000000000000009e+00 7.316180000000000128e+00 1.856792000000000087e+01 5.280000000000000249e+00 1.219359999999999999e+00 1.856792000000000087e+01 3.520000000000000018e+00 4.267769999999999619e+00 1.856792000000000087e+01 1.760000000000000009e+00 7.316180000000000128e+00 1.856792000000000087e+01 8.800000000000000711e+00 1.219359999999999999e+00 1.856792000000000087e+01 7.040000000000000036e+00 4.267769999999999619e+00 1.856792000000000087e+01 5.280000000000000249e+00 7.316180000000000128e+00 1.856792000000000087e+01
1.959999999999999937e-03 2.034780000000000033e+00 9.623929999999999652e+00 -1.763349999999999973e+00 5.080370000000000275e+00 9.621969999999999246e+00 -3.518489999999999895e+00 8.127649999999999153e+00 9.620509999999999451e+00 3.523429999999999840e+00 2.036140000000000061e+00 9.619160000000000821e+00 1.759290000000000020e+00 5.078129999999999811e+00 9.621100000000000207e+00 1.869999999999999917e-03 8.128209999999999269e+00 9.620649999999999480e+00 7.040540000000000020e+00 2.032589999999999897e+00 9.623469999999999303e+00 5.282820000000000071e+00 5.080659999999999954e+00 9.620770000000000266e+00 3.521939999999999849e+00 8.130810000000000315e+00 9.619270000000000209e+00 8.099999999999999561e-04 2.021399999999999864e-01 1.675900000000000034e+01 -1.762229999999999963e+00 3.253449999999999953e+00 1.675757000000000119e+01 -3.518699999999999939e+00 6.299369999999999692e+00 1.675649999999999906e+01 3.519410000000000149e+00 2.020800000000000096e-01 1.675828999999999880e+01 1.762380000000000058e+00 3.251329999999999831e+00 1.675806000000000040e+01 -2.099999999999999870e-03 6.300259999999999749e+00 1.675519999999999854e+01 7.039799999999999613e+00 2.011799999999999977e-01 1.675882000000000005e+01 5.281200000000000117e+00 3.250700000000000145e+00 1.675843000000000060e+01 3.520999999999999908e+00 6.300989999999999647e+00 1.675698999999999828e+01 3.609999999999999928e-03 2.030769999999999964e+00 1.324369000000000085e+01 -1.760520000000000085e+00 5.079030000000000378e+00 1.324280000000000079e+01 -3.516929999999999890e+00 8.129250000000000753e+00 1.324205000000000076e+01 3.518190000000000150e+00 2.029259999999999842e+00 1.324460000000000015e+01 1.759050000000000002e+00 5.082230000000000025e+00 1.324015999999999948e+01 -1.110000000000000092e-03 8.130029999999999646e+00 1.324274999999999913e+01 7.038809999999999789e+00 2.033689999999999998e+00 1.324410999999999916e+01 5.278810000000000002e+00 5.082849999999999646e+00 1.324155999999999977e+01 3.522310000000000052e+00 8.126659999999999329e+00 1.324229000000000056e+01 -1.490000000000000005e-03 2.038099999999999912e-01 2.037850999999999857e+01 -1.761670000000000069e+00 3.250490000000000101e+00 2.037829999999999941e+01 -3.517679999999999918e+00 6.300919999999999632e+00 2.037915999999999883e+01 3.519089999999999829e+00 2.021300000000000041e-01 2.037826000000000093e+01 1.758350000000000080e+00 3.248769999999999936e+00 2.037969999999999970e+01 -3.299999999999999982e-04 6.300069999999999837e+00 2.037987000000000037e+01 7.041940000000000310e+00 2.048000000000000098e-01 2.038071000000000055e+01 5.280129999999999768e+00 3.251440000000000108e+00 2.037916999999999845e+01 3.517850000000000144e+00 6.304090000000000416e+00 2.037881000000000142e+01 5.279139999999999944e+00 9.144069999999999254e+00 1.143135000000000012e+01 8.798759999999999692e+00 3.048340000000000050e+00 1.142989000000000033e+01 7.039500000000000313e+00 6.096269999999999634e+00 1.142929999999999957e+01 -1.758939999999999948e+00 9.144180000000000419e+00 1.143130999999999986e+01 1.758559999999999901e+00 3.048900000000000166e+00 1.143384000000000000e+01 -3.449999999999999942e-03 6.094430000000000014e+00 1.143140000000000001e+01 7.038210000000000299e+00 3.069999999999999812e-03 1.143314999999999948e+01 5.278979999999999784e+00 3.048099999999999810e+00 1.142880000000000074e+01 3.520669999999999966e+00 6.097559999999999647e+00 1.143230999999999931e+01 1.763600000000000056e+00 1.219370000000000065e+00 1.857137000000000171e+01 1.600000000000000131e-04 4.268869999999999720e+00 1.856586000000000070e+01 -1.762580000000000036e+00 7.317129999999999690e+00 1.856672000000000011e+01 5.278830000000000133e+00 1.219060000000000032e+00 1.856689000000000078e+01 3.519039999999999946e+00 4.264529999999999710e+00 1.856588999999999956e+01 1.759379999999999944e+00 7.317149999999999821e+00 1.857212000000000174e+01 8.797700000000000742e+00 1.219359999999999999e+00 1.856729999999999947e+01 7.040379999999999860e+00 4.269569999999999865e+00 1.856975999999999871e+01 5.278780000000000250e+00 7.316970000000000418e+00 1.856841000000000008e+01
3.910000000000000281e-03 2.037269999999999914e+00 9.625939999999999941e+00 -1.766690000000000094e+00 5.080049999999999955e+00 9.622030000000000527e+00 -3.516989999999999839e+00 8.126219999999999999e+00 9.619120000000000559e+00 3.526839999999999975e+00 2.040000000000000036e+00 9.616429999999999367e+00 1.758569999999999967e+00 5.075580000000000425e+00 9.620309999999999917e+00 3.739999999999999835e-03 8.127330000000000609e+00 9.619410000000000238e+00 7.041070000000000384e+00 2.032910000000000217e+00 9.625030000000000641e+00 5.285619999999999763e+00 5.080630000000000202e+00 9.619630000000000791e+00 3.523859999999999992e+00 8.132519999999999527e+00 9.616659999999999542e+00 1.629999999999999939e-03 2.010500000000000065e-01 1.675973000000000113e+01 -1.764459999999999917e+00 3.255250000000000199e+00 1.675687999999999889e+01 -3.517409999999999926e+00 6.298700000000000188e+00 1.675474000000000174e+01 3.518829999999999902e+00 2.009199999999999875e-01 1.675832000000000122e+01 1.764750000000000041e+00 3.251009999999999955e+00 1.675785000000000124e+01 -4.199999999999999740e-03 6.300469999999999793e+00 1.675215000000000032e+01 7.039589999999999570e+00 1.991199999999999914e-01 1.675938000000000017e+01 5.282409999999999606e+00 3.249769999999999825e+00 1.675859000000000165e+01 3.521990000000000176e+00 6.301929999999999588e+00 1.675572999999999979e+01 7.199999999999999803e-03 2.029279999999999973e+00 1.324488000000000021e+01 -1.761039999999999939e+00 5.077390000000000292e+00 1.324310000000000009e+01 -3.513869999999999827e+00 8.129419999999999646e+00 1.324159000000000042e+01 3.516399999999999970e+00 2.026269999999999794e+00 1.324667999999999957e+01 1.758099999999999996e+00 5.083779999999999966e+00 1.323781999999999925e+01 -2.210000000000000159e-03 8.130969999999999587e+00 1.324299000000000071e+01 7.037620000000000431e+00 2.035109999999999975e+00 1.324569999999999936e+01 5.277619999999999756e+00 5.085020000000000095e+00 1.324061000000000021e+01 3.524620000000000086e+00 8.124259999999999593e+00 1.324207000000000001e+01 -2.969999999999999984e-03 2.043999999999999984e-01 2.037852000000000174e+01 -1.763339999999999907e+00 3.249350000000000183e+00 2.037809999999999988e+01 -3.515379999999999949e+00 6.301789999999999559e+00 2.037981999999999871e+01 3.518180000000000085e+00 2.010399999999999965e-01 2.037801999999999936e+01 1.756709999999999994e+00 3.245909999999999851e+00 2.038091000000000008e+01 -6.599999999999999964e-04 6.300089999999999968e+00 2.038122999999999863e+01 7.043859999999999566e+00 2.063699999999999979e-01 2.038291999999999859e+01 5.280260000000000176e+00 3.251240000000000130e+00 2.037982999999999834e+01 3.515709999999999891e+00 6.308110000000000106e+00 2.037912999999999997e+01 5.278290000000000148e+00 9.142929999999999779e+00 1.143174999999999919e+01 8.797530000000000072e+00 3.048270000000000035e+00 1.142886000000000024e+01 7.039010000000000211e+00 6.095720000000000027e+00 1.142765999999999948e+01 -1.757880000000000109e+00 9.143140000000000711e+00 1.143164999999999942e+01 1.757149999999999990e+00 3.049380000000000202e+00 1.143671999999999933e+01 -6.879999999999999831e-03 6.092060000000000031e+00 1.143183999999999934e+01 7.036430000000000184e+00 6.130000000000000032e-03 1.143534999999999968e+01 5.277960000000000207e+00 3.047800000000000065e+00 1.142666999999999966e+01 3.521339999999999915e+00 6.098300000000000054e+00 1.143364000000000047e+01 1.767169999999999908e+00 1.219359999999999999e+00 1.857478000000000051e+01 3.099999999999999999e-04 4.269949999999999690e+00 1.856380000000000052e+01 -1.765139999999999931e+00 7.318060000000000009e+00 1.856551999999999936e+01 5.277660000000000018e+00 1.218739999999999934e+00 1.856587000000000032e+01 3.518079999999999874e+00 4.261309999999999931e+00 1.856388000000000105e+01 1.758760000000000101e+00 7.318109999999999893e+00 1.857628000000000057e+01 8.795410000000000394e+00 1.219359999999999999e+00 1.856668000000000163e+01 7.040759999999999685e+00 4.271359999999999602e+00 1.857160000000000011e+01 5.277569999999999872e+00 7.317739999999999689e+00 1.856888999999999967e+01
5.859999999999999758e-03 2.039750000000000174e+00 9.627950000000000230e+00 -1.770019999999999927e+00 5.079729999999999634e+00 9.622070000000000789e+00 -3.515489999999999782e+00 8.124800000000000466e+00 9.617739999999999512e+00 3.530219999999999914e+00 2.043829999999999814e+00 9.613720000000000709e+00 1.757859999999999978e+00 5.073050000000000281e+00 9.619529999999999248e+00 5.610000000000000403e-03 8.126440000000000552e+00 9.618180000000000618e+00 7.041610000000000369e+00 2.033230000000000093e+00 9.626569999999999183e+00 5.288409999999999833e+00 5.080610000000000070e+00 9.618489999999999540e+00 3.525770000000000071e+00 8.134219999999999118e+00 9.614060000000000272e+00 2.449999999999999921e-03 1.999700000000000089e-01 1.676048000000000116e+01 -1.766669999999999963e+00 3.257039999999999935e+00 1.675619999999999976e+01 -3.516140000000000043e+00 6.298020000000000174e+00 1.675298000000000087e+01 3.518240000000000034e+00 1.997700000000000031e-01 1.675833000000000084e+01 1.767099999999999893e+00 3.250680000000000014e+00 1.675763999999999854e+01 -6.270000000000000399e-03 6.300690000000000346e+00 1.674912000000000134e+01 7.039380000000000415e+00 1.970600000000000129e-01 1.675994000000000028e+01 5.283610000000000362e+00 3.248829999999999885e+00 1.675874999999999915e+01 3.522959999999999869e+00 6.302850000000000286e+00 1.675449000000000055e+01 1.077000000000000006e-02 2.027789999999999981e+00 1.324606999999999957e+01 -1.761570000000000080e+00 5.075750000000000206e+00 1.324339999999999939e+01 -3.510819999999999830e+00 8.129580000000000695e+00 1.324113000000000007e+01 3.514609999999999790e+00 2.023299999999999876e+00 1.324874999999999936e+01 1.757149999999999990e+00 5.085340000000000416e+00 1.323550999999999966e+01 -3.310000000000000008e-03 8.131909999999999528e+00 1.324323000000000050e+01 7.036430000000000184e+00 2.036540000000000017e+00 1.324729999999999919e+01 5.276430000000000398e+00 5.087170000000000414e+00 1.323967000000000027e+01 3.526909999999999989e+00 8.121869999999999479e+00 1.324186000000000085e+01 -4.449999999999999963e-03 2.049900000000000055e-01 2.037853000000000137e+01 -1.764990000000000059e+00 3.248219999999999885e+00 2.037790000000000035e+01 -3.513090000000000046e+00 6.302660000000000373e+00 2.038049000000000177e+01 3.517290000000000028e+00 1.999400000000000066e-01 2.037780000000000058e+01 1.755069999999999908e+00 3.243079999999999963e+00 2.038211000000000084e+01 -1.000000000000000021e-03 6.300110000000000099e+00 2.038259000000000043e+01 7.045770000000000088e+00 2.079499999999999960e-01 2.038513000000000019e+01 5.280389999999999695e+00 3.251050000000000217e+00 2.038050000000000139e+01 3.513580000000000148e+00 6.312090000000000423e+00 2.037943999999999889e+01 5.277479999999999727e+00 9.141799999999999926e+00 1.143211999999999939e+01 8.796319999999999695e+00 3.048189999999999955e+00 1.142786000000000080e+01 7.038529999999999731e+00 6.095180000000000042e+00 1.142605000000000004e+01 -1.756829999999999892e+00 9.142129999999999868e+00 1.143194000000000088e+01 1.755789999999999962e+00 3.049850000000000172e+00 1.143955000000000055e+01 -1.030000000000000013e-02 6.089730000000000310e+00 1.143224999999999980e+01 7.034699999999999953e+00 9.140000000000000555e-03 1.143750999999999962e+01 5.276950000000000252e+00 3.047520000000000007e+00 1.142459999999999987e+01 3.521999999999999797e+00 6.099029999999999951e+00 1.143491000000000035e+01 1.770699999999999941e+00 1.219349999999999934e+00 1.857815000000000083e+01 4.699999999999999859e-04 4.270999999999999908e+00 1.856176999999999921e+01 -1.767660000000000009e+00 7.318970000000000198e+00 1.856433000000000177e+01 5.276519999999999655e+00 1.218409999999999993e+00 1.856487999999999872e+01 3.517139999999999933e+00 4.258149999999999658e+00 1.856192000000000064e+01 1.758119999999999905e+00 7.319069999999999965e+00 1.858036999999999850e+01 8.793139999999999290e+00 1.219370000000000065e+00 1.856606000000000023e+01 7.041129999999999889e+00 4.273139999999999716e+00 1.857340999999999909e+01 5.276390000000000136e+00 7.318489999999999718e+00 1.856935999999999964e+01
7.799999999999999642e-03 2.042209999999999859e+00 9.629960000000000520e+00 -1.773339999999999916e+00 5.079399999999999693e+00 9.622099999999999653e+00 -3.513990000000000169e+00 8.123400000000000176e+00 9.616369999999999862e+00 3.533560000000000034e+00 2.047629999999999839e+00 9.611029999999999518e+00 1.757149999999999990e+00 5.070540000000000269e+00 9.618769999999999598e+00 7.470000000000000077e-03 8.125550000000000495e+00 9.616970000000000240e+00 7.042130000000000223e+00 2.033539999999999903e+00 9.628090000000000259e+00 5.291159999999999641e+00 5.080599999999999561e+00 9.617350000000000065e+00 3.527649999999999952e+00 8.135930000000000106e+00 9.611499999999999488e+00 3.269999999999999903e-03 1.988999999999999935e-01 1.676123000000000118e+01 -1.768880000000000008e+00 3.258799999999999919e+00 1.675551000000000101e+01 -3.514899999999999913e+00 6.297340000000000160e+00 1.675123999999999924e+01 3.517659999999999787e+00 1.986199999999999910e-01 1.675833000000000084e+01 1.769439999999999902e+00 3.250329999999999941e+00 1.675741999999999976e+01 -8.330000000000000598e-03 6.300910000000000011e+00 1.674613000000000085e+01 7.039159999999999862e+00 1.949899999999999967e-01 1.676048000000000116e+01 5.284819999999999851e+00 3.247889999999999944e+00 1.675890000000000057e+01 3.523919999999999941e+00 6.303749999999999964e+00 1.675328000000000017e+01 1.429000000000000062e-02 2.026310000000000056e+00 1.324724999999999930e+01 -1.762119999999999909e+00 5.074119999999999742e+00 1.324370000000000047e+01 -3.507789999999999964e+00 8.129739999999999966e+00 1.324067999999999934e+01 3.512840000000000185e+00 2.020350000000000090e+00 1.325079999999999991e+01 1.756189999999999918e+00 5.086899999999999977e+00 1.323321999999999932e+01 -4.400000000000000265e-03 8.132839999999999847e+00 1.324347999999999992e+01 7.035230000000000317e+00 2.037990000000000190e+00 1.324888999999999939e+01 5.275260000000000282e+00 5.089310000000000223e+00 1.323873999999999995e+01 3.529170000000000140e+00 8.119529999999999248e+00 1.324165999999999954e+01 -5.930000000000000375e-03 2.055899999999999950e-01 2.037855000000000061e+01 -1.766620000000000079e+00 3.247100000000000097e+00 2.037769000000000119e+01 -3.510839999999999961e+00 6.303539999999999921e+00 2.038116000000000128e+01 3.516420000000000101e+00 1.988499999999999990e-01 2.037761000000000067e+01 1.753440000000000110e+00 3.240279999999999827e+00 2.038329999999999842e+01 -1.350000000000000071e-03 6.300130000000000230e+00 2.038392999999999944e+01 7.047640000000000349e+00 2.095299999999999940e-01 2.038732999999999862e+01 5.280499999999999972e+00 3.250849999999999795e+00 2.038115000000000165e+01 3.511480000000000157e+00 6.316019999999999968e+00 2.037975000000000136e+01 5.276729999999999698e+00 9.140689999999999316e+00 1.143247999999999998e+01 8.795130000000000337e+00 3.048119999999999941e+00 1.142692000000000085e+01 7.038070000000000270e+00 6.094649999999999679e+00 1.142450000000000010e+01 -1.755779999999999896e+00 9.141170000000000684e+00 1.143216999999999928e+01 1.754490000000000105e+00 3.050310000000000077e+00 1.144233000000000011e+01 -1.366999999999999986e-02 6.087449999999999584e+00 1.143262999999999963e+01 7.033019999999999605e+00 1.209000000000000005e-02 1.143964000000000070e+01 5.275949999999999918e+00 3.047260000000000080e+00 1.142259999999999920e+01 3.522639999999999993e+00 6.099770000000000358e+00 1.143608000000000047e+01 1.774149999999999894e+00 1.219340000000000090e+00 1.858144000000000062e+01 6.199999999999999999e-04 4.272029999999999994e+00 1.855977999999999994e+01 -1.770140000000000047e+00 7.319860000000000255e+00 1.856315999999999988e+01 5.275420000000000442e+00 1.218050000000000077e+00 1.856392999999999915e+01 3.516210000000000058e+00 4.255060000000000286e+00 1.856002000000000152e+01 1.757470000000000088e+00 7.320009999999999906e+00 1.858436999999999983e+01 8.790900000000000603e+00 1.219389999999999974e+00 1.856541999999999959e+01 7.041470000000000340e+00 4.274899999999999700e+00 1.857518999999999920e+01 5.275249999999999773e+00 7.319209999999999994e+00 1.856982999999999961e+01
9.719999999999999474e-03 2.044630000000000170e+00 9.631949999999999790e+00 -1.776629999999999932e+00 5.079060000000000130e+00 9.622099999999999653e+00 -3.512509999999999799e+00 8.122030000000000527e+00 9.615009999999999835e+00 3.536849999999999827e+00 2.051390000000000047e+00 9.608389999999999986e+00 1.756440000000000001e+00 5.068060000000000009e+00 9.618050000000000210e+00 9.320000000000000159e-03 8.124660000000000437e+00 9.615780000000000882e+00 7.042650000000000077e+00 2.033850000000000158e+00 9.629569999999999297e+00 5.293870000000000076e+00 5.080580000000000318e+00 9.616210000000000591e+00 3.529490000000000016e+00 8.137620000000000076e+00 9.608980000000000743e+00 4.100000000000000346e-03 1.978499999999999981e-01 1.676201000000000008e+01 -1.771069999999999922e+00 3.260540000000000216e+00 1.675484000000000151e+01 -3.513689999999999980e+00 6.296660000000000146e+00 1.674952000000000041e+01 3.517079999999999984e+00 1.974799999999999889e-01 1.675832000000000122e+01 1.771740000000000093e+00 3.249950000000000117e+00 1.675719000000000136e+01 -1.035999999999999942e-02 6.301129999999999676e+00 1.674317999999999884e+01 7.038929999999999687e+00 1.929299999999999904e-01 1.676103000000000165e+01 5.286019999999999719e+00 3.246960000000000068e+00 1.675906000000000162e+01 3.524849999999999817e+00 6.304640000000000022e+00 1.675209999999999866e+01 1.776000000000000148e-02 2.024849999999999817e+00 1.324843000000000082e+01 -1.762690000000000090e+00 5.072510000000000296e+00 1.324400999999999939e+01 -3.504779999999999784e+00 8.129899999999999238e+00 1.324022000000000077e+01 3.511089999999999822e+00 2.017450000000000188e+00 1.325281999999999982e+01 1.755239999999999911e+00 5.088470000000000049e+00 1.323098000000000063e+01 -5.490000000000000088e-03 8.133749999999999147e+00 1.324372999999999934e+01 7.034040000000000070e+00 2.039449999999999985e+00 1.325047999999999959e+01 5.274110000000000298e+00 5.091429999999999900e+00 1.323780999999999963e+01 3.531400000000000095e+00 8.117229999999999279e+00 1.324147999999999925e+01 -7.400000000000000328e-03 2.061800000000000022e-01 2.037856000000000023e+01 -1.768229999999999968e+00 3.245989999999999931e+00 2.037747999999999848e+01 -3.508610000000000007e+00 6.304429999999999978e+00 2.038184000000000040e+01 3.515579999999999927e+00 1.977500000000000091e-01 2.037744000000000000e+01 1.751810000000000089e+00 3.237519999999999953e+00 2.038448999999999955e+01 -1.729999999999999984e-03 6.300139999999999851e+00 2.038524999999999920e+01 7.049479999999999968e+00 2.111099999999999921e-01 2.038953000000000060e+01 5.280599999999999739e+00 3.250659999999999883e+00 2.038178999999999874e+01 3.509389999999999787e+00 6.319890000000000008e+00 2.038006000000000029e+01 5.276030000000000442e+00 9.139599999999999724e+00 1.143280000000000030e+01 8.793969999999999843e+00 3.048029999999999795e+00 1.142605999999999966e+01 7.037620000000000431e+00 6.094149999999999956e+00 1.142300000000000004e+01 -1.754729999999999901e+00 9.140249999999999986e+00 1.143230999999999931e+01 1.753290000000000015e+00 3.050739999999999785e+00 1.144504000000000055e+01 -1.701000000000000081e-02 6.085230000000000139e+00 1.143296999999999919e+01 7.031410000000000160e+00 1.495999999999999934e-02 1.144172000000000011e+01 5.274960000000000093e+00 3.047029999999999905e+00 1.142069000000000045e+01 3.523260000000000058e+00 6.100500000000000256e+00 1.143711000000000055e+01 1.777500000000000080e+00 1.219309999999999894e+00 1.858463000000000065e+01 7.699999999999999597e-04 4.273010000000000197e+00 1.855782999999999916e+01 -1.772540000000000004e+00 7.320719999999999672e+00 1.856201000000000079e+01 5.274359999999999715e+00 1.217659999999999965e+00 1.856303000000000125e+01 3.515309999999999935e+00 4.252069999999999794e+00 1.855821999999999861e+01 1.756780000000000008e+00 7.320929999999999715e+00 1.858822999999999936e+01 8.788700000000000401e+00 1.219419999999999948e+00 1.856476999999999933e+01 7.041780000000000150e+00 4.276640000000000441e+00 1.857693000000000083e+01 5.274169999999999803e+00 7.319869999999999877e+00 1.857028999999999996e+01
1.162000000000000012e-02 2.047029999999999905e+00 9.633929999999999438e+00 -1.779900000000000038e+00 5.078710000000000058e+00 9.622070000000000789e+00 -3.511029999999999873e+00 8.120689999999999742e+00 9.613670000000000826e+00 3.540080000000000116e+00 2.055099999999999927e+00 9.605790000000000717e+00 1.755740000000000078e+00 5.065610000000000390e+00 9.617350000000000065e+00 1.116999999999999937e-02 8.123770000000000380e+00 9.614630000000000010e+00 7.043169999999999931e+00 2.034149999999999903e+00 9.631019999999999470e+00 5.296540000000000248e+00 5.080580000000000318e+00 9.615069999999999339e+00 3.531289999999999818e+00 8.139310000000000045e+00 9.606519999999999726e+00 4.939999999999999947e-03 1.968399999999999872e-01 1.676279999999999859e+01 -1.773249999999999993e+00 3.262259999999999938e+00 1.675418000000000163e+01 -3.512529999999999930e+00 6.295989999999999753e+00 1.674781000000000120e+01 3.516490000000000116e+00 1.963499999999999968e-01 1.675828999999999880e+01 1.774010000000000087e+00 3.249550000000000161e+00 1.675694999999999979e+01 -1.234999999999999987e-02 6.301370000000000360e+00 1.674027999999999849e+01 7.038680000000000270e+00 1.908499999999999919e-01 1.676156999999999897e+01 5.287230000000000096e+00 3.246030000000000193e+00 1.675920999999999950e+01 3.525749999999999940e+00 6.305500000000000327e+00 1.675096999999999881e+01 2.116000000000000172e-02 2.023390000000000022e+00 1.324962000000000018e+01 -1.763279999999999959e+00 5.070899999999999963e+00 1.324432000000000009e+01 -3.501809999999999867e+00 8.130039999999999267e+00 1.323975000000000080e+01 3.509370000000000100e+00 2.014580000000000037e+00 1.325482000000000049e+01 1.754280000000000062e+00 5.090040000000000120e+00 1.322878000000000043e+01 -6.559999999999999859e-03 8.134639999999999205e+00 1.324399000000000015e+01 7.032849999999999824e+00 2.040929999999999911e+00 1.325206999999999979e+01 5.272969999999999935e+00 5.093510000000000204e+00 1.323689000000000071e+01 3.533599999999999852e+00 8.114979999999999194e+00 1.324131000000000036e+01 -8.859999999999999820e-03 2.067799999999999916e-01 2.037856999999999985e+01 -1.769800000000000040e+00 3.244909999999999961e+00 2.037725999999999971e+01 -3.506440000000000001e+00 6.305329999999999657e+00 2.038251999999999953e+01 3.514780000000000015e+00 1.966499999999999915e-01 2.037731000000000137e+01 1.750199999999999978e+00 3.234820000000000029e+00 2.038567000000000107e+01 -2.129999999999999949e-03 6.300150000000000361e+00 2.038654000000000011e+01 7.051280000000000214e+00 2.127000000000000002e-01 2.039171999999999940e+01 5.280680000000000263e+00 3.250480000000000036e+00 2.038241999999999976e+01 3.507340000000000124e+00 6.323669999999999902e+00 2.038035999999999959e+01 5.275430000000000064e+00 9.138540000000000774e+00 1.143308000000000035e+01 8.792839999999999989e+00 3.047930000000000028e+00 1.142529000000000039e+01 7.037189999999999834e+00 6.093650000000000233e+00 1.142158000000000051e+01 -1.753689999999999971e+00 9.139400000000000190e+00 1.143234999999999957e+01 1.752199999999999980e+00 3.051140000000000185e+00 1.144764999999999944e+01 -2.028999999999999901e-02 6.083079999999999821e+00 1.143324999999999925e+01 7.029889999999999972e+00 1.772999999999999923e-02 1.144374999999999964e+01 5.273979999999999890e+00 3.046839999999999993e+00 1.141891000000000034e+01 3.523849999999999927e+00 6.101230000000000153e+00 1.143798999999999921e+01 1.780729999999999924e+00 1.219260000000000010e+00 1.858768999999999849e+01 9.100000000000000016e-04 4.273939999999999628e+00 1.855593000000000004e+01 -1.774860000000000104e+00 7.321530000000000094e+00 1.856089000000000055e+01 5.273349999999999760e+00 1.217240000000000100e+00 1.856218000000000146e+01 3.514419999999999877e+00 4.249209999999999710e+00 1.855652999999999864e+01 1.756050000000000111e+00 7.321850000000000414e+00 1.859195000000000064e+01 8.786550000000000082e+00 1.219470000000000054e+00 1.856409999999999982e+01 7.042060000000000208e+00 4.278349999999999653e+00 1.857863000000000042e+01 5.273159999999999847e+00 7.320479999999999876e+00 1.857074000000000069e+01