-3.349779556199999888e+02
-3.349763914399999862e+02
-3.349687146499999812e+02
-3.349554326499999775e+02
-3.349368927300000109e+02
-3.349136156299999811e+02
-3.348860418099999947e+02
-3.348551799499999788e+02
-3.348216403399999876e+02
-3.347861813100000177e+02
-3.342960035599999742e+02
-3.342890231100000165e+02
-3.342784884499999976e+02
-3.342646673799999917e+02
-3.342477567500000077e+02
-3.342281676700000048e+02
-3.342065545699999802e+02
-3.341833376100000237e+02
-3.341589218400000050e+02
-3.341336661400000025e+02
-3.345685126600000103e+02
-3.345675375999999801e+02
-3.345614042500000096e+02
-3.345504863599999794e+02
-3.345347239500000001e+02
-3.345147461399999997e+02
-3.344911207200000263e+02
-3.344644824000000085e+02
-3.344356271799999831e+02
-3.344052180599999815e+02
-3.345345281500000283e+02
-3.345360352899999725e+02
-3.345336672199999839e+02
-3.345275712200000271e+02
-3.345178019499999778e+02
-3.345047996299999795e+02
-3.344893159200000241e+02
-3.344715640399999756e+02
-3.344522474199999920e+02
-3.344320926699999745e+02
-3.329386984999999868e+02
-3.329387921300000244e+02
-3.329424077099999977e+02
-3.329494661599999858e+02
-3.329598394099999723e+02
-3.329734541299999933e+02
-3.329902010600000040e+02
-3.330101549199999909e+02
-3.330332230899999786e+02
-3.330595973200000230e+02
-3.328569636199999877e+02
-3.328716165000000160e+02
-3.328897069000000215e+02
-3.329109772400000224e+02
-3.329353676000000064e+02
-3.329629725199999939e+02
-3.329937069599999973e+02
-3.330271640600000183e+02
-3.330629026299999964e+02
-3.331006700500000193e+02
-3.339561219700000265e+02
-3.339587385699999800e+02
-3.339585491199999865e+02
-3.339555675600000200e+02
-3.339500801899999942e+02
-3.339427494999999908e+02
-3.339339815100000237e+02
-3.339244523200000003e+02
-3.339147107900000151e+02
-3.339051131300000179e+02
-3.330224608400000079e+02
-3.330261780100000237e+02
-3.330282582099999900e+02
-3.330284637299999986e+02
-3.330277535199999761e+02
-3.330262067900000034e+02
-3.330247071399999754e+02
-3.330235996200000272e+02
-3.330232814600000211e+02
-3.330236094200000139e+02
-3.345606141800000159e+02
-3.345603445200000010e+02
-3.345574087800000029e+02
-3.345516463299999828e+02
-3.345435087299999850e+02
-3.345332793700000025e+02
-3.345213236199999756e+02
-3.345079327700000249e+02
-3.344933000699999752e+02
-3.344777165599999762e+02
-3.323164853700000094e+02
-3.323312773100000186e+02
-3.323544473000000039e+02
-3.323860290999999734e+02
-3.324256148100000132e+02
-3.324722037899999805e+02
-3.325253344999999854e+02
-3.325842221899999913e+02
-3.326481034799999748e+02
-3.327159340499999871e+02
-3.336953157500000202e+02
-3.336992022900000165e+02
-3.337065410399999905e+02
-3.337170006399999806e+02
-3.337307194399999730e+02
-3.337478645599999822e+02
-3.337680672999999842e+02
-3.337910015599999838e+02
-3.338164051800000038e+02
-3.338437384700000052e+02
-3.342197130700000116e+02
-3.342208824400000253e+02
-3.342192009400000074e+02
-3.342145846600000141e+02
-3.342071994199999949e+02
-3.341976464800000031e+02
-3.341861112799999773e+02
-3.341728764200000228e+02
-3.341583779599999957e+02
-3.341430742499999837e+02
-3.334737379499999861e+02
-3.334918051999999875e+02
-3.335090804000000162e+02
-3.335258260400000268e+02
-3.335417923699999960e+02
-3.335568547999999964e+02
-3.335712425799999892e+02
-3.335848604899999827e+02
-3.335979506400000218e+02
-3.336102312900000015e+02
-3.339275695000000042e+02
-3.339164082899999926e+02
-3.339079509000000030e+02
-3.339020120499999962e+02
-3.338988854699999820e+02
-3.338985880000000179e+02
-3.339013939000000164e+02
-3.339072525600000176e+02
-3.339162732300000016e+02
-3.339283725700000218e+02
-3.347928674999999998e+02
-3.347926048100000003e+02
-3.347882195600000159e+02
-3.347799131699999862e+02
-3.347676096700000130e+02
-3.347519941799999970e+02
-3.347335163500000021e+02
-3.347123082599999861e+02
-3.346889892600000280e+02
-3.346643336700000191e+02
-3.342815955199999962e+02
-3.342810171900000000e+02
-3.342770878599999946e+02
-3.342700019499999939e+02
-3.342598219000000199e+02
-3.342472782300000063e+02
-3.342329756400000065e+02
-3.342177508400000079e+02
-3.342019207999999821e+02
-3.341865896400000224e+02
-3.340180123600000002e+02
-3.340279274100000180e+02
-3.340363464499999964e+02
-3.340432851200000073e+02
-3.340487751200000162e+02
-3.340532818899999938e+02
-3.340569199600000161e+02
-3.340602395099999740e+02
-3.340634939000000259e+02
-3.340672801800000116e+02
-3.338278300599999966e+02
-3.338254488200000196e+02
-3.338208967599999824e+02
-3.338139328099999830e+02
-3.338049744099999998e+02
-3.337943036600000255e+02
-3.337822028499999760e+02
-3.337687341899999751e+02
-3.337544599600000197e+02
-3.337397505999999794e+02
-3.337663643800000273e+02
-3.337752381899999818e+02
-3.337835989600000062e+02
-3.337913352599999826e+02
-3.337984753599999976e+02
-3.338053145100000165e+02
-3.338119499200000178e+02
-3.338188857200000257e+02
-3.338265351900000155e+02
-3.338351144000000090e+02
-3.344790303199999926e+02
-3.344811292300000218e+02
-3.344802217299999825e+02
-3.344765061499999774e+02
-3.344700130699999931e+02
-3.344611253599999827e+02
-3.344501372600000195e+02
-3.344374182299999916e+02
-3.344236564199999862e+02
-3.344094365199999856e+02
-3.332496677600000226e+02
-3.332590451699999790e+02
-3.332722274999999854e+02
-3.332891829600000051e+02
-3.333100460399999747e+02
-3.333348778000000152e+02
-3.333635448699999984e+02
-3.333965527299999962e+02
-3.334336090799999965e+02
-3.334744039700000258e+02
-3.341721581300000139e+02
-3.341753735400000096e+02
-3.341784607700000151e+02
-3.341815928699999745e+02
-3.341848139400000264e+02
-3.341882761699999946e+02
-3.341920500800000013e+02
-3.341961855900000273e+02
-3.342006796300000246e+02
-3.342053598200000124e+02
-3.332868994099999895e+02
-3.332764557099999934e+02
-3.332670876000000248e+02
-3.332590664300000185e+02
-3.332525714700000208e+02
-3.332480846899999847e+02
-3.332460353899999745e+02
-3.332466061599999989e+02
-3.332502574999999752e+02
-3.332573049299999752e+02
-3.338321641499999828e+02
-3.338318602900000087e+02
-3.338284669000000235e+02
-3.338221701400000256e+02
-3.338133568000000082e+02
-3.338024942700000111e+02
-3.337900235000000180e+02
-3.337763613399999940e+02
-3.337622291900000278e+02
-3.337479782799999839e+02
-3.332385676299999773e+02
-3.332478749900000139e+02
-3.332591727500000047e+02
-3.332723280800000225e+02
-3.332872923799999967e+02
-3.333037452899999948e+02
-3.333215854300000274e+02
-3.333405728399999930e+02
-3.333607858099999817e+02
-3.333820736800000191e+02
-3.329510684900000115e+02
-3.329472882000000027e+02
-3.329419494699999973e+02
-3.329351219499999956e+02
-3.329274094300000115e+02
-3.329194049500000006e+02
-3.329117607900000166e+02
-3.329048541199999818e+02
-3.328990456799999720e+02
-3.328950304499999788e+02
-3.344692626500000188e+02
-3.344616138700000079e+02
-3.344508773599999927e+02
-3.344373178899999743e+02
-3.344215849799999773e+02
-3.344040262299999995e+02
-3.343851124400000003e+02
-3.343655222699999854e+02
-3.343459290200000282e+02
-3.343272251099999721e+02
-3.343899847499999964e+02
-3.343892855999999938e+02
-3.343844094099999893e+02
-3.343754108300000212e+02
-3.343625994099999730e+02
-3.343465762899999731e+02
-3.343277239999999892e+02
-3.343065606600000024e+02
-3.342837975599999822e+02
-3.342598846700000195e+02
-3.341749391800000240e+02
-3.341764753599999835e+02
-3.341769501800000057e+02
-3.341762084100000152e+02
-3.341743399299999737e+02
-3.341713861000000065e+02
-3.341673495300000241e+02
-3.341623855400000025e+02
-3.341564747099999977e+02
-3.341501664200000050e+02
-3.345215204200000016e+02
-3.345155217299999890e+02
-3.345053849399999990e+02
-3.344911321899999734e+02
-3.344729994599999827e+02
-3.344515526800000202e+02
-3.344270356100000186e+02
-3.343997812299999737e+02
-3.343706105300000218e+02
-3.343403625700000248e+02
-3.345301082799999790e+02
-3.345284822799999915e+02
-3.345213622200000145e+02
-3.345092479599999820e+02
-3.344922194100000183e+02
-3.344710307700000271e+02
-3.344463776000000053e+02
-3.344190846999999849e+02
-3.343898699800000145e+02
-3.343593901599999754e+02
-3.346093258899999796e+02
-3.346003164399999719e+02
-3.345881643000000167e+02
-3.345733634000000052e+02
-3.345561948600000051e+02
-3.345369323900000040e+02
-3.345161144799999988e+02
-3.344943339000000151e+02
-3.344718935399999964e+02
-3.344494685099999742e+02
-3.343310015299999804e+02
-3.343279079299999808e+02
-3.343226733000000195e+02
-3.343159143099999824e+02
-3.343074246799999969e+02
-3.342974371199999837e+02
-3.342862944999999968e+02
-3.342741350599999919e+02
-3.342612323700000161e+02
-3.342479178599999727e+02
-3.348470373100000188e+02
-3.348490906399999858e+02
-3.348460866300000021e+02
-3.348381272199999898e+02
-3.348253609899999788e+02
-3.348081306899999845e+02
-3.347866228299999989e+02
-3.347612351399999966e+02
-3.347329863699999919e+02
-3.347024984999999901e+02
-3.347716156000000183e+02
-3.347728352299999983e+02
-3.347683063200000220e+02
-3.347576410400000100e+02
-3.347412385200000244e+02
-3.347198396499999831e+02
-3.346940098000000035e+02
-3.346644239899999889e+02
-3.346315482499999803e+02
-3.345962331900000208e+02
-3.339292331500000159e+02
-3.339413734299999987e+02
-3.339514828800000146e+02
-3.339595837699999947e+02
-3.339659069900000077e+02
-3.339703443199999811e+02
-3.339733013800000094e+02
-3.339753748399999722e+02
-3.339769194900000002e+02
-3.339787115500000141e+02
-3.329110202699999945e+02
-3.329182972199999995e+02
-3.329271780099999773e+02
-3.329376373299999727e+02
-3.329492471099999875e+02
-3.329623142500000199e+02
-3.329768364999999903e+02
-3.329931559600000242e+02
-3.330111879500000214e+02
-3.330311821600000144e+02
-3.332484542199999851e+02
-3.332595355799999766e+02
-3.332698443599999791e+02
-3.332792408700000237e+02
-3.332875882000000161e+02
-3.332943517300000167e+02
-3.332999665500000219e+02
-3.333046008599999936e+02
-3.333083257600000024e+02
-3.333113123599999881e+02
-3.343129729899999916e+02
-3.343192776899999785e+02
-3.343222826900000086e+02
-3.343222676699999738e+02
-3.343193772999999851e+02
-3.343136226299999976e+02
-3.343052615299999957e+02
-3.342949021900000162e+02
-3.342828261199999815e+02
-3.342694301700000210e+02
-3.339593631000000187e+02
-3.339588841699999762e+02
-3.339553210400000012e+02
-3.339488352199999781e+02
-3.339398924899999770e+02
-3.339286024900000029e+02
-3.339155096299999741e+02
-3.339010225299999775e+02
-3.338855299900000091e+02
-3.338694524699999988e+02
-3.346498584400000027e+02
-3.346478253500000051e+02
-3.346414038600000254e+02
-3.346308565699999917e+02
-3.346166168600000219e+02
-3.345991179800000168e+02
-3.345789957800000138e+02
-3.345568519199999855e+02
-3.345328503299999738e+02
-3.345073451700000078e+02
-3.331298015799999916e+02
-3.331352258499999834e+02
-3.331396871700000020e+02
-3.331430324599999722e+02
-3.331455738299999894e+02
-3.331471983900000282e+02
-3.331482615499999724e+02
-3.331492118799999957e+02
-3.331504856099999756e+02
-3.331524892799999975e+02
-3.341686769099999879e+02
-3.341634704800000009e+02
-3.341561759200000097e+02
-3.341470472099999824e+02
-3.341366474000000153e+02
-3.341250016199999777e+02
-3.341125237300000208e+02
-3.341000044300000127e+02
-3.340875390799999991e+02
-3.340758515499999817e+02
-3.336745262399999774e+02
-3.336800566900000149e+02
-3.336873513099999968e+02
-3.336965163599999755e+02
-3.337074198299999921e+02
-3.337203529500000059e+02
-3.337355754499999989e+02
-3.337532642599999804e+02
-3.337734361500000091e+02
-3.337962736000000064e+02
-3.340366718999999875e+02
-3.340350857700000233e+02
-3.340318009800000141e+02
-3.340270362200000136e+02
-3.340207607799999892e+02
-3.340135710800000197e+02
-3.340057270400000107e+02
-3.339978818499999988e+02
-3.339905328799999893e+02
-3.339843003299999964e+02
-3.345941456099999982e+02
-3.345979170100000033e+02
-3.345988263500000244e+02
-3.345969159399999739e+02
-3.345922440300000176e+02
-3.345850865400000202e+02
-3.345757098799999767e+02
-3.345645542500000147e+02
-3.345519585299999790e+02
-3.345382436099999950e+02
-3.348061418500000173e+02
-3.348034008800000265e+02
-3.347963598399999796e+02
-3.347853281100000231e+02
-3.347705642000000239e+02
-3.347523654299999976e+02
-3.347313823200000229e+02
-3.347080483999999956e+02
-3.346827442300000257e+02
-3.346561777399999755e+02
-3.344635143300000095e+02
-3.344609971799999926e+02
-3.344572332600000095e+02
-3.344520350799999733e+02
-3.344455750000000194e+02
-3.344381070499999851e+02
-3.344300464899999952e+02
-3.344212883800000213e+02
-3.344123809700000152e+02
-3.344038010599999780e+02
-3.342729424199999926e+02
-3.342684685300000069e+02
-3.342600911600000018e+02
-3.342482024799999749e+02
-3.342332393099999877e+02
-3.342157738000000222e+02
-3.341962095200000249e+02
-3.341753485099999921e+02
-3.341538861600000132e+02
-3.341324683199999868e+02
-3.338575966399999970e+02
-3.338591592299999888e+02
-3.338577159299999835e+02
-3.338535571300000129e+02
-3.338467282400000045e+02
-3.338376029199999948e+02
-3.338265260000000012e+02
-3.338139573700000255e+02
-3.338002227000000062e+02
-3.337859129400000029e+02
-3.340290724999999838e+02
-3.340365951100000075e+02
-3.340436906099999987e+02
-3.340501733500000228e+02
-3.340562891199999740e+02
-3.340621871100000249e+02
-3.340678575000000023e+02
-3.340731850399999985e+02
-3.340785070399999768e+02
-3.340840918800000168e+02
-3.333321073999999840e+02
-3.333345502700000225e+02
-3.333364957300000242e+02
-3.333379500899999925e+02
-3.333391012000000160e+02
-3.333402342399999725e+02
-3.333417852100000118e+02
-3.333443782100000021e+02
-3.333483283300000153e+02
-3.333541955300000268e+02
-3.332611006299999872e+02
-3.332658922400000279e+02
-3.332752632199999994e+02
-3.332895799699999770e+02
-3.333086809399999879e+02
-3.333326165400000036e+02
-3.333613137400000141e+02
-3.333943900400000189e+02
-3.334313979199999949e+02
-3.334721145400000069e+02
-3.344564925099999755e+02
-3.344585157099999719e+02
-3.344570569399999727e+02
-3.344519377299999974e+02
-3.344434254700000224e+02
-3.344318731000000184e+02
-3.344179588900000226e+02
-3.344024428399999920e+02
-3.343858908500000098e+02
-3.343687997100000189e+02
-3.331319668599999773e+02
-3.331385857099999726e+02
-3.331491168300000254e+02
-3.331635186600000225e+02
-3.331813187999999855e+02
-3.332024394700000016e+02
-3.332266134999999849e+02
-3.332533324600000242e+02
-3.332826581599999827e+02
-3.333143117999999845e+02
-3.344213142699999821e+02
-3.344290702800000190e+02
-3.344334138799999891e+02
-3.344345140699999774e+02
-3.344327659100000005e+02
-3.344286003099999789e+02
-3.344223268399999824e+02
-3.344143058500000052e+02
-3.344050275000000170e+02
-3.343951612299999852e+02
-3.348248967999999763e+02
-3.348246687299999849e+02
-3.348202612100000124e+02
-3.348116418999999837e+02
-3.347990088799999739e+02
-3.347828251799999748e+02
-3.347631528699999990e+02
-3.347404573800000094e+02
-3.347150977399999761e+02
-3.346879190600000129e+02
-3.339144302000000266e+02
-3.338944439699999975e+02
-3.338731506799999806e+02
-3.338510639599999763e+02
-3.338283669400000235e+02
-3.338054385300000035e+02
-3.337828197800000112e+02
-3.337612137099999927e+02
-3.337414302799999746e+02
-3.337237417000000050e+02
-3.347713391099999853e+02
-3.347669383400000243e+02
-3.347574691699999789e+02
-3.347431142300000033e+02
-3.347240418100000170e+02
-3.347007060899999829e+02
-3.346739385000000198e+02
-3.346444601300000272e+02
-3.346127779099999771e+02
-3.345795226399999933e+02
-3.345851886799999875e+02
-3.345813163700000246e+02
-3.345739014700000098e+02
-3.345629822299999887e+02
-3.345487881999999900e+02
-3.345319533100000058e+02
-3.345128615900000000e+02
-3.344920260999999755e+02
-3.344704827499999737e+02
-3.344483850999999959e+02
-3.332790190800000119e+02
-3.332866832700000259e+02
-3.332932404300000258e+02
-3.332988307800000030e+02
-3.333034088699999984e+02
-3.333074353800000154e+02
-3.333109795199999894e+02
-3.333146419400000013e+02
-3.333187961699999846e+02
-3.333234326799999963e+02
-3.342790122800000177e+02
-3.342801402000000053e+02
-3.342794989399999963e+02
-3.342772782499999948e+02
-3.342737830799999870e+02
-3.342696336500000029e+02
-3.342647626599999739e+02
-3.342596096400000079e+02
-3.342543513800000028e+02
-3.342494578299999830e+02
-3.343571963800000049e+02
-3.343572381299999847e+02
-3.343538368000000105e+02
-3.343472274299999754e+02
-3.343379559699999959e+02
-3.343260486300000025e+02
-3.343122050200000217e+02
-3.342967867699999829e+02
-3.342804605900000183e+02
-3.342635402099999737e+02
-3.339152935700000171e+02
-3.339107278899999756e+02
-3.339049598400000036e+02
-3.338983088800000019e+02
-3.338908008000000223e+02
-3.338829449599999748e+02
-3.338751867899999866e+02
-3.338679902599999991e+02
-3.338618455100000233e+02
-3.338575001799999882e+02
-3.342020745199999965e+02
-3.341972676899999897e+02
-3.341918238299999757e+02
-3.341857203800000207e+02
-3.341790986099999827e+02
-3.341720134000000257e+02
-3.341647428499999819e+02
-3.341575805800000012e+02
-3.341504595100000188e+02
-3.341437233799999831e+02
-3.344692385800000238e+02
-3.344780946700000186e+02
-3.344843348300000230e+02
-3.344880112999999824e+02
-3.344895210999999904e+02
-3.344888451099999997e+02
-3.344864994600000045e+02
-3.344825596399999768e+02
-3.344772479100000169e+02
-3.344710504500000070e+02
-3.334683481000000143e+02
-3.334772990499999992e+02
-3.334895425700000260e+02
-3.335049377099999788e+02
-3.335230612199999882e+02
-3.335435767399999918e+02
-3.335662773799999741e+02
-3.335915055300000063e+02
-3.336187202799999909e+02
-3.336474197300000242e+02
-3.347914282799999910e+02
-3.347925756099999717e+02
-3.347891512799999987e+02
-3.347817305899999951e+02
-3.347707432199999857e+02
-3.347561599200000160e+02
-3.347388279499999726e+02
-3.347191875199999913e+02
-3.346975590999999781e+02
-3.346743769600000178e+02
-3.338056293999999866e+02
-3.338074026599999797e+02
-3.338060652500000174e+02
-3.338018943199999740e+02
-3.337951875399999722e+02
-3.337862029699999766e+02
-3.337753758200000220e+02
-3.337631537199999912e+02
-3.337503083999999944e+02
-3.337371057899999869e+02
-3.343795600400000012e+02
-3.343704219499999795e+02
-3.343579733500000088e+02
-3.343425501899999972e+02
-3.343247256199999811e+02
-3.343050546299999723e+02
-3.342840926399999830e+02
-3.342622155799999746e+02
-3.342403719399999886e+02
-3.342189321999999834e+02
-3.328177097399999980e+02
-3.328141252699999768e+02
-3.328118468800000187e+02
-3.328110225799999853e+02
-3.328120937900000058e+02
-3.328151568600000019e+02
-3.328209095700000262e+02
-3.328297649699999852e+02
-3.328419936199999825e+02
-3.328579422399999999e+02
-3.338689299999999776e+02
-3.338731412299999874e+02
-3.338756699900000058e+02
-3.338767352799999912e+02
-3.338760686400000282e+02
-3.338740422800000260e+02
-3.338711084000000255e+02
-3.338676442199999883e+02
-3.338639727699999753e+02
-3.338602722200000130e+02
-3.338944574000000216e+02
-3.338933598899999993e+02
-3.338864975999999842e+02
-3.338741230800000039e+02
-3.338565143899999725e+02
-3.338344895999999835e+02
-3.338089333799999849e+02
-3.337806154400000196e+02
-3.337502187599999957e+02
-3.337184572699999876e+02
-3.341029267299999788e+02
-3.341186811000000034e+02
-3.341314127300000223e+02
-3.341412866300000246e+02
-3.341479976800000031e+02
-3.341522345199999791e+02
-3.341539851800000065e+02
-3.341529305600000157e+02
-3.341496917299999723e+02
-3.341448697199999742e+02
-3.345115234900000019e+02
-3.345111259099999756e+02
-3.345079521999999770e+02
-3.345023057399999971e+02
-3.344943897399999742e+02
-3.344845000000000255e+02
-3.344729237299999909e+02
-3.344600785299999757e+02
-3.344466412599999785e+02
-3.344328539800000044e+02
-3.333485292899999877e+02
-3.333501012300000070e+02
-3.333535837100000094e+02
-3.333589057099999877e+02
-3.333661323399999787e+02
-3.333748936900000217e+02
-3.333855262800000219e+02
-3.333974855700000148e+02
-3.334110260799999992e+02
-3.334261644100000126e+02
-3.340602786200000196e+02
-3.340730682099999740e+02
-3.340863613000000214e+02
-3.340998761399999921e+02
-3.341134469699999840e+02
-3.341270152999999823e+02
-3.341403738600000111e+02
-3.341533735099999944e+02
-3.341658826799999815e+02
-3.341781297800000061e+02
-3.337405747999999903e+02
-3.337348967400000106e+02
-3.337324146000000269e+02
-3.337331067499999904e+02
-3.337370877199999768e+02
-3.337441764800000215e+02
-3.337544178699999975e+02
-3.337677009700000212e+02
-3.337839227499999879e+02
-3.338029242000000067e+02
-3.341839705200000026e+02
-3.341785367300000189e+02
-3.341689997099999800e+02
-3.341556963300000120e+02
-3.341391443200000140e+02
-3.341199218200000018e+02
-3.340985411600000248e+02
-3.340759787599999981e+02
-3.340527951500000086e+02
-3.340295427199999949e+02
-3.346189376400000128e+02
-3.346160609600000271e+02
-3.346090309100000013e+02
-3.345981198700000050e+02
-3.345838022300000034e+02
-3.345663806700000009e+02
-3.345467056699999944e+02
-3.345253947799999992e+02
-3.345026118700000097e+02
-3.344792694000000211e+02
-3.330766412799999898e+02
-3.330892554000000132e+02
-3.331034034799999972e+02
-3.331192752499999870e+02
-3.331368147200000180e+02
-3.331558047999999985e+02
-3.331766936800000281e+02
-3.331997853899999882e+02
-3.332251088699999855e+02
-3.332529230100000177e+02
-3.337406874000000130e+02
-3.337509381099999928e+02
-3.337601894900000161e+02
-3.337684119300000134e+02
-3.337753782500000170e+02
-3.337813455300000101e+02
-3.337862282300000061e+02
-3.337901176999999961e+02
-3.337932565799999907e+02
-3.337958061699999917e+02
-3.342993341800000167e+02
-3.342987031700000102e+02
-3.342936896599999841e+02
-3.342846835099999794e+02
-3.342720121400000153e+02
-3.342560930399999961e+02
-3.342373529600000097e+02
-3.342162651300000107e+02
-3.341935197000000244e+02
-3.341696137700000122e+02
-3.334789184300000215e+02
-3.334874591000000237e+02
-3.334973315400000047e+02
-3.335085900600000173e+02
-3.335212242200000219e+02
-3.335349107600000025e+02
-3.335489796400000273e+02
-3.335645498700000076e+02
-3.335819947499999785e+02
-3.336010656500000096e+02
-3.349199534699999958e+02
-3.349212087999999881e+02
-3.349177764300000035e+02
-3.349100856800000088e+02
-3.348980863099999965e+02
-3.348816891000000169e+02
-3.348608814599999732e+02
-3.348368897999999945e+02
-3.348101975399999901e+02
-3.347811274700000013e+02
-3.342656013499999972e+02
-3.342575148500000068e+02
-3.342453635400000280e+02
-3.342294565000000262e+02
-3.342103271400000040e+02
-3.341883889399999816e+02
-3.341644092399999977e+02
-3.341388857599999938e+02
-3.341127817400000026e+02
-3.340868168000000082e+02
-3.333847608300000047e+02
-3.333949629200000118e+02
-3.334032599299999902e+02
-3.334098607700000230e+02
-3.334145140599999877e+02
-3.334173661599999718e+02
-3.334186953199999834e+02
-3.334190021200000160e+02
-3.334187878800000249e+02
-3.334181705899999884e+02
-3.342984392899999762e+02
-3.343058359999999993e+02
-3.343095091499999967e+02
-3.343096470699999827e+02
-3.343063372699999718e+02
-3.342995850799999857e+02
-3.342897763899999859e+02
-3.342771091199999773e+02
-3.342621883200000070e+02
-3.342455677400000127e+02
-3.336506409599999756e+02
-3.336517422000000010e+02
-3.336511663800000065e+02
-3.336491361000000211e+02
-3.336457714200000169e+02
-3.336413068200000112e+02
-3.336361237400000164e+02
-3.336302267699999788e+02
-3.336241610700000138e+02
-3.336184232100000031e+02
-3.343604776299999912e+02
-3.343629913099999840e+02
-3.343622412199999872e+02
-3.343585323699999776e+02
-3.343516902000000073e+02
-3.343420413100000133e+02
-3.343298521199999982e+02
-3.343155791699999781e+02
-3.342998188299999924e+02
-3.342832759699999770e+02
-3.343914377699999818e+02
-3.343874659100000031e+02
-3.343800834699999882e+02
-3.343699252000000115e+02
-3.343570536400000037e+02
-3.343418165799999997e+02
-3.343247446600000217e+02
-3.343061771700000122e+02
-3.342868065600000023e+02
-3.342672006099999749e+02
-3.341929767799999809e+02
-3.341926753800000256e+02
-3.341901458199999979e+02
-3.341853857400000152e+02
-3.341784567199999856e+02
-3.341696981000000051e+02
-3.341597783000000277e+02
-3.341488776200000075e+02
-3.341376402999999868e+02
-3.341264080799999761e+02
-3.340722763900000132e+02
-3.340643751700000053e+02
-3.340543970400000262e+02
-3.340425682700000038e+02
-3.340291022999999768e+02
-3.340142356399999812e+02
-3.339982808400000067e+02
-3.339815934100000163e+02
-3.339649420200000236e+02
-3.339487736899999959e+02
-3.344655902800000149e+02
-3.344576422100000173e+02
-3.344459319900000196e+02
-3.344305628600000091e+02
-3.344118932299999756e+02
-3.343900363500000026e+02
-3.343659992400000078e+02
-3.343402011000000016e+02
-3.343131803900000136e+02
-3.342853312600000208e+02
-3.343215433199999893e+02
-3.343248427300000003e+02
-3.343235972200000106e+02
-3.343179615999999896e+02
-3.343080459099999757e+02
-3.342939748699999996e+02
-3.342764620300000047e+02
-3.342556338200000141e+02
-3.342318179200000259e+02
-3.342058060800000021e+02
-3.336554711399999746e+02
-3.336587068100000124e+02
-3.336608967099999745e+02
-3.336617724700000167e+02
-3.336619687400000203e+02
-3.336615741200000116e+02
-3.336611000099999842e+02
-3.336605352600000174e+02
-3.336602946900000006e+02
-3.336607234100000028e+02
-3.345151310699999954e+02
-3.345195701299999769e+02
-3.345204623899999774e+02
-3.345178332799999907e+02
-3.345120536300000254e+02
-3.345034842599999934e+02
-3.344929302799999959e+02
-3.344807336599999985e+02
-3.344673144099999718e+02
-3.344535299300000020e+02
-3.336094072199999800e+02
-3.336117779499999756e+02
-3.336100020700000073e+02
-3.336040253200000052e+02
-3.335944909599999733e+02
-3.335817384999999717e+02
-3.335665365300000076e+02
-3.335494591500000183e+02
-3.335312148599999773e+02
-3.335127038300000208e+02
-3.342912635299999806e+02
-3.342936961099999849e+02
-3.342922011900000143e+02
-3.342868835599999784e+02
-3.342780993599999988e+02
-3.342661959700000125e+02
-3.342517923199999927e+02
-3.342351240699999835e+02
-3.342169368200000008e+02
-3.341976798700000018e+02
-3.344191471999999976e+02
-3.344181763000000274e+02
-3.344123416200000065e+02
-3.344017870999999786e+02
-3.343871176900000250e+02
-3.343688352699999768e+02
-3.343472212500000182e+02
-3.343230411800000184e+02
-3.342969793699999741e+02
-3.342697437799999989e+02
