2.799999999999999958e-05 -1.642999999999999929e-03 -9.733999999999999597e-03 1.599999999999999928e-05 -1.642000000000000013e-03 -9.738000000000000128e-03 2.000000000000000164e-05 -1.645999999999999894e-03 -9.733999999999999597e-03 5.000000000000000409e-06 -1.647000000000000026e-03 -9.712999999999999412e-03 1.399999999999999979e-05 -1.655999999999999920e-03 -9.714999999999999677e-03 9.000000000000000228e-06 -1.647999999999999942e-03 -9.719999999999999474e-03 -1.000000000000000082e-05 -1.660999999999999933e-03 -9.733999999999999597e-03 -9.000000000000000228e-06 -1.657999999999999969e-03 -9.730000000000000801e-03 -6.999999999999999895e-06 -1.663999999999999898e-03 -9.731999999999999332e-03 -1.599999999999999928e-05 -2.376500000000000140e-02 -9.638999999999999999e-03 -1.000000000000000082e-05 -2.377900000000000152e-02 -9.639999999999999264e-03 -5.000000000000000409e-06 -2.377200000000000146e-02 -9.645000000000000795e-03 1.599999999999999928e-05 -2.375800000000000134e-02 -9.653000000000000122e-03 2.099999999999999884e-05 -2.375299999999999981e-02 -9.646999999999999326e-03 2.000000000000000164e-05 -2.375299999999999981e-02 -9.648999999999999591e-03 2.000000000000000164e-05 -2.376100000000000087e-02 -9.627999999999999406e-03 7.999999999999999638e-06 -2.375499999999999834e-02 -9.631000000000000671e-03 3.999999999999999819e-06 -2.376199999999999840e-02 -9.627000000000000141e-03 2.799999999999999958e-05 2.473699999999999857e-02 9.473000000000000517e-03 1.500000000000000038e-05 2.473699999999999857e-02 9.476999999999999313e-03 2.000000000000000164e-05 2.473300000000000151e-02 9.473000000000000517e-03 3.999999999999999819e-06 2.473200000000000051e-02 9.452999999999999597e-03 1.500000000000000038e-05 2.472399999999999945e-02 9.454999999999999863e-03 1.000000000000000082e-05 2.473200000000000051e-02 9.459000000000000394e-03 -9.000000000000000228e-06 2.471800000000000039e-02 9.475000000000000783e-03 -9.000000000000000228e-06 2.472299999999999845e-02 9.468999999999999986e-03 -7.999999999999999638e-06 2.471599999999999839e-02 9.473999999999999783e-03 -1.500000000000000038e-05 -2.590000000000000071e-04 9.737000000000000863e-03 -6.999999999999999895e-06 -2.730000000000000222e-04 9.735999999999999863e-03 -3.999999999999999819e-06 -2.669999999999999847e-04 9.742000000000000659e-03 1.800000000000000046e-05 -2.519999999999999996e-04 9.747999999999999721e-03 2.199999999999999943e-05 -2.469999999999999865e-04 9.740999999999999659e-03 2.199999999999999943e-05 -2.480000000000000108e-04 9.742999999999999924e-03 2.000000000000000164e-05 -2.550000000000000183e-04 9.724000000000000005e-03 7.999999999999999638e-06 -2.500000000000000052e-04 9.726999999999999535e-03 6.000000000000000152e-06 -2.579999999999999828e-04 9.723000000000000739e-03 -9.000000000000000228e-06 7.946999999999999204e-03 -1.182000000000000108e-03 -1.099999999999999971e-05 7.948000000000000204e-03 -1.182000000000000108e-03 -1.500000000000000038e-05 7.948000000000000204e-03 -1.183999999999999940e-03 -6.999999999999999895e-06 7.953999999999999265e-03 -1.188999999999999953e-03 -1.999999999999999909e-06 7.952000000000000735e-03 -1.193000000000000050e-03 -1.999999999999999909e-06 7.950999999999999734e-03 -1.186999999999999904e-03 -2.699999999999999899e-05 7.938000000000000611e-03 -1.190000000000000085e-03 -3.199999999999999855e-05 7.941000000000000142e-03 -1.188000000000000037e-03 -2.500000000000000120e-05 7.936000000000000346e-03 -1.191000000000000001e-03 -1.599999999999999928e-05 -6.976999999999999695e-03 1.010000000000000047e-03 -1.099999999999999971e-05 -6.982000000000000359e-03 1.007000000000000083e-03 -1.299999999999999920e-05 -6.983999999999999757e-03 1.008999999999999914e-03 -3.000000000000000076e-06 -6.975000000000000297e-03 1.012000000000000096e-03 -6.999999999999999895e-06 -6.974000000000000164e-03 1.015999999999999976e-03 -9.999999999999999547e-07 -6.977999999999999828e-03 1.016999999999999892e-03 -2.699999999999999899e-05 -6.990999999999999819e-03 1.015000000000000060e-03 -2.699999999999999899e-05 -6.989999999999999686e-03 1.016999999999999892e-03 -3.199999999999999855e-05 -6.988000000000000288e-03 1.013000000000000012e-03
-1.310000000000000053e-02 -2.756499999999999923e-02 -1.738699999999999968e-02 2.069700000000000012e-02 -8.793000000000000468e-03 -2.848200000000000037e-02 -8.847999999999999962e-03 2.152899999999999953e-02 6.413000000000000297e-03 -4.720599999999999796e-02 -4.026600000000000318e-02 3.000999999999999848e-02 3.432000000000000155e-03 2.437800000000000036e-02 1.908299999999999927e-02 -7.387999999999999602e-03 -2.573000000000000200e-03 1.789800000000000071e-02 -5.950999999999999693e-03 -5.760000000000000363e-03 -3.516699999999999687e-02 -3.541199999999999903e-02 3.361999999999999971e-03 -6.590999999999999637e-03 -3.315300000000000191e-02 -8.652999999999999234e-03 3.459700000000000275e-02 5.687000000000000215e-03 1.494000000000000102e-03 6.576000000000000248e-03 1.394100000000000027e-02 -3.881799999999999834e-02 5.490000000000000088e-04 -3.210299999999999959e-02 -1.594200000000000131e-02 8.833000000000000573e-03 6.220000000000000485e-04 -9.901999999999999344e-03 -1.976500000000000132e-02 -2.553599999999999967e-02 -3.793200000000000044e-02 -1.295600000000000050e-02 2.632800000000000071e-02 -9.445999999999999536e-03 3.367300000000000154e-02 -8.528000000000000858e-03 -1.906199999999999908e-02 -1.187299999999999987e-02 4.550000000000000008e-04 -1.421799999999999974e-02 -9.482000000000000844e-03 -2.322000000000000106e-02 -3.581899999999999668e-02 2.692900000000000155e-02 -5.004000000000000115e-02 2.814600000000000088e-02 3.978999999999999898e-03 -1.594900000000000137e-02 2.767299999999999968e-02 1.116499999999999958e-02 -2.395399999999999960e-02 1.219699999999999951e-02 5.549000000000000113e-03 2.083399999999999835e-02 5.086500000000000049e-02 -1.581099999999999867e-02 -5.670000000000000127e-04 2.159000000000000155e-02 4.106100000000000028e-02 8.547000000000000777e-03 4.471000000000000148e-03 9.490000000000000172e-03 3.350000000000000113e-04 3.054400000000000170e-02 1.879999999999999944e-03 1.284199999999999925e-02 -4.801999999999999845e-03 1.326199999999999948e-02 -2.944099999999999842e-02 5.817100000000000048e-02 1.736899999999999902e-02 7.167999999999999892e-03 2.236999999999999839e-03 6.761999999999999782e-03 2.405200000000000046e-02 1.423499999999999939e-02 2.194000000000000204e-03 -3.316399999999999904e-02 6.190000000000000190e-03 1.147399999999999982e-02 2.597700000000000009e-02 -3.139999999999999888e-04 3.142299999999999954e-02 9.289999999999999647e-03 3.763400000000000079e-02 2.320000000000000014e-04 -1.648700000000000165e-02 -1.855000000000000095e-03 -1.140599999999999947e-02 -3.373799999999999716e-02 2.556999999999999811e-03 -8.549999999999999658e-04 -1.223400000000000008e-02 2.664999999999999834e-03 -3.187999999999999862e-03 2.171700000000000019e-02 -6.210299999999999848e-02 2.791000000000000078e-03 4.365100000000000230e-02 2.172800000000000079e-02 -2.136800000000000158e-02 2.085300000000000001e-02 2.579999999999999828e-04 4.908900000000000069e-02 1.251099999999999955e-02 1.594800000000000037e-02 3.968399999999999705e-02 -4.240999999999999978e-03 4.033599999999999686e-02 -5.650800000000000267e-02 5.975400000000000156e-02 -1.008700000000000048e-02 -5.073199999999999932e-02 3.028600000000000042e-02 4.742299999999999988e-02 -2.986899999999999972e-02 4.796399999999999969e-02 -4.859000000000000125e-02 -3.313200000000000173e-02 7.960999999999999327e-03 2.539599999999999844e-02 6.352199999999999513e-02 -1.406800000000000064e-02 2.801000000000000104e-03 -8.385199999999999598e-02 -6.442699999999999816e-02 -1.228199999999999951e-02 -6.538900000000000268e-02 -2.314999999999999784e-03 -3.285500000000000226e-02 3.074299999999999949e-02 4.583500000000000074e-02 -2.693699999999999914e-02 1.447799999999999955e-02 2.895000000000000004e-02 -2.465799999999999936e-02 3.350100000000000300e-02 1.357799999999999979e-02 6.244100000000000344e-02 6.003499999999999809e-02 -1.778300000000000020e-02 -1.628800000000000039e-02 -8.440100000000000380e-02 2.727200000000000110e-02 3.963999999999999642e-03 -7.479000000000000405e-03 -1.797199999999999839e-02 -1.931700000000000084e-02 -2.530999999999999917e-02 3.672399999999999970e-02 -3.523300000000000043e-02 -6.186999999999999791e-03
-2.624299999999999897e-02 -5.324700000000000266e-02 -2.509700000000000125e-02 4.148899999999999810e-02 -1.601699999999999999e-02 -4.712000000000000216e-02 -1.760000000000000106e-02 4.434799999999999853e-02 2.214199999999999849e-02 -9.381200000000000649e-02 -7.827399999999999636e-02 6.780300000000000216e-02 6.679000000000000041e-03 5.001499999999999696e-02 4.723800000000000221e-02 -1.470699999999999959e-02 -3.459999999999999968e-03 4.482499999999999679e-02 -1.198500000000000086e-02 -9.868999999999999301e-03 -6.052600000000000341e-02 -7.050599999999999923e-02 8.162000000000000852e-03 -3.644000000000000104e-03 -6.529500000000000581e-02 -1.570699999999999874e-02 7.743700000000000583e-02 1.092300000000000042e-02 2.637700000000000114e-02 2.231700000000000003e-02 2.783899999999999916e-02 -5.372999999999999998e-02 1.063399999999999936e-02 -6.377900000000000236e-02 -8.269000000000000308e-03 2.685600000000000140e-02 1.350000000000000071e-03 4.000000000000000083e-03 -2.998999999999999930e-02 -5.125799999999999801e-02 -5.196800000000000030e-02 -1.685400000000000093e-02 5.179899999999999782e-02 4.311999999999999861e-03 7.595999999999999974e-02 -1.700799999999999881e-02 -1.432399999999999993e-02 -1.405200000000000025e-02 7.889999999999999878e-04 -4.793999999999999651e-03 -9.369999999999999857e-03 -4.585700000000000193e-02 -4.779499999999999721e-02 6.271599999999999397e-02 -9.940899999999999737e-02 3.115100000000000161e-02 -8.720000000000000537e-04 -3.170800000000000007e-02 3.064499999999999863e-02 1.294299999999999964e-02 -4.785299999999999970e-02 -3.539999999999999853e-04 1.809000000000000061e-03 4.117200000000000026e-02 7.665500000000000091e-02 -4.052900000000000252e-02 -1.075999999999999917e-03 1.857899999999999829e-02 7.234699999999999465e-02 1.710199999999999915e-02 -1.567599999999999896e-02 9.728000000000000536e-03 6.080000000000000335e-04 3.623300000000000132e-02 -5.531999999999999591e-03 2.567300000000000137e-02 -3.398600000000000232e-02 1.723600000000000132e-02 -5.846300000000000108e-02 9.132800000000000640e-02 2.561700000000000088e-02 1.422000000000000000e-02 4.642000000000000293e-03 3.615999999999999857e-03 4.780999999999999833e-02 2.845599999999999866e-02 -5.050999999999999934e-03 -6.600399999999999323e-02 1.254199999999999933e-02 1.344899999999999915e-02 5.219900000000000234e-02 -6.669999999999999497e-04 5.338799999999999796e-02 1.836899999999999991e-02 7.537900000000000156e-02 -8.550000000000000308e-03 -3.267699999999999771e-02 -3.567999999999999991e-03 -3.221700000000000258e-02 -6.697699999999999487e-02 5.172999999999999647e-03 -1.132500000000000000e-02 -2.424199999999999966e-02 5.428999999999999798e-03 -1.588799999999999935e-02 4.372399999999999898e-02 -1.225890000000000035e-01 -2.799999999999999972e-03 8.678600000000000203e-02 3.539199999999999985e-02 -4.118900000000000339e-02 4.134100000000000275e-02 -6.923999999999999599e-03 9.854799999999999671e-02 2.473500000000000004e-02 2.398799999999999891e-02 8.038800000000000112e-02 -8.514000000000000734e-03 7.193499999999999894e-02 -1.105899999999999939e-01 1.187590000000000034e-01 -2.750700000000000020e-02 -9.931700000000000250e-02 6.016900000000000026e-02 8.635900000000000520e-02 -5.820199999999999679e-02 9.484299999999999675e-02 -1.042629999999999946e-01 -6.430099999999999705e-02 1.631700000000000164e-02 4.305500000000000299e-02 1.273350000000000037e-01 -2.795299999999999868e-02 -2.386000000000000100e-03 -1.653969999999999885e-01 -1.283120000000000094e-01 -1.763599999999999890e-02 -1.314120000000000010e-01 -4.610000000000000382e-03 -5.832899999999999890e-02 5.987300000000000261e-02 9.105000000000000593e-02 -4.661599999999999772e-02 2.774899999999999936e-02 5.757099999999999718e-02 -4.227199999999999708e-02 6.556299999999999628e-02 2.741100000000000134e-02 1.305240000000000011e-01 1.179230000000000000e-01 -3.546099999999999947e-02 -2.451700000000000060e-02 -1.683749999999999969e-01 5.406699999999999701e-02 1.465200000000000009e-02 -1.580099999999999907e-02 -3.567200000000000232e-02 -3.148000000000000104e-02 -5.134099999999999775e-02 7.268299999999999761e-02 -6.302299999999999569e-02 -1.307499999999999982e-02
-3.945900000000000102e-02 -7.871499999999999331e-02 -3.299599999999999755e-02 6.247699999999999781e-02 -2.334500000000000117e-02 -6.563299999999999690e-02 -2.613899999999999904e-02 6.686699999999999589e-02 3.741900000000000087e-02 -1.395079999999999931e-01 -1.157640000000000058e-01 1.036320000000000019e-01 9.683999999999999900e-03 7.527100000000000457e-02 7.428899999999999393e-02 -2.190699999999999939e-02 -4.059000000000000108e-03 7.124600000000000377e-02 -1.808699999999999891e-02 -1.412500000000000040e-02 -8.549900000000000555e-02 -1.051519999999999955e-01 1.265900000000000011e-02 -1.088999999999999907e-03 -9.639100000000000446e-02 -2.267200000000000118e-02 1.188899999999999957e-01 1.578600000000000142e-02 5.084999999999999937e-02 3.731700000000000295e-02 4.168999999999999789e-02 -6.831700000000000272e-02 2.062100000000000044e-02 -9.482899999999999663e-02 -8.970000000000000109e-04 4.434400000000000147e-02 2.066000000000000128e-03 1.801300000000000123e-02 -4.015699999999999825e-02 -7.696000000000000063e-02 -6.570199999999999652e-02 -2.083099999999999882e-02 7.642999999999999794e-02 1.723699999999999885e-02 1.170630000000000004e-01 -2.536700000000000066e-02 -9.511000000000000357e-03 -1.643899999999999875e-02 8.019999999999999785e-04 4.675999999999999601e-03 -9.025999999999999301e-03 -6.789900000000000102e-02 -5.985800000000000148e-02 9.756399999999999795e-02 -1.479219999999999979e-01 3.376200000000000034e-02 -5.041999999999999607e-03 -4.703299999999999842e-02 3.367499999999999660e-02 1.489700000000000052e-02 -7.155100000000000349e-02 -1.265999999999999938e-02 -1.781999999999999947e-03 6.109499999999999653e-02 1.019570000000000060e-01 -6.468599999999999350e-02 -1.512000000000000106e-03 1.561899999999999920e-02 1.033310000000000062e-01 2.576399999999999871e-02 -3.541400000000000103e-02 9.766999999999999640e-03 9.060000000000000128e-04 4.138100000000000112e-02 -1.295900000000000003e-02 3.841900000000000176e-02 -6.277800000000000047e-02 2.160000000000000114e-02 -8.707099999999999562e-02 1.243090000000000028e-01 3.393899999999999695e-02 2.137500000000000164e-02 7.001000000000000278e-03 4.200000000000000174e-04 7.114399999999999891e-02 4.256499999999999867e-02 -1.209799999999999938e-02 -9.837500000000000411e-02 1.850699999999999915e-02 1.560699999999999935e-02 7.827499999999999736e-02 -1.121000000000000035e-03 7.535600000000000631e-02 2.736200000000000090e-02 1.128109999999999946e-01 -1.706600000000000131e-02 -4.831699999999999884e-02 -5.498000000000000283e-03 -5.259300000000000086e-02 -9.954999999999999960e-02 7.348999999999999630e-03 -2.161300000000000027e-02 -3.601800000000000140e-02 8.219999999999999876e-03 -2.841499999999999929e-02 6.582899999999999863e-02 -1.816439999999999999e-01 -7.165999999999999627e-03 1.289849999999999886e-01 4.895599999999999952e-02 -6.044499999999999873e-02 6.132200000000000151e-02 -1.375299999999999960e-02 1.467459999999999876e-01 3.667100000000000221e-02 3.207000000000000128e-02 1.205610000000000015e-01 -1.258800000000000023e-02 1.026429999999999981e-01 -1.629839999999999900e-01 1.765579999999999927e-01 -4.433800000000000241e-02 -1.465940000000000021e-01 8.944000000000000561e-02 1.246170000000000055e-01 -8.587300000000000488e-02 1.402329999999999965e-01 -1.585540000000000005e-01 -9.444500000000000117e-02 2.506699999999999900e-02 6.043599999999999667e-02 1.897480000000000000e-01 -4.164700000000000346e-02 -7.439000000000000300e-03 -2.450519999999999921e-01 -1.912439999999999973e-01 -2.279799999999999882e-02 -1.965290000000000092e-01 -6.790000000000000029e-03 -8.326200000000000268e-02 8.820799999999999474e-02 1.353340000000000098e-01 -6.601799999999999335e-02 4.080799999999999705e-02 8.548300000000000343e-02 -5.940600000000000047e-02 9.690999999999999615e-02 4.132000000000000256e-02 1.967540000000000122e-01 1.741959999999999897e-01 -5.282400000000000290e-02 -3.193399999999999711e-02 -2.502079999999999860e-01 8.038599999999999912e-02 2.507699999999999860e-02 -2.379500000000000018e-02 -5.301600000000000062e-02 -4.344699999999999951e-02 -7.695000000000000451e-02 1.076560000000000017e-01 -9.021999999999999464e-02 -1.955399999999999847e-02
-5.269800000000000179e-02 -1.037990000000000024e-01 -4.099400000000000266e-02 8.352300000000000002e-02 -3.074599999999999903e-02 -8.368799999999999850e-02 -3.449499999999999789e-02 8.880000000000000393e-02 5.213099999999999679e-02 -1.840239999999999931e-01 -1.524540000000000062e-01 1.373050000000000104e-01 1.247599999999999924e-02 1.000520000000000020e-01 1.001230000000000037e-01 -2.904699999999999990e-02 -4.479999999999999608e-03 9.667499999999999705e-02 -2.420100000000000029e-02 -1.826600000000000099e-02 -1.099200000000000038e-01 -1.391400000000000137e-01 1.688699999999999923e-02 1.327000000000000055e-03 -1.260930000000000106e-01 -2.968300000000000105e-02 1.586100000000000010e-01 1.999799999999999842e-02 7.461900000000000477e-02 5.143099999999999755e-02 5.555100000000000315e-02 -8.266400000000000137e-02 3.041500000000000106e-02 -1.250610000000000055e-01 6.336999999999999751e-03 6.132499999999999757e-02 3.027999999999999876e-03 3.197200000000000042e-02 -5.009199999999999764e-02 -1.025859999999999966e-01 -7.890999999999999404e-02 -2.509899999999999978e-02 1.000479999999999980e-01 2.921599999999999892e-02 1.568430000000000102e-01 -3.355099999999999749e-02 -4.415999999999999787e-03 -1.895000000000000157e-02 4.119999999999999856e-04 1.390899999999999949e-02 -8.498999999999999611e-03 -8.912100000000000577e-02 -7.179399999999999671e-02 1.312490000000000046e-01 -1.952800000000000091e-01 3.606999999999999790e-02 -8.661999999999999561e-03 -6.180499999999999883e-02 3.685599999999999987e-02 1.687699999999999964e-02 -9.498099999999999599e-02 -2.473500000000000004e-02 -5.265999999999999848e-03 8.055199999999999860e-02 1.267949999999999910e-01 -8.813600000000000600e-02 -1.758999999999999930e-03 1.269600000000000069e-02 1.335649999999999893e-01 3.440599999999999908e-02 -5.476899999999999824e-02 9.737000000000000863e-03 1.284999999999999901e-03 4.602200000000000041e-02 -2.021999999999999839e-02 5.091699999999999698e-02 -9.089400000000000257e-02 2.610600000000000073e-02 -1.149040000000000061e-01 1.567089999999999872e-01 4.225199999999999789e-02 2.845299999999999913e-02 9.105999999999999511e-03 -2.870000000000000155e-03 9.398299999999999710e-02 5.641100000000000281e-02 -1.888199999999999948e-02 -1.301200000000000134e-01 2.419599999999999876e-02 1.783799999999999969e-02 1.041880000000000028e-01 -1.732000000000000033e-03 9.705600000000000338e-02 3.619599999999999901e-02 1.497930000000000095e-01 -2.504199999999999829e-02 -6.337500000000000078e-02 -7.589000000000000259e-03 -7.252699999999999425e-02 -1.313040000000000040e-01 9.074000000000000468e-03 -3.194700000000000317e-02 -4.746399999999999925e-02 1.082699999999999982e-02 -4.055500000000000077e-02 8.801699999999999802e-02 -2.388089999999999935e-01 -1.031400000000000025e-02 1.699380000000000057e-01 6.216700000000000004e-02 -7.891499999999999904e-02 8.069099999999999884e-02 -2.001299999999999954e-02 1.932099999999999929e-01 4.814500000000000030e-02 4.007800000000000251e-02 1.598070000000000046e-01 -1.655799999999999980e-02 1.321789999999999909e-01 -2.132159999999999889e-01 2.327049999999999952e-01 -6.033299999999999774e-02 -1.920870000000000077e-01 1.178850000000000037e-01 1.617429999999999979e-01 -1.125840000000000035e-01 1.839490000000000014e-01 -2.111560000000000104e-01 -1.232990000000000058e-01 3.411800000000000249e-02 7.763399999999999468e-02 2.502090000000000147e-01 -5.491700000000000054e-02 -1.240400000000000010e-02 -3.220029999999999837e-01 -2.526999999999999802e-01 -2.783000000000000057e-02 -2.601720000000000144e-01 -8.930000000000000437e-03 -1.073930000000000023e-01 1.155299999999999938e-01 1.783909999999999940e-01 -8.500399999999999623e-02 5.360199999999999687e-02 1.125830000000000025e-01 -7.600800000000000611e-02 1.272909999999999875e-01 5.517600000000000282e-02 2.606609999999999761e-01 2.284430000000000072e-01 -6.972000000000000419e-02 -3.837200000000000333e-02 -3.291970000000000174e-01 1.058820000000000039e-01 3.501800000000000052e-02 -3.140199999999999936e-02 -6.978399999999999881e-02 -5.517099999999999782e-02 -1.019089999999999996e-01 1.413379999999999914e-01 -1.164889999999999953e-01 -2.551700000000000149e-02
-6.592099999999999349e-02 -1.284220000000000084e-01 -4.913499999999999812e-02 1.046740000000000032e-01 -3.823399999999999715e-02 -1.011640000000000039e-01 -4.266699999999999660e-02 1.100850000000000023e-01 6.614799999999999847e-02 -2.271120000000000083e-01 -1.881919999999999982e-01 1.688089999999999868e-01 1.490900000000000038e-02 1.242159999999999931e-01 1.245399999999999979e-01 -3.601599999999999940e-02 -4.610999999999999648e-03 1.211219999999999936e-01 -3.032699999999999979e-02 -2.237000000000000099e-02 -1.335840000000000083e-01 -1.722650000000000015e-01 2.071900000000000130e-02 3.432000000000000155e-03 -1.543430000000000080e-01 -3.651900000000000285e-02 1.964639999999999997e-01 2.372000000000000150e-02 9.752199999999999758e-02 6.463800000000000101e-02 6.920999999999999375e-02 -9.656800000000000106e-02 3.984999999999999654e-02 -1.543599999999999972e-01 1.329499999999999953e-02 7.778300000000000491e-02 4.109999999999999938e-03 4.597299999999999998e-02 -5.961999999999999938e-02 -1.278279999999999972e-01 -9.158600000000000074e-02 -2.937599999999999933e-02 1.226119999999999988e-01 4.014199999999999713e-02 1.949940000000000007e-01 -4.157299999999999884e-02 1.013000000000000012e-03 -2.182399999999999965e-02 -4.800000000000000122e-04 2.296099999999999877e-02 -7.583000000000000330e-03 -1.094159999999999994e-01 -8.361399999999999388e-02 1.637200000000000044e-01 -2.411139999999999950e-01 3.809200000000000086e-02 -1.190000000000000085e-02 -7.576299999999999701e-02 4.030700000000000255e-02 1.892500000000000085e-02 -1.179670000000000024e-01 -3.633499999999999924e-02 -8.597000000000000475e-03 9.944600000000000661e-02 1.509999999999999953e-01 -1.108689999999999953e-01 -1.861999999999999940e-03 9.735000000000000597e-03 1.628239999999999965e-01 4.299900000000000250e-02 -7.357500000000000151e-02 9.332000000000000017e-03 1.770000000000000089e-03 4.984199999999999742e-02 -2.739499999999999921e-02 6.302399999999999669e-02 -1.181519999999999931e-01 3.096700000000000147e-02 -1.418540000000000079e-01 1.884579999999999866e-01 5.035200000000000092e-02 3.566799999999999832e-02 1.094599999999999913e-02 -6.412000000000000165e-03 1.160459999999999964e-01 7.005500000000000616e-02 -2.525000000000000161e-02 -1.611670000000000047e-01 2.938100000000000087e-02 2.008300000000000016e-02 1.294750000000000068e-01 -2.230000000000000211e-03 1.181829999999999964e-01 4.497700000000000309e-02 1.859000000000000097e-01 -3.268999999999999684e-02 -7.767200000000000493e-02 -9.823999999999999400e-03 -9.174100000000000310e-02 -1.620709999999999928e-01 1.017400000000000075e-02 -4.226200000000000095e-02 -5.844200000000000089e-02 1.330600000000000012e-02 -5.235499999999999876e-02 1.101270000000000027e-01 -2.938149999999999928e-01 -1.238299999999999991e-02 2.093889999999999918e-01 7.511099999999999721e-02 -9.638599999999999945e-02 9.953399999999999748e-02 -2.572100000000000081e-02 2.375730000000000064e-01 5.922399999999999887e-02 4.802599999999999925e-02 1.978239999999999998e-01 -2.032600000000000032e-02 1.604289999999999883e-01 -2.606700000000000128e-01 2.867009999999999836e-01 -7.541399999999999493e-02 -2.355730000000000046e-01 1.454509999999999970e-01 1.975240000000000051e-01 -1.380399999999999960e-01 2.257260000000000100e-01 -2.617630000000000234e-01 -1.507860000000000034e-01 4.343299999999999939e-02 9.433199999999999918e-02 3.082139999999999880e-01 -6.778299999999999603e-02 -1.721699999999999967e-02 -3.954869999999999775e-01 -3.122510000000000008e-01 -3.275000000000000133e-02 -3.219219999999999859e-01 -1.100899999999999969e-02 -1.307159999999999989e-01 1.417779999999999874e-01 2.197840000000000071e-01 -1.033879999999999938e-01 6.606800000000000173e-02 1.385000000000000120e-01 -9.171799999999999398e-02 1.564750000000000030e-01 6.898999999999999577e-02 3.217849999999999877e-01 2.802359999999999851e-01 -8.580100000000000227e-02 -4.388999999999999846e-02 -4.049209999999999754e-01 1.305729999999999946e-01 4.431899999999999729e-02 -3.835500000000000020e-02 -8.598300000000000387e-02 -6.664899999999999991e-02 -1.261799999999999866e-01 1.736330000000000096e-01 -1.415879999999999916e-01 -3.099599999999999925e-02
-7.909900000000000264e-02 -1.524629999999999874e-01 -5.740499999999999770e-02 1.256909999999999972e-01 -4.579099999999999837e-02 -1.178000000000000019e-01 -5.062300000000000133e-02 1.304839999999999889e-01 7.942299999999999360e-02 -2.685049999999999937e-01 -2.228239999999999943e-01 1.979980000000000073e-01 1.713100000000000039e-02 1.477259999999999962e-01 1.472970000000000113e-01 -4.279700000000000171e-02 -4.392000000000000071e-03 1.441540000000000044e-01 -3.642399999999999805e-02 -2.631299999999999958e-02 -1.561889999999999945e-01 -2.043560000000000099e-01 2.423399999999999860e-02 5.589000000000000218e-03 -1.809880000000000100e-01 -4.329100000000000309e-02 2.322269999999999890e-01 2.663400000000000142e-02 1.195800000000000057e-01 7.649499999999999356e-02 8.286999999999999922e-02 -1.100929999999999964e-01 4.907999999999999863e-02 -1.823099999999999998e-01 2.002900000000000166e-02 9.357500000000000540e-02 5.467999999999999770e-03 5.967499999999999888e-02 -6.874199999999999755e-02 -1.527209999999999956e-01 -1.033509999999999984e-01 -3.365499999999999742e-02 1.440659999999999996e-01 4.986800000000000260e-02 2.317569999999999908e-01 -4.918700000000000155e-02 6.779999999999999569e-03 -2.499900000000000039e-02 -1.962000000000000202e-03 3.179599999999999788e-02 -6.394999999999999643e-03 -1.289279999999999871e-01 -9.526199999999999946e-02 1.946469999999999867e-01 -2.852430000000000243e-01 3.993900000000000228e-02 -1.480199999999999919e-02 -8.891599999999999504e-02 4.406800000000000300e-02 2.099200000000000024e-02 -1.404030000000000000e-01 -4.752300000000000274e-02 -1.185300000000000069e-02 1.178540000000000004e-01 1.745669999999999999e-01 -1.327490000000000059e-01 -1.585999999999999953e-03 6.758000000000000118e-03 1.908090000000000064e-01 5.153599999999999848e-02 -9.170000000000000373e-02 8.649999999999999703e-03 2.405000000000000020e-03 5.278200000000000253e-02 -3.440800000000000108e-02 7.459300000000000652e-02 -1.443069999999999908e-01 3.585599999999999898e-02 -1.677289999999999892e-01 2.192189999999999972e-01 5.804600000000000037e-02 4.275899999999999840e-02 1.258100000000000017e-02 -9.943000000000000449e-03 1.374080000000000024e-01 8.344200000000000228e-02 -3.140799999999999842e-02 -1.910890000000000088e-01 3.404200000000000281e-02 2.239599999999999924e-02 1.540549999999999975e-01 -2.861999999999999961e-03 1.386270000000000002e-01 5.354699999999999738e-02 2.212369999999999892e-01 -3.992699999999999722e-02 -9.113300000000000567e-02 -1.223899999999999988e-02 -1.106540000000000024e-01 -1.915800000000000003e-01 1.050599999999999971e-02 -5.271499999999999797e-02 -6.892099999999999616e-02 1.569600000000000162e-02 -6.361100000000000088e-02 1.317989999999999995e-01 -3.464650000000000230e-01 -1.327700000000000061e-02 2.469580000000000108e-01 8.744999999999999996e-02 -1.126920000000000005e-01 1.175579999999999958e-01 -3.078799999999999940e-02 2.794110000000000205e-01 6.965599999999999570e-02 5.573999999999999788e-02 2.341709999999999903e-01 -2.386999999999999886e-02 1.872219999999999995e-01 -3.050390000000000046e-01 3.382439999999999891e-01 -8.944599999999999773e-02 -2.765560000000000240e-01 1.718210000000000015e-01 2.316169999999999896e-01 -1.619919999999999971e-01 2.653170000000000250e-01 -3.099580000000000113e-01 -1.766020000000000090e-01 5.288099999999999745e-02 1.105259999999999992e-01 3.632400000000000073e-01 -7.996100000000000430e-02 -2.184499999999999983e-02 -4.648329999999999962e-01 -3.694390000000000174e-01 -3.742499999999999993e-02 -3.810810000000000031e-01 -1.310900000000000086e-02 -1.527940000000000131e-01 1.667099999999999971e-01 2.594580000000000219e-01 -1.212669999999999998e-01 7.815500000000000225e-02 1.631819999999999937e-01 -1.066430000000000017e-01 1.842459999999999931e-01 8.231199999999999628e-02 3.797679999999999945e-01 3.292370000000000019e-01 -1.011920000000000042e-01 -4.863499999999999768e-02 -4.765860000000000096e-01 1.541649999999999965e-01 5.299800000000000344e-02 -4.463999999999999913e-02 -1.011480000000000018e-01 -7.775500000000000467e-02 -1.494630000000000125e-01 2.042059999999999986e-01 -1.653080000000000105e-01 -3.581899999999999668e-02