7.386705112098883586e-01 -1.084977127288141606e-03 -1.808295212146902902e-05 -1.084977127288141606e-03 1.434954582647053334e+00 -1.178719151085837247e+00 -1.808295212146902902e-05 -1.178719151085837247e+00 3.702122787828354133e-01
5.682386874650428021e-01 1.234161482290261347e-01 1.512638944960884302e-01 1.234161482290261347e-01 1.279983682966063796e+00 -1.172769859837873740e+00 1.512638944960884302e-01 -1.172769859837873740e+00 -7.822685087747502375e-02
4.064866807385023040e-01 2.451324989586341763e-01 3.037212638321938329e-01 2.451324989586341763e-01 1.131721558522139182e+00 -1.166350411834752521e+00 3.037212638321938329e-01 -1.166350411834752521e+00 -5.226696481189408994e-01
2.603402616927895652e-01 3.633045910724342908e-01 4.572093614392229721e-01 3.633045910724342908e-01 9.970758970256808906e-01 -1.159641636597687375e+00 4.572093614392229721e-01 -1.159641636597687375e+00 -9.432610315121889855e-01
1.261105080951250013e-01 4.771548576292032884e-01 6.112218646577746162e-01 4.771548576292032884e-01 8.724662739566377834e-01 -1.152842446600015114e+00 6.112218646577746162e-01 -1.152842446600015114e+00 -1.347957499990665831e+00
1.014453614014412634e-02 5.862312248259043956e-01 7.656502757751201260e-01 5.862312248259043956e-01 7.643663861744959265e-01 -1.146115588410828501e+00 7.656502757751201260e-01 -1.146115588410828501e+00 -1.725149798292388237e+00
-9.697887222743839519e-02 6.895572132479784733e-01 9.198797744191296033e-01 6.895572132479784733e-01 6.631741861027552476e-01 -1.139714223359828527e+00 9.198797744191296033e-01 -1.139714223359828527e+00 -2.091745486650929742e+00
-1.928185184712242761e-01 7.869700763263320908e-01 1.073584867451616187e+00 7.869700763263320908e-01 5.718371949372150764e-01 -1.133891512776715516e+00 1.073584867451616187e+00 -1.133891512776715516e+00 -2.438757337861920504e+00
-2.795443568457897099e-01 8.778369107367139934e-01 1.226259232213179340e+00 8.778369107367139934e-01 4.880588777584490279e-01 -1.128918700943311482e+00 1.226259232213179340e+00 -1.128918700943311482e+00 -2.770977334237549439e+00
-3.602485721639059890e-01 9.619407210536664588e-01 1.378047532320790358e+00 9.619407210536664588e-01 4.094703678385446799e-01 -1.125139363949924531e+00 1.378047532320790358e+00 -1.125139363949924531e+00 -3.093378287611221023e+00
-4.081366845419102418e+01 -7.727345044578000532e+00 6.640358435329587472e+00 -7.727345044578000532e+00 -4.157934156282141203e+01 -6.028840414363129341e+00 6.640358435329587472e+00 -6.028840414363129341e+00 -2.654603155953249072e+01
-4.083811394419478802e+01 -7.750038988569034615e+00 6.763994737576044081e+00 -7.750038988569034615e+00 -4.164650954470091193e+01 -5.909164129188933856e+00 6.763994737576044081e+00 -5.909164129188933856e+00 -2.669289488499124730e+01
-4.082526292725355432e+01 -7.763194622208131612e+00 6.876626761612083527e+00 -7.763194622208131612e+00 -4.167335389120037803e+01 -5.785108978982910877e+00 6.876626761612083527e+00 -5.785108978982910877e+00 -2.674203336606579384e+01
-4.076786171824938521e+01 -7.766469251710194754e+00 6.978330661612170971e+00 -7.766469251710194754e+00 -4.165248764739654064e+01 -5.655951499087628953e+00 6.978330661612170971e+00 -5.655951499087628953e+00 -2.667741654903092297e+01
-4.067158380318004873e+01 -7.760015185424153472e+00 7.069106437576308188e+00 -7.760015185424153472e+00 -4.158926064404568024e+01 -5.521406111348837520e+00 7.069106437576308188e+00 -5.521406111348837520e+00 -2.651063890694916125e+01
-4.053475379020725455e+01 -7.743927616068092767e+00 7.148916012417260823e+00 -7.743927616068092767e+00 -4.148182614241698474e+01 -5.381015890719738515e+00 7.148916012417260823e+00 -5.381015890719738515e+00 -2.623690272682911484e+01
-4.036001803689374157e+01 -7.718358851990947400e+00 7.217607077786095893e+00 -7.718358851990947400e+00 -4.133235453648274671e+01 -5.234247757979065163e+00 7.217607077786095893e+00 -5.234247757979065163e+00 -2.586106283729303712e+01
-4.014720519634694540e+01 -7.683175623387397124e+00 7.275389057662597025e+00 -7.683175623387397124e+00 -4.114076967206850810e+01 -5.080340171382151659e+00 7.275389057662597025e+00 -5.080340171382151659e+00 -2.538073942038883857e+01
-3.989947566680722701e+01 -7.638853893847860732e+00 7.321785988456347205e+00 -7.638853893847860732e+00 -4.091011771615291792e+01 -4.918779090251350183e+00 7.321785988456347205e+00 -4.918779090251350183e+00 -2.480286250599298370e+01
-3.961856195574371498e+01 -7.585412701915952738e+00 7.357254795214146270e+00 -7.585412701915952738e+00 -4.064133155737319925e+01 -4.748841049929226621e+00 7.357254795214146270e+00 -4.748841049929226621e+00 -2.413057345380221363e+01
5.187242875059067337e+00 -1.897263573184677865e+00 -6.520912525123644388e-01 -1.897263573184677865e+00 1.746329951108833356e+01 9.244264837833053861e+00 -6.520912525123644388e-01 9.244264837833053861e+00 -7.846757223735163933e+00
5.124912470480011528e+00 -1.996421501574913382e+00 -7.069377012292077378e-01 -1.996421501574913382e+00 1.736218534483483467e+01 9.050022981006353717e+00 -7.069377012292077378e-01 9.050022981006353717e+00 -8.072962930419421923e+00
5.085051880623954190e+00 -2.093371932192841012e+00 -7.574050486741564781e-01 -2.093371932192841012e+00 1.727485457930598756e+01 8.837403256546785713e+00 -7.574050486741564781e-01 8.837403256546785713e+00 -8.258410690429611734e+00
5.072793986489921636e+00 -2.187791816583977589e+00 -8.035830305290118103e-01 -2.187791816583977589e+00 1.720640420122809644e+01 8.605956986045340429e+00 -8.035830305290118103e-01 8.605956986045340429e+00 -8.393750045722056186e+00
5.085985131714686247e+00 -2.279070952112074888e+00 -8.454357525210532964e-01 -2.279070952112074888e+00 1.715496770841969365e+01 8.356222583592829878e+00 -8.454357525210532964e-01 8.356222583592829878e+00 -8.483198573341413251e+00
5.123853589434757438e+00 -2.366688871822686391e+00 -8.830170560593615381e-01 -2.366688871822686391e+00 1.711970158547185505e+01 8.088217996325610670e+00 -8.830170560593615381e-01 8.088217996325610670e+00 -8.527868995742009517e+00
5.183743183468823901e+00 -2.449981531670484269e+00 -9.165423067802591639e-01 -2.449981531670484269e+00 1.709920595574848079e+01 7.802589321152653135e+00 -9.165423067802591639e-01 7.802589321152653135e+00 -8.530794378968725056e+00
5.266048750816810120e+00 -2.528572041791903757e+00 -9.461909760473484754e-01 -2.528572041791903757e+00 1.709265525097699623e+01 7.499067351028551265e+00 -9.461909760473484754e-01 7.499067351028551265e+00 -8.493051551203175009e+00
5.367001392843067542e+00 -2.601921988096137284e+00 -9.723040594514740231e-01 -2.601921988096137284e+00 1.709845217602135037e+01 7.177975134407789781e+00 -9.723040594514740231e-01 7.177975134407789781e+00 -8.419504186398977907e+00
5.487659990592850257e+00 -2.669600639310540480e+00 -9.951866583107589204e-01 -2.669600639310540480e+00 1.711548400842720241e+01 6.838648627245042633e+00 -9.951866583107589204e-01 6.838648627245042633e+00 -8.310188178828857630e+00
-1.057106565829018940e+01 1.838244340016556011e+00 -7.846462840804798944e+00 1.838244340016556011e+00 -4.782443098440109175e+00 -2.331108958340240633e+01 -7.846462840804798944e+00 -2.331108958340240633e+01 1.228282521249317938e+01
-1.057259505544123890e+01 1.881832158821461265e+00 -7.867364601869138774e+00 1.881832158821461265e+00 -4.906215025021455567e+00 -2.321896161216062637e+01 -7.867364601869138774e+00 -2.321896161216062637e+01 1.211291647185517917e+01
-1.058066080470212889e+01 1.919721152527813501e+00 -7.874101232177332932e+00 1.919721152527813501e+00 -5.044406981884125507e+00 -2.308391948514476155e+01 -7.874101232177332932e+00 -2.308391948514476155e+01 1.189747175175557814e+01
-1.058909069614184162e+01 1.951711042937261276e+00 -7.866217554005851653e+00 1.951711042937261276e+00 -5.189936403650042607e+00 -2.290610885922633599e+01 -7.866217554005851653e+00 -2.290610885922633599e+01 1.165207633744793014e+01
-1.060101635249823815e+01 1.977601551851453143e+00 -7.843604324701051844e+00 1.977601551851453143e+00 -5.344551172777551429e+00 -2.268667678226864481e+01 -7.843604324701051844e+00 -2.268667678226864481e+01 1.137174148108238114e+01
-1.061747557898095984e+01 1.997392679270388660e+00 -7.806043058955637548e+00 1.997392679270388660e+00 -5.507996389741474097e+00 -2.242669747369920685e+01 -7.806043058955637548e+00 -2.242669747369920685e+01 1.105695877460034104e+01
-1.064045295046458151e+01 2.011066218085126867e+00 -7.753315271462319913e+00 2.011066218085126867e+00 -5.680872889136868942e+00 -2.212739080981706863e+01 -7.753315271462319913e+00 -2.212739080981706863e+01 1.070676324122793233e+01
-1.067142324277332932e+01 2.018749618058255813e+00 -7.685238891131684014e+00 2.018749618058255813e+00 -5.863180670963734187e+00 -2.179004949535704938e+01 -7.685238891131684014e+00 -2.179004949535704938e+01 1.032080894589527809e+01
-1.071075059808602425e+01 2.020624950279184873e+00 -7.601704675310087644e+00 2.020624950279184873e+00 -6.053900137121369873e+00 -2.141562029998408789e+01 -7.601704675310087644e+00 -2.141562029998408789e+01 9.900406800446129196e+00
-1.076360583534193260e+01 2.016783250292621066e+00 -7.502057168075648264e+00 2.016783250292621066e+00 -6.256709123615872059e+00 -2.100574186350287675e+01 -7.502057168075648264e+00 -2.100574186350287675e+01 9.439530251820997364e+00
4.189755467790219967e+01 1.414419603399949921e+01 1.418466336260462146e+00 1.414419603399949921e+01 3.536638724698778447e+01 -2.674219424067979745e+01 1.418466336260462146e+00 -2.674219424067979745e+01 5.330859771414972670e+01
4.192301104871705064e+01 1.402011352000729083e+01 1.358007455575199973e+00 1.402011352000729083e+01 3.531109919162428668e+01 -2.681560612526473264e+01 1.358007455575199973e+00 -2.681560612526473264e+01 5.327426965975606521e+01
4.185592866937547996e+01 1.387514017996594440e+01 1.305002172594556864e+00 1.387514017996594440e+01 3.518286618239053354e+01 -2.683141259464297335e+01 1.305002172594556864e+00 -2.683141259464297335e+01 5.301590133096950552e+01
4.169252021296957622e+01 1.371098809316259448e+01 1.259346724937493889e+00 1.371098809316259448e+01 3.497885204753811905e+01 -2.678999411087832883e+01 1.259346724937493889e+00 -2.678999411087832883e+01 5.253254157263052093e+01
4.143605419450205574e+01 1.352919640158265224e+01 1.220539594428990293e+00 1.352919640158265224e+01 3.470275764532409113e+01 -2.669169654857425655e+01 1.220539594428990293e+00 -2.669169654857425655e+01 5.182974167212469752e+01
4.108630579548067630e+01 1.333230728356156725e+01 1.188061969163852316e+00 1.333230728356156725e+01 3.435454838828812996e+01 -2.653740188796959387e+01 1.188061969163852316e+00 -2.653740188796959387e+01 5.090940393977106737e+01
4.064484874535119019e+01 1.312277644878392557e+01 1.161049162633423393e+00 1.312277644878392557e+01 3.393567694976474769e+01 -2.632823422152558734e+01 1.161049162633423393e+00 -2.632823422152558734e+01 4.977692401938365663e+01
4.011450192213181509e+01 1.290324983796621439e+01 1.138636488329047181e+00 1.290324983796621439e+01 3.344844339586698823e+01 -2.606576727868799637e+01 1.138636488329047181e+00 -2.606576727868799637e+01 4.843923669676188126e+01
3.949792856026921584e+01 1.267659821031717371e+01 1.119423154106699680e+00 1.267659821031717371e+01 3.289436957485007440e+01 -2.575205901334742009e+01 1.119423154106699680e+00 -2.575205901334742009e+01 4.690459108119833331e+01
3.879879493056009210e+01 1.244591714353779466e+01 1.102544473457724994e+00 1.244591714353779466e+01 3.227592849012877707e+01 -2.538965160383930453e+01 1.102544473457724994e+00 -2.538965160383930453e+01 4.518146110047784703e+01
2.592010762510392752e+01 -7.283217274903972527e-01 -1.076382086082430156e+01 -7.283217274903972527e-01 5.666557713277332908e+01 -1.965262633875520848e+01 -1.076382086082430156e+01 -1.965262633875520848e+01 5.791840145884887647e+01
2.586869627424566431e+01 -7.604365927718322871e-01 -1.055459182435555299e+01 -7.604365927718322871e-01 5.641865103340984433e+01 -1.971409942852138997e+01 -1.055459182435555299e+01 -1.971409942852138997e+01 5.753851912806005942e+01
2.574742130819629438e+01 -7.925170000433086059e-01 -1.031982940250746772e+01 -7.925170000433086059e-01 5.605013984590737408e+01 -1.972528105275296539e+01 -1.031982940250746772e+01 -1.972528105275296539e+01 5.691110768273348697e+01
2.556298480989277522e+01 -8.241322241803435977e-01 -1.005980925935971193e+01 -8.241322241803435977e-01 5.556870975977049909e+01 -1.968646410453457563e+01 -1.005980925935971193e+01 -1.968646410453457563e+01 5.605076009008662652e+01
2.531312977968281075e+01 -8.547998530435164666e-01 -9.775858028295694169e+00 -8.547998530435164666e-01 5.497666946166644664e+01 -1.959857895013510998e+01 -9.775858028295694169e+00 -1.959857895013510998e+01 5.495937154066722030e+01
2.499756332448176011e+01 -8.840719325033651321e-01 -9.469250655683881135e+00 -8.840719325033651321e-01 5.427886030199441336e+01 -1.946300390995291707e+01 -9.469250655683881135e+00 -1.946300390995291707e+01 5.364459171268607207e+01
2.461576857414023678e+01 -9.117244854951587207e-01 -9.141692813017229469e+00 -9.117244854951587207e-01 5.348067495931291404e+01 -1.928196152563032228e+01 -9.141692813017229469e+00 -1.928196152563032228e+01 5.211379462027432652e+01
2.416915830706654944e+01 -9.373267868944141767e-01 -8.795045232833500037e+00 -9.373267868944141767e-01 5.259027998198214249e+01 -1.905819120895903396e+01 -8.795045232833500037e+00 -1.905819120895903396e+01 5.038071178040049602e+01
2.365893855360924292e+01 -9.607582336662767730e-01 -8.431616601799920119e+00 -9.607582336662767730e-01 5.161610035343697689e+01 -1.879488032586023039e+01 -8.431616601799920119e+00 -1.879488032586023039e+01 4.845814434376420365e+01
2.308647040516169113e+01 -9.818637647659321788e-01 -8.053870667628535429e+00 -9.818637647659321788e-01 5.056726744631646397e+01 -1.849593986046421179e+01 -8.053870667628535429e+00 -1.849593986046421179e+01 4.636216697201114556e+01
2.627555656024954800e+01 4.993802221688717680e+00 2.444051801289498727e+01 4.993802221688717680e+00 2.597655900113957195e+00 -1.757365052243110881e+01 2.444051801289498727e+01 -1.757365052243110881e+01 1.892374155503986799e+01
2.614447474853613684e+01 5.045181022259803250e+00 2.440256250256319248e+01 5.045181022259803250e+00 2.484999957628221789e+00 -1.754689295581352937e+01 2.440256250256319248e+01 -1.754689295581352937e+01 1.858903163489538102e+01
2.598065363874572142e+01 5.090489077510466309e+00 2.430786955722791731e+01 5.090489077510466309e+00 2.365988425466852618e+00 -1.749246988119612922e+01 2.430786955722791731e+01 -1.749246988119612922e+01 1.818412538396371758e+01
2.578571328314856359e+01 5.128907459919476608e+00 2.415699106282737674e+01 5.128907459919476608e+00 2.240710317490854031e+00 -1.741146726768315744e+01 2.415699106282737674e+01 -1.741146726768315744e+01 1.771169321807497710e+01
2.556095328411531398e+01 5.159528228104599989e+00 2.395053231361639945e+01 5.159528228104599989e+00 2.108791775484011755e+00 -1.730491767606224585e+01 2.395053231361639945e+01 -1.730491767606224585e+01 1.717451236969245798e+01
2.530610660006296087e+01 5.181835101672019661e+00 2.368936564543280809e+01 5.181835101672019661e+00 1.968167677871049293e+00 -1.717385366712103334e+01 2.368936564543280809e+01 -1.717385366712103334e+01 1.657167489743392608e+01
2.502225920009574267e+01 5.195187180822509632e+00 2.337445240797545409e+01 5.195187180822509632e+00 1.818036899902938153e+00 -1.701916537946955543e+01 2.337445240797545409e+01 -1.701916537946955543e+01 1.590558417554647619e+01
2.470916184540284632e+01 5.199424240606265180e+00 2.300702099252616151e+01 5.199424240606265180e+00 1.656013870104790620e+00 -1.684168954340124102e+01 2.300702099252616151e+01 -1.684168954340124102e+01 1.517561710700308097e+01
2.436864822152094590e+01 5.194243633895875512e+00 2.258785472106177394e+01 5.194243633895875512e+00 1.482365630059615969e+00 -1.664183562267670169e+01 2.258785472106177394e+01 -1.664183562267670169e+01 1.438360737734040740e+01
2.399781647658133465e+01 5.179716571780141443e+00 2.211944598169038301e+01 5.179716571780141443e+00 1.290968026130389967e+00 -1.642063617808358345e+01 2.211944598169038301e+01 -1.642063617808358345e+01 1.353028490021868180e+01
5.412011858691507626e+01 7.604497254018099950e-01 8.745506963132484657e+00 7.604497254018099950e-01 4.143487745352477702e+01 1.488849852103042792e+01 8.745506963132484657e+00 1.488849852103042792e+01 4.004326597045371727e+01
5.401927294094210907e+01 6.908820405179363355e-01 8.973732964925430267e+00 6.908820405179363355e-01 4.139213663526732034e+01 1.478021147002912450e+01 8.973732964925430267e+00 1.478021147002912450e+01 3.985729958751685587e+01
5.385827736979781122e+01 6.211253130120956145e-01 9.182882847592608755e+00 6.211253130120956145e-01 4.130144773380185796e+01 1.463435649433509411e+01 9.182882847592608755e+00 1.463435649433509411e+01 3.951923982236105815e+01
5.363106532388632530e+01 5.519528990650621747e-01 9.372303554803592007e+00 5.519528990650621747e-01 4.115512874439936297e+01 1.445193036413689214e+01 9.372303554803592007e+00 1.445193036413689214e+01 3.901521782081109535e+01
5.334683114891241473e+01 4.844303116370137774e-01 9.541307658842132611e+00 4.844303116370137774e-01 4.096211622737100555e+01 1.423367206422948250e+01 9.541307658842132611e+00 1.423367206422948250e+01 3.836652665637762283e+01
5.299729134089534455e+01 4.189528216647907533e-01 9.689173360606176288e+00 4.189528216647907533e-01 4.071189253865825464e+01 1.398102519281697553e+01 9.689173360606176288e+00 1.398102519281697553e+01 3.755601500754035982e+01
5.259212144494124175e+01 3.567062419589136502e-01 9.815196046686573084e+00 3.567062419589136502e-01 4.041382388089493816e+01 1.369476310608014558e+01 9.815196046686573084e+00 1.369476310608014558e+01 3.660250120803147666e+01
5.212403472725792142e+01 2.977936866768189916e-01 9.918739846445797426e+00 2.977936866768189916e-01 4.005809722343167323e+01 1.337657000192379186e+01 9.918739846445797426e+00 1.337657000192379186e+01 3.549579414195765992e+01
5.160262080448698896e+01 2.433837829361213401e-01 9.999254817710854226e+00 2.433837829361213401e-01 3.965401002613065629e+01 1.302727079360740525e+01 9.999254817710854226e+00 1.302727079360740525e+01 3.424720199525111752e+01
5.102351451063029941e+01 1.935280878155389572e-01 1.005636287523780759e+01 1.935280878155389572e-01 3.919461926905782434e+01 1.264865279319321978e+01 1.005636287523780759e+01 1.264865279319321978e+01 3.285387194288944102e+01
-3.174713238204688537e+01 3.252531146496466796e+00 -6.429940719323845144e+00 3.252531146496466796e+00 -2.892982910220802495e+01 1.636152759857706940e+01 -6.429940719323845144e+00 1.636152759857706940e+01 -2.226868003771205906e+01
-3.171849674466027125e+01 3.259182731558712742e+00 -6.520695396868042337e+00 3.259182731558712742e+00 -2.900701755259136760e+01 1.626827387918745060e+01 -6.520695396868042337e+00 1.626827387918745060e+01 -2.234566180042397932e+01
-3.165342770773779790e+01 3.265157884241746356e+00 -6.598842126455270574e+00 3.265157884241746356e+00 -2.905040317380245440e+01 1.614918420086961959e+01 -6.598842126455270574e+00 1.614918420086961959e+01 -2.233688696928253847e+01
-3.155104215122882394e+01 3.270306286239077487e+00 -6.664756703851759667e+00 3.270306286239077487e+00 -2.905934711303869378e+01 1.600429614320020377e+01 -6.664756703851759667e+00 1.600429614320020377e+01 -2.224077720206958730e+01
-3.141244867264373397e+01 3.274552778397460173e+00 -6.718420339269196795e+00 3.274552778397460173e+00 -2.903405605797151168e+01 1.583379760406230652e+01 -6.718420339269196795e+00 1.583379760406230652e+01 -2.205740765793836289e+01
-3.123839886351497697e+01 3.277916150505206350e+00 -6.760002140802386705e+00 3.277916150505206350e+00 -2.897486822479051582e+01 1.563791406091567104e+01 -6.760002140802386705e+00 1.563791406091567104e+01 -2.178786814461092902e+01
-3.103097839034512972e+01 3.280283663832446184e+00 -6.789727585911065511e+00 3.280283663832446184e+00 -2.888291100079439033e+01 1.541672067291354509e+01 -6.789727585911065511e+00 1.541672067291354509e+01 -2.143514623842881051e+01
-3.079163406683415616e+01 3.281674108167491610e+00 -6.807859731631593192e+00 3.281674108167491610e+00 -2.875938693243505995e+01 1.517034896857410153e+01 -6.807859731631593192e+00 1.517034896857410153e+01 -2.100153429356598878e+01
-3.052185028625867602e+01 3.281955954992163083e+00 -6.814699214576952713e+00 3.281955954992163083e+00 -2.860454028696058515e+01 1.489878015810903555e+01 -6.814699214576952713e+00 1.489878015810903555e+01 -2.048893007864192484e+01
-3.022288596443555164e+01 3.281129204306460156e+00 -6.810565461148438970e+00 3.281129204306460156e+00 -2.841955482103457697e+01 1.460186392321185167e+01 -6.810565461148438970e+00 1.460186392321185167e+01 -1.989902467460465019e+01
2.865974487324274023e+01 -4.254816914842124653e+00 -2.238074506514855244e+01 -4.254816914842124653e+00 5.886002394399130822e+01 -2.113616422807467288e+01 -2.238074506514855244e+01 -2.113616422807467288e+01 6.741814459025611939e+01
2.851098670165077564e+01 -4.176358615819830256e+00 -2.244864034886902715e+01 -4.176358615819830256e+00 5.870125237740592183e+01 -2.093256425508643304e+01 -2.244864034886902715e+01 -2.093256425508643304e+01 6.702518324539379080e+01
2.827377401167772319e+01 -4.095993821352817754e+00 -2.246466521598544830e+01 -4.095993821352817754e+00 5.839902991033142143e+01 -2.067621790812764360e+01 -2.246466521598544830e+01 -2.067621790812764360e+01 6.633109867407375759e+01
2.794776329063084219e+01 -4.014787420788586303e+00 -2.242866508578607565e+01 -4.014787420788586303e+00 5.795481647171198603e+01 -2.036868816995028553e+01 -2.242866508578607565e+01 -2.036868816995028553e+01 6.534478785503802101e+01
2.753829616088226118e+01 -3.933787127840000508e+00 -2.234031362121281106e+01 -3.933787127840000508e+00 5.737598040880692452e+01 -2.001201894107617107e+01 -2.234031362121281106e+01 -2.001201894107617107e+01 6.407471837616267862e+01
2.704484017775824611e+01 -3.854658979066859725e+00 -2.219988563241983925e+01 -3.854658979066859725e+00 5.666630036123639513e+01 -1.960978275350981548e+01 -2.219988563241983925e+01 -1.960978275350981548e+01 6.252896278572715971e+01
2.647101940016721500e+01 -3.778536566355211068e+00 -2.200767310519600173e+01 -3.778536566355211068e+00 5.583383170164519527e+01 -1.916582694940993292e+01 -2.200767310519600173e+01 -1.916582694940993292e+01 6.072308220871269668e+01
2.581966780782429538e+01 -3.707068750630218457e+00 -2.176487833396589266e+01 -3.707068750630218457e+00 5.488707636917871469e+01 -1.868518398972519634e+01 -2.176487833396589266e+01 -1.868518398972519634e+01 5.867215685233066580e+01
2.509583503731278853e+01 -3.641268894335470296e+00 -2.147294407203902011e+01 -3.641268894335470296e+00 5.383776532229407508e+01 -1.817329855063556110e+01 -2.147294407203902011e+01 -1.817329855063556110e+01 5.639854939287857150e+01
2.430579019527524665e+01 -3.582682804588306791e+00 -2.113454971841878205e+01 -3.582682804588306791e+00 5.269871158443056913e+01 -1.763638821187966954e+01 -2.113454971841878205e+01 -1.763638821187966954e+01 5.392713014931093340e+01
-3.987345651127093049e+01 -2.797681281252899055e+00 1.251714012814641563e+00 -2.797681281252899055e+00 -4.718088709869872588e+01 1.454133642625186162e+01 1.251714012814641563e+00 1.454133642625186162e+01 -6.121886920091395723e+01
-3.978196033185191993e+01 -2.867214521081127288e+00 1.202446839281329449e+00 -2.867214521081127288e+00 -4.711424625653389597e+01 1.461304860565318720e+01 1.202446839281329449e+00 1.461304860565318720e+01 -6.098248318120950984e+01
-3.960808866697917097e+01 -2.936072868121228030e+00 1.151502075103243428e+00 -2.936072868121228030e+00 -4.696262677101826455e+01 1.467184140882464227e+01 1.151502075103243428e+00 1.467184140882464227e+01 -6.051347125876303323e+01
-3.936472232758037393e+01 -3.004584127441719765e+00 1.098976133535829902e+00 -3.004584127441719765e+00 -4.673863949596427858e+01 1.471827403264781786e+01 1.098976133535829902e+00 1.471827403264781786e+01 -5.983877129714636567e+01
-3.905049224542818109e+01 -3.072381928671905627e+00 1.045158254345429194e+00 -3.072381928671905627e+00 -4.644118532025982660e+01 1.475199938940310851e+01 1.045158254345429194e+00 1.475199938940310851e+01 -5.895510524567431787e+01
-3.866618900921726265e+01 -3.139292727951980666e+00 9.905883517625435619e-01 -3.139292727951980666e+00 -4.606997500413857694e+01 1.477230402100020079e+01 9.905883517625435619e-01 1.477230402100020079e+01 -5.786380360727205385e+01
-3.821323953512821703e+01 -3.204718763098175494e+00 9.353628390426199646e-01 -3.204718763098175494e+00 -4.562705250861601058e+01 1.477882155706840628e+01 9.353628390426199646e-01 1.477882155706840628e+01 -5.657246374646877740e+01
-3.769526896156585849e+01 -3.268428642297417142e+00 8.803301528335897297e-01 -3.268428642297417142e+00 -4.511473175182283057e+01 1.477081925686632147e+01 8.803301528335897297e-01 1.477081925686632147e+01 -5.508951218179054621e+01
-3.711393559652386642e+01 -3.329766755412667756e+00 8.254517278332743624e-01 -3.329766755412667756e+00 -4.453555804370284932e+01 1.474744868374601836e+01 8.254517278332743624e-01 1.474744868374601836e+01 -5.341913324852374245e+01
-3.647537132304866248e+01 -3.388193188213425078e+00 7.717495445494099160e-01 -3.388193188213425078e+00 -4.389396639400660405e+01 1.470813135817481587e+01 7.717495445494099160e-01 1.470813135817481587e+01 -5.158005040087613935e+01
1.986988466916822560e+01 1.272455137606022912e+00 2.308920730304510016e+01 1.272455137606022912e+00 1.315848577072699532e+00 1.196031675300266350e+01 2.308920730304510016e+01 1.196031675300266350e+01 -3.325830537865862357e+00
1.982573687355187886e+01 1.182794520959645546e+00 2.305676998860933224e+01 1.182794520959645546e+00 1.390026931790155240e+00 1.187685263329999685e+01 2.305676998860933224e+01 1.187685263329999685e+01 -3.301134354394554382e+00
1.978282837732427524e+01 1.088984945490088174e+00 2.297840675334728289e+01 1.088984945490088174e+00 1.488973313421744660e+00 1.176765060020504983e+01 2.297840675334728289e+01 1.176765060020504983e+01 -3.259932139934059947e+00
1.974027909831080052e+01 9.915472761578367766e-01 2.285501564029427612e+01 9.915472761578367766e-01 1.610712027289762815e+00 1.163315967523548444e+01 2.285501564029427612e+01 1.163315967523548444e+01 -3.205061710475990200e+00
1.969862786233264629e+01 8.911999473911478287e-01 2.268735100559997875e+01 8.911999473911478287e-01 1.754362991219596157e+00 1.147417013626238003e+01 2.268735100559997875e+01 1.147417013626238003e+01 -3.135840553313502088e+00
1.965724603926508607e+01 7.887152762003964979e-01 2.247641865746394885e+01 7.887152762003964979e-01 1.917824784508594949e+00 1.129152614373894004e+01 2.247641865746394885e+01 1.129152614373894004e+01 -3.053759419885227810e+00
1.961611566824741715e+01 6.849553838994902888e-01 2.222331420838927585e+01 6.849553838994902888e-01 2.099193555921880616e+00 1.108610777983977691e+01 2.222331420838927585e+01 1.108610777983977691e+01 -2.959824118390725456e+00
1.957494937550833214e+01 5.808003526630433067e-01 2.192916919260047237e+01 5.808003526630433067e-01 2.296260119592564930e+00 1.085886697018232994e+01 2.192916919260047237e+01 1.085886697018232994e+01 -2.855417635104389174e+00
1.953358551330148529e+01 4.771661863870820808e-01 2.159509718346132345e+01 4.771661863870820808e-01 2.506743446210933701e+00 1.061073767952333569e+01 2.159509718346132345e+01 1.061073767952333569e+01 -2.741994799743436850e+00
1.949144933408425473e+01 3.750407324104588214e-01 2.122222971519634172e+01 3.750407324104588214e-01 2.727877563228201740e+00 1.034265387261952363e+01 2.122222971519634172e+01 1.034265387261952363e+01 -2.621639072149811511e+00
1.305911933719073481e+01 -1.262459162194630657e+01 -1.569176312590420608e+01 -1.262459162194630657e+01 -3.552503909451622377e+01 -1.534734373304210386e+01 -1.569176312590420608e+01 -1.534734373304210386e+01 -3.819822791708583054e+01
1.325616634612358702e+01 -1.266188934187803561e+01 -1.561443994234424792e+01 -1.266188934187803561e+01 -3.526193244232120350e+01 -1.519117576739760800e+01 -1.561443994234424792e+01 -1.519117576739760800e+01 -3.755629890050958863e+01
1.349548410431239809e+01 -1.268979768554834386e+01 -1.551659373478205417e+01 -1.268979768554834386e+01 -3.493079920242980307e+01 -1.502352158850050934e+01 -1.551659373478205417e+01 -1.502352158850050934e+01 -3.677417870279692380e+01
1.377326861544572445e+01 -1.270796408744544159e+01 -1.539816883497892341e+01 -1.270796408744544159e+01 -3.453592582922225063e+01 -1.484426985987339265e+01 -1.539816883497892341e+01 -1.484426985987339265e+01 -3.585943820441158891e+01
1.408746015469151480e+01 -1.271572052870487468e+01 -1.525890545782089802e+01 -1.271572052870487468e+01 -3.407922359889403197e+01 -1.465351336191410248e+01 -1.525890545782089802e+01 -1.465351336191410248e+01 -3.481771845354226969e+01
1.443638867488864719e+01 -1.271254743909874207e+01 -1.509895205194452750e+01 -1.271254743909874207e+01 -3.356245533900411004e+01 -1.445123353854306636e+01 -1.509895205194452750e+01 -1.445123353854306636e+01 -3.365304611945521174e+01
1.481639862836222044e+01 -1.269779535584216212e+01 -1.491801172007672172e+01 -1.269779535584216212e+01 -3.298953638234135610e+01 -1.423757883839683203e+01 -1.491801172007672172e+01 -1.423757883839683203e+01 -3.237523736824191189e+01
1.522565296323499773e+01 -1.267085192830939100e+01 -1.471638135949056903e+01 -1.267085192830939100e+01 -3.236239656118083730e+01 -1.401254926147539948e+01 -1.471638135949056903e+01 -1.401254926147539948e+01 -3.098861576644171478e+01
1.566023634671813269e+01 -1.263110480587468309e+01 -1.449387540939038743e+01 -1.263110480587468309e+01 -3.168573056365325513e+01 -1.377627470033574397e+01 -1.449387540939038743e+01 -1.377627470033574397e+01 -2.950576233600174447e+01
1.611617777778405980e+01 -1.257812719870797302e+01 -1.425103199608365045e+01 -1.257812719870797302e+01 -3.096427019004846670e+01 -1.352894071577354751e+01 -1.425103199608365045e+01 -1.352894071577354751e+01 -2.793465619113624854e+01