 vasp.6.1.1 19Jun20 (build Dec 21 2021 08:45:49) complex                        
  
 executed on             LinuxIFC date 2023.10.06  04:54:28
 running on   40 total cores
 distrk:  each k-point on   40 cores,    1 groups
 distr:  one band on NCORE=   1 cores,   40 groups


--------------------------------------------------------------------------------------------------------


 INCAR:
 POTCAR:   PAW_PBE Te 08Apr2002                   
 POTCAR:   PAW_PBE Mo 08Apr2002                   
 -----------------------------------------------------------------------------
|                                                                             |
|           W    W    AA    RRRRR   N    N  II  N    N   GGGG   !!!           |
|           W    W   A  A   R    R  NN   N  II  NN   N  G    G  !!!           |
|           W    W  A    A  R    R  N N  N  II  N N  N  G       !!!           |
|           W WW W  AAAAAA  RRRRR   N  N N  II  N  N N  G  GGG   !            |
|           WW  WW  A    A  R   R   N   NN  II  N   NN  G    G                |
|           W    W  A    A  R    R  N    N  II  N    N   GGGG   !!!           |
|                                                                             |
|     For optimal performance we recommend to set                             |
|       NCORE = 4 - approx SQRT(number of cores).                             |
|     NCORE specifies how many cores store one orbital (NPAR=cpu/NCORE).      |
|     This setting can greatly improve the performance of VASP for DFT.       |
|     The default, NCORE=1 might be grossly inefficient on modern             |
|     multi-core architectures or massively parallel machines. Do your        |
|     own testing!!!!                                                         |
|     Unfortunately you need to use the default for GW and RPA                |
|     calculations (for HF NCORE is supported but not extensively tested      |
|     yet).                                                                   |
|                                                                             |
 -----------------------------------------------------------------------------

 POTCAR:   PAW_PBE Te 08Apr2002                   
   VRHFIN =Te: s2p4                                                                                 
   LEXCH  = PE                                                                                      
   EATOM  =   223.2721 eV,   16.4100 Ry                                                             
                                                                                                    
   TITEL  = PAW_PBE Te 08Apr2002                                                                    
   LULTRA =        F    use ultrasoft PP ?                                                          
   IUNSCR =        1    unscreen: 0-lin 1-nonlin 2-no                                               
   RPACOR =    2.200    partial core radius                                                         
   POMASS =  127.600; ZVAL   =    6.000    mass and valenz                                          
   RCORE  =    2.300    outmost cutoff radius                                                       
   RWIGS  =    2.900; RWIGS  =    1.535    wigner-seitz radius (au A)                               
   ENMAX  =  174.982; ENMIN  =  131.236 eV                                                          
   ICORE  =        3    local potential                                                             
   LCOR   =        T    correct aug charges                                                         
   LPAW   =        T    paw PP                                                                      
   EAUG   =  368.792                                                                                
   DEXC   =    -.169                                                                                
   RMAX   =    3.486    core radius for proj-oper                                                   
   RAUG   =    1.300    factor for augmentation sphere                                              
   RDEP   =    2.397    radius for radial grids                                                     
   QCUT   =   -3.586; QGAM   =    7.172    optimization parameters                                  
                                                                                                    
   Description                                                                                      
     l     E      TYP  RCUT    TYP  RCUT                                                            
     0   .000     23  2.300                                                                         
     0   .000     23  2.300                                                                         
     1   .000     23  2.300                                                                         
     1   .000     23  2.300                                                                         
     2   .000     23  2.300                                                                         
     3  -.100     23  2.300                                                                         
  local pseudopotential read in
  partial core-charges read in
  atomic valenz-charges read in
  non local Contribution for L=           0  read in
    real space projection operators read in
  non local Contribution for L=           0  read in
    real space projection operators read in
  non local Contribution for L=           1  read in
    real space projection operators read in
  non local Contribution for L=           1  read in
    real space projection operators read in
  non local Contribution for L=           2  read in
    real space projection operators read in
    PAW grid and wavefunctions read in
 
   number of l-projection  operators is LMAX  =           5
   number of lm-projection operators is LMMAX =          13
 
 POTCAR:   PAW_PBE Mo 08Apr2002                   
   VRHFIN =Mo: 4p5s4d                                                                               
   LEXCH  = PE                                                                                      
   EATOM  =   217.5180 eV,   15.9871 Ry                                                             
                                                                                                    
   TITEL  = PAW_PBE Mo 08Apr2002                                                                    
   LULTRA =        F    use ultrasoft PP ?                                                          
   IUNSCR =        1    unscreen: 0-lin 1-nonlin 2-no                                               
   RPACOR =    2.200    partial core radius                                                         
   POMASS =   95.940; ZVAL   =    6.000    mass and valenz                                          
   RCORE  =    2.750    outmost cutoff radius                                                       
   RWIGS  =    2.750; RWIGS  =    1.455    wigner-seitz radius (au A)                               
   ENMAX  =  224.584; ENMIN  =  168.438 eV                                                          
   RCLOC  =    2.111    cutoff for local pot                                                        
   LCOR   =        T    correct aug charges                                                         
   LPAW   =        T    paw PP                                                                      
   EAUG   =  345.278                                                                                
   DEXC   =    -.088                                                                                
   RMAX   =    3.077    core radius for proj-oper                                                   
   RAUG   =    1.300    factor for augmentation sphere                                              
   RDEP   =    2.815    radius for radial grids                                                     
   QCUT   =   -4.063; QGAM   =    8.126    optimization parameters                                  
                                                                                                    
   Description                                                                                      
     l     E      TYP  RCUT    TYP  RCUT                                                            
     2   .000     23  2.500                                                                         
     2   .000     23  2.500                                                                         
     0   .000     23  2.600                                                                         
     0  1.000     23  2.600                                                                         
     1   .400     23  2.750                                                                         
     1  2.000     23  2.750                                                                         
     3   .000      7   .000                                                                         
  local pseudopotential read in
  partial core-charges read in
  atomic valenz-charges read in
  non local Contribution for L=           2  read in
    real space projection operators read in
  non local Contribution for L=           2  read in
    real space projection operators read in
  non local Contribution for L=           0  read in
    real space projection operators read in
  non local Contribution for L=           0  read in
    real space projection operators read in
  non local Contribution for L=           1  read in
    real space projection operators read in
  non local Contribution for L=           1  read in
    real space projection operators read in
    PAW grid and wavefunctions read in
 
   number of l-projection  operators is LMAX  =           6
   number of lm-projection operators is LMMAX =          18
 
 -----------------------------------------------------------------------------
|                                                                             |
|               ----> ADVICE to this user running VASP <----                  |
|                                                                             |
|     You have a (more or less) 'large supercell' and for larger cells it     |
|     might be more efficient to use real-space projection operators.         |
|     Therefore, try LREAL= Auto in the INCAR file.                           |
|     Mind: If you want to do very accurate calculations, keep the            |
|     reciprocal projection scheme (i.e. LREAL=.FALSE.).                      |
|                                                                             |
 -----------------------------------------------------------------------------

 PAW_PBE Te 08Apr2002                   :
 energy of atom  1       EATOM= -223.2721
 kinetic energy error for atom=    0.0006 (will be added to EATOM!!)
 PAW_PBE Mo 08Apr2002                   :
 energy of atom  2       EATOM= -217.5180
 kinetic energy error for atom=    0.0009 (will be added to EATOM!!)
 
 
 POSCAR: Te Mo
  positions in cartesian coordinates
  No initial velocities read in
 exchange correlation table for  LEXCH =        8
   RHO(1)=    0.500       N(1)  =     2000
   RHO(2)=  100.500       N(2)  =     4000
 


--------------------------------------------------------------------------------------------------------


 ion  position               nearest neighbor table
   1  0.223  0.112  0.678-  37 2.69  41 2.74  40 2.76   5 3.43   9 3.44   4 3.53   7 3.55   2 3.61
                             3 3.61  19 3.63
   2  0.222  0.444  0.677-  38 2.67  42 2.74  41 2.75   7 3.43   6 3.44   8 3.54   5 3.54   1 3.61
                             3 3.62  20 3.62
   3  0.223  0.778  0.677-  39 2.68  40 2.73  42 2.75   4 3.43   8 3.44   6 3.54   9 3.55   1 3.61
                            21 3.61   2 3.62
   4  0.555  0.112  0.677-  40 2.67  44 2.74  43 2.76   8 3.42   3 3.43   1 3.53   7 3.54   5 3.61
                            22 3.61   6 3.62
   5  0.557  0.445  0.677-  41 2.68  45 2.74  44 2.75   9 3.42   1 3.43   8 3.53   2 3.54   4 3.61
                            23 3.62   6 3.62
   6  0.556  0.779  0.677-  42 2.68  43 2.74  45 2.75   7 3.42   2 3.44   9 3.53   3 3.54   4 3.62
                             5 3.62  24 3.62
   7  0.888  0.111  0.677-  43 2.67  38 2.75  37 2.75   6 3.42   2 3.43   4 3.54   1 3.55   8 3.61
                            25 3.61   9 3.62
   8  0.888  0.444  0.678-  44 2.67  39 2.75  38 2.76   4 3.42   3 3.44   5 3.53   2 3.54   7 3.61
                             9 3.62  26 3.62
   9  0.888  0.777  0.677-  45 2.67  37 2.74  39 2.76   5 3.42   1 3.44   6 3.53   3 3.55  27 3.61
                             7 3.62   8 3.62
  10  0.111  0.222  0.443-  52 2.67  47 2.74  46 2.75  18 3.43  14 3.43  13 3.53  16 3.55  12 3.61
                            28 3.61  11 3.61
  11  0.110  0.555  0.443-  53 2.67  47 2.75  48 2.75  16 3.43  15 3.44  17 3.53  14 3.54  10 3.61
                            12 3.62  29 3.63
  12  0.111  0.889  0.443-  54 2.68  46 2.74  48 2.75  13 3.43  17 3.43  18 3.54  15 3.54  10 3.61
                            30 3.61  11 3.62
  13  0.444  0.222  0.444-  46 2.68  50 2.75  49 2.76  12 3.43  17 3.43  10 3.53  16 3.53  15 3.61
                            14 3.61  31 3.62
  14  0.444  0.556  0.443-  47 2.67  51 2.74  50 2.75  18 3.43  10 3.43  11 3.54  17 3.54  32 3.61
                            13 3.61  15 3.62
  15  0.444  0.889  0.443-  48 2.67  49 2.74  51 2.75  16 3.42  11 3.44  12 3.54  18 3.54  13 3.61
                            33 3.61  14 3.62
  16  0.777  0.222  0.443-  49 2.67  53 2.75  52 2.76  15 3.42  11 3.43  13 3.53  10 3.55  17 3.61
                            34 3.61  18 3.62
  17  0.778  0.555  0.443-  50 2.68  54 2.74  53 2.75  12 3.43  13 3.43  11 3.53  14 3.54  16 3.61
                            18 3.61  35 3.62
  18  0.778  0.888  0.444-  51 2.68  52 2.75  54 2.76  14 3.43  10 3.43  12 3.54  15 3.54  17 3.61
                            16 3.62  36 3.62
  19  0.222  0.110  0.556-  37 2.70  41 2.71  40 2.78  27 3.43  23 3.44  22 3.53  25 3.53  21 3.61
                            20 3.62   1 3.63
  20  0.222  0.444  0.557-  38 2.69  42 2.69  41 2.78  25 3.43  24 3.43  23 3.54  26 3.54  21 3.61
                             2 3.62  19 3.62
  21  0.222  0.777  0.557-  39 2.69  40 2.70  42 2.77  26 3.43  22 3.44  27 3.54  24 3.54  20 3.61
                            19 3.61   3 3.61
  22  0.555  0.111  0.557-  44 2.69  40 2.69  43 2.77  26 3.43  21 3.44  19 3.53  25 3.55   4 3.61
                            23 3.61  24 3.61
  23  0.556  0.445  0.557-  45 2.69  41 2.70  44 2.78  27 3.43  19 3.44  26 3.54  20 3.54  22 3.61
                            24 3.61   5 3.62
  24  0.555  0.778  0.557-  43 2.70  42 2.71  45 2.78  20 3.43  25 3.44  21 3.54  27 3.54  23 3.61
                            22 3.61   6 3.62
  25  0.890  0.111  0.557-  38 2.70  43 2.70  37 2.77  20 3.43  24 3.44  19 3.53  22 3.55  27 3.61
                             7 3.61  26 3.62
  26  0.889  0.444  0.557-  44 2.69  39 2.69  38 2.77  22 3.43  21 3.43  23 3.54  20 3.54  25 3.62
                            27 3.62   8 3.62
  27  0.889  0.778  0.557-  37 2.70  45 2.70  39 2.78  19 3.43  23 3.43  21 3.54  24 3.54  25 3.61
                             9 3.61  26 3.62
  28  0.111  0.223  0.323-  47 2.69  52 2.70  46 2.78  32 3.42  36 3.44  31 3.54  34 3.54  29 3.60
                            10 3.61  30 3.62
  29  0.111  0.555  0.322-  53 2.70  48 2.71  47 2.78  34 3.43  33 3.43  32 3.54  35 3.54  28 3.60
                            30 3.62  11 3.63
  30  0.111  0.889  0.323-  46 2.70  54 2.70  48 2.78  31 3.43  35 3.43  36 3.54  33 3.54  12 3.61
                            29 3.62  28 3.62
  31  0.444  0.222  0.323-  46 2.70  50 2.70  49 2.78  30 3.43  35 3.43  28 3.54  34 3.54  32 3.61
                            33 3.62  13 3.62
  32  0.444  0.556  0.323-  51 2.70  47 2.70  50 2.78  28 3.42  36 3.43  29 3.54  35 3.54  33 3.61
                            31 3.61  14 3.61
  33  0.445  0.888  0.323-  49 2.70  48 2.70  51 2.77  34 3.43  29 3.43  36 3.54  30 3.54  32 3.61
                            15 3.61  31 3.62
  34  0.777  0.222  0.323-  49 2.69  53 2.70  52 2.77  33 3.43  29 3.43  28 3.54  31 3.54  36 3.61
                            35 3.61  16 3.61
  35  0.778  0.556  0.323-  54 2.69  50 2.70  53 2.77  30 3.43  31 3.43  29 3.54  32 3.54  36 3.61
                            34 3.61  17 3.62
  36  0.778  0.889  0.323-  52 2.70  51 2.70  54 2.77  32 3.43  28 3.44  33 3.54  30 3.54  34 3.61
                            35 3.61  18 3.62
  37  0.999  0.000  0.617-   1 2.69  27 2.70  19 2.70   9 2.74   7 2.75  25 2.77  45 3.43  41 3.44

  38  0.001  0.334  0.617-   2 2.67  20 2.69  25 2.70   7 2.75   8 2.76  26 2.77  42 3.41  43 3.44

  39  1.000  0.666  0.617-   3 2.68  26 2.69  21 2.69   8 2.75   9 2.76  27 2.78  44 3.42  40 3.43

  40  0.334  1.000  0.617-   4 2.67  22 2.69  21 2.70   3 2.73   1 2.76  19 2.78  39 3.43  44 3.43

  41  0.334  0.333  0.617-   5 2.68  23 2.70  19 2.71   1 2.74   2 2.75  20 2.78  45 3.43  37 3.44

  42  0.332  0.666  0.617-   6 2.68  20 2.69  24 2.71   2 2.74   3 2.75  21 2.77  38 3.41  43 3.44

  43  0.667  1.000  0.617-   7 2.67  24 2.70  25 2.70   6 2.74   4 2.76  22 2.77  42 3.44  38 3.44

  44  0.667  0.333  0.617-   8 2.67  26 2.69  22 2.69   4 2.74   5 2.75  23 2.78  39 3.42  40 3.43

  45  0.667  0.667  0.617-   9 2.67  23 2.69  27 2.70   5 2.74   6 2.75  24 2.78  37 3.43  41 3.43

  46  0.222  0.111  0.383-  13 2.68  31 2.70  30 2.70  12 2.74  10 2.75  28 2.78  50 3.43  54 3.43

  47  0.222  0.445  0.383-  14 2.67  28 2.69  32 2.70  10 2.74  11 2.75  29 2.78  51 3.43  52 3.43

  48  0.222  0.778  0.383-  15 2.67  33 2.70  29 2.71  11 2.75  12 2.75  30 2.78  53 3.42  49 3.43

  49  0.556  0.111  0.383-  16 2.67  34 2.69  33 2.70  15 2.74  13 2.76  31 2.78  48 3.43  53 3.44

  50  0.556  0.444  0.383-  17 2.68  31 2.70  35 2.70  13 2.75  14 2.75  32 2.78  54 3.43  46 3.43

  51  0.555  0.778  0.383-  18 2.68  32 2.70  36 2.70  14 2.74  15 2.75  33 2.77  47 3.43  52 3.43

  52  0.889  0.111  0.383-  10 2.67  36 2.70  28 2.70  18 2.75  16 2.76  34 2.77  47 3.43  51 3.43

  53  0.889  0.445  0.383-  11 2.67  29 2.70  34 2.70  17 2.75  16 2.75  35 2.77  48 3.42  49 3.44

  54  0.889  0.778  0.383-  12 2.68  35 2.69  30 2.70  17 2.74  18 2.76  36 2.77  50 3.43  46 3.43

 

IMPORTANT INFORMATION: All symmetrisations will be switched off!
NOSYMM: (Re-)initialisation of all symmetry stuff for point group C_1.


----------------------------------------------------------------------------------------

                                     Primitive cell                                     

  volume of cell :    2900.1414

  direct lattice vectors                    reciprocal lattice vectors
    10.614820082  0.000000000  0.000000000     0.094207909  0.060431132  0.001028775
    -5.852963815  9.124361292  0.000000000     0.000000000  0.109596712  0.001857499
    -0.001448880 -0.507498947 29.943603516     0.000000000  0.000000000  0.033396114

  length of vectors
    10.614820082 10.840256197 29.947903914     0.111929041  0.109612452  0.033396114

  position of ions in fractional coordinates (direct lattice)
     0.222823605  0.111570967  0.677570455
     0.222210258  0.444384254  0.677455410
     0.222821770  0.778288648  0.677410476
     0.555204432  0.111563743  0.677409055
     0.556529198  0.445139552  0.677360976
     0.556314834  0.778590918  0.677329395
     0.888489560  0.111066339  0.677230011
     0.888238552  0.443815860  0.677692473
     0.888351911  0.777496972  0.677258210
     0.111062511  0.221915395  0.443239404
     0.110231686  0.554560979  0.443414283
     0.110953291  0.889048144  0.443240138
     0.443967989  0.222055226  0.443503159
     0.444355741  0.555688712  0.443169849
     0.444407886  0.889387535  0.443233284
     0.776834806  0.221935989  0.443373372
     0.777824441  0.555493310  0.443356479
     0.777500327  0.888494365  0.443597425
     0.222101333  0.110337992  0.556448922
     0.222187480  0.444435932  0.556634211
     0.221722051  0.776988304  0.556720238
     0.555279366  0.111115757  0.556814926
     0.555580323  0.444507448  0.556640395
     0.555327881  0.777739239  0.556535890
     0.889752121  0.111094705  0.556615248
     0.888514513  0.443976211  0.556772148
     0.888987983  0.777808029  0.556644799
     0.111461187  0.223086179  0.322739663
     0.110888026  0.555059779  0.322369321
     0.111112931  0.888925402  0.322548326
     0.444038814  0.222151074  0.322508270
     0.444424409  0.555564341  0.322553676
     0.444511678  0.888442124  0.322573329
     0.777425896  0.221923636  0.322680777
     0.777806235  0.555543337  0.322549008
     0.777810789  0.888898410  0.322592169
     0.999452680  0.000032589  0.616951130
     0.000933826  0.334294077  0.616978970
     0.999799131  0.666133112  0.617018613
     0.333617683  0.999634604  0.617178135
     0.333620329  0.333421475  0.617075880
     0.332481746  0.665718529  0.617086746
     0.666687134  0.999998947  0.617005518
     0.667166224  0.333394097  0.617007238
     0.666586660  0.666812950  0.616907255
     0.222221432  0.111109872  0.382946364
     0.221785047  0.444853393  0.383129781
     0.221899695  0.777603844  0.383098952
     0.555574699  0.111117656  0.382955449
     0.555584641  0.444463200  0.382954426
     0.555455203  0.777681144  0.383011353
     0.888960282  0.111124851  0.382957070
     0.889386710  0.445399525  0.382834783
     0.888503786  0.777665389  0.382871785

  ion indices of the primitive-cell ions
   primitive index   ion index
                 1           1
                 2           2
                 3           3
                 4           4
                 5           5
                 6           6
                 7           7
                 8           8
                 9           9
                10          10
                11          11
                12          12
                13          13
                14          14
                15          15
                16          16
                17          17
                18          18
                19          19
                20          20
                21          21
                22          22
                23          23
                24          24
                25          25
                26          26
                27          27
                28          28
                29          29
                30          30
                31          31
                32          32
                33          33
                34          34
                35          35
                36          36
                37          37
                38          38
                39          39
                40          40
                41          41
                42          42
                43          43
                44          44
                45          45
                46          46
                47          47
                48          48
                49          49
                50          50
                51          51
                52          52
                53          53
                54          54

----------------------------------------------------------------------------------------

 
 

Automatic generation of k-mesh.
 generate k-points for:    3    3    1
Space group operators:
 irot       det(A)        alpha          n_x          n_y          n_z        tau_x        tau_y        tau_z
    1     1.000000     0.000000     1.000000     0.000000     0.000000     0.000000     0.000000     0.000000
 
 Subroutine IBZKPT returns following result:
 ===========================================
 
 Found      5 irreducible k-points:
 
 Following reciprocal coordinates:
            Coordinates               Weight
  0.000000  0.000000  0.000000      1.000000
  0.333333  0.000000  0.000000      2.000000
  0.000000  0.333333  0.000000      2.000000
  0.333333  0.333333  0.000000      2.000000
 -0.333333  0.333333  0.000000      2.000000
 
 Following cartesian coordinates:
            Coordinates               Weight
  0.000000  0.000000  0.000000      1.000000
  0.031403  0.020144  0.000343      2.000000
  0.000000  0.036532  0.000619      2.000000
  0.031403  0.056676  0.000962      2.000000
 -0.031403  0.016389  0.000276      2.000000
 


--------------------------------------------------------------------------------------------------------




 Dimension of arrays:
   k-points           NKPTS =      5   k-points in BZ     NKDIM =      5   number of bands    NBANDS=    200
   number of dos      NEDOS =    301   number of ions     NIONS =     54
   non local maximal  LDIM  =      6   non local SUM 2l+1 LMDIM =     18
   total plane-waves  NPLWV = ******
   max r-space proj   IRMAX =      1   max aug-charges    IRDMAX=  37685
   dimension x,y,z NGX =    84 NGY =   84 NGZ =  240
   dimension x,y,z NGXF=   168 NGYF=  168 NGZF=  480
   support grid    NGXF=   168 NGYF=  168 NGZF=  480
   ions per type =              36  18
   NGX,Y,Z   is equivalent  to a cutoff of  13.16, 12.88, 13.32 a.u.
   NGXF,Y,Z  is equivalent  to a cutoff of  26.31, 25.76, 26.65 a.u.

 SYSTEM =  dpgen_md                                
 POSCAR =  Te Mo                                   

 Startparameter for this run:
   NWRITE =      2    write-flag & timer
   PREC   = a         normal or accurate (medium, high low for compatibility)
   ISTART =      0    job   : 0-new  1-cont  2-samecut
   ICHARG =      2    charge: 1-file 2-atom 10-const
   ISPIN  =      1    spin polarized calculation?
   LNONCOLLINEAR =      F non collinear calculations
   LSORBIT =      F    spin-orbit coupling
   INIWAV =      1    electr: 0-lowe 1-rand  2-diag
   LASPH  =      F    aspherical Exc in radial PAW
   METAGGA=      F    non-selfconsistent MetaGGA calc.

 Electronic Relaxation 1
   ENCUT  =  550.0 eV  40.42 Ry    6.36 a.u.  20.30 20.73 57.27*2*pi/ulx,y,z
   ENINI  =  550.0     initial cutoff
   ENAUG  =  368.8 eV  augmentation charge cutoff
   NELM   =    100;   NELMIN=  6; NELMDL= -5     # of ELM steps 
   EDIFF  = 0.1E-05   stopping-criterion for ELM
   LREAL  =      F    real-space projection
   NLSPLINE    = F    spline interpolate recip. space projectors
   LCOMPAT=      F    compatible to vasp.4.4
   GGA_COMPAT  = T    GGA compatible to vasp.4.4-vasp.4.6
   LMAXPAW     = -100 max onsite density
   LMAXMIX     =    2 max onsite mixed and CHGCAR
   VOSKOWN=      0    Vosko Wilk Nusair interpolation
   ROPT   =    0.00000   0.00000
 Ionic relaxation
   EDIFFG = 0.1E-04   stopping-criterion for IOM
   NSW    =     10    number of steps for IOM
   NBLOCK =      1;   KBLOCK =      1    inner block; outer block 
   IBRION =      0    ionic relax: 0-MD 1-quasi-New 2-CG
   NFREE  =      0    steps in history (QN), initial steepest desc. (CG)
   ISIF   =      2    stress and relaxation
   IWAVPR =     11    prediction:  0-non 1-charg 2-wave 3-comb
   ISYM   =      0    0-nonsym 1-usesym 2-fastsym
   LCORR  =      T    Harris-Foulkes like correction to forces

   POTIM  = 2.0000    time-step for ionic-motion
   TEIN   =  100.0    initial temperature
   TEBEG  =  100.0;   TEEND  = 100.0 temperature during run
   SMASS  =   0.04    Nose mass-parameter (am)
   estimated Nose-frequenzy (Omega)   =  0.79E+14 period in steps = 0.40E+02 mass=   0.327E-28a.u.
   SCALEE = 1.0000    scale energy and forces
   NPACO  =    256;   APACO  = 16.0  distance and # of slots for P.C.
   PSTRESS=    0.0 pullay stress

  Mass of Ions in am
   POMASS = 127.60 95.94
  Ionic Valenz
   ZVAL   =   6.00  6.00
  Atomic Wigner-Seitz radii
   RWIGS  =  -1.00 -1.00
  virtual crystal weights 
   VCA    =   1.00  1.00
   NELECT =     324.0000    total number of electrons
   NUPDOWN=      -1.0000    fix difference up-down

 DOS related values:
   EMIN   =  10.00;   EMAX   =-10.00  energy-range for DOS
   EFERMI =   0.00
   ISMEAR =     0;   SIGMA  =   0.10  broadening in eV -4-tet -1-fermi 0-gaus

 Electronic relaxation 2 (details)
   IALGO  =     68    algorithm
   LDIAG  =      T    sub-space diagonalisation (order eigenvalues)
   LSUBROT=      F    optimize rotation matrix (better conditioning)
   TURBO    =      0    0=normal 1=particle mesh
   IRESTART =      0    0=no restart 2=restart with 2 vectors
   NREBOOT  =      0    no. of reboots
   NMIN     =      0    reboot dimension
   EREF     =   0.00    reference energy to select bands
   IMIX   =      4    mixing-type and parameters
     AMIX     =   0.40;   BMIX     =  1.00
     AMIX_MAG =   1.60;   BMIX_MAG =  1.00
     AMIN     =   0.10
     WC   =   100.;   INIMIX=   1;  MIXPRE=   1;  MAXMIX= -45

 Intra band minimization:
   WEIMIN = 0.0010     energy-eigenvalue tresh-hold
   EBREAK =  0.13E-08  absolut break condition
   DEPER  =   0.30     relativ break condition  

   TIME   =   0.40     timestep for ELM

  volume/ion in A,a.u.               =      53.71       362.43
  Fermi-wavevector in a.u.,A,eV,Ry     =   0.788467  1.489986  8.458470  0.621680
  Thomas-Fermi vector in A             =   1.893414
 
 Write flags
   LWAVE        =      F    write WAVECAR
   LDOWNSAMPLE  =      F    k-point downsampling of WAVECAR
   LCHARG       =      F    write CHGCAR
   LVTOT        =      F    write LOCPOT, total local potential
   LVHAR        =      F    write LOCPOT, Hartree potential only
   LELF         =      F    write electronic localiz. function (ELF)
   LORBIT       =      0    0 simple, 1 ext, 2 COOP (PROOUT), +10 PAW based schemes


 Dipole corrections
   LMONO  =      F    monopole corrections only (constant potential shift)
   LDIPOL =      F    correct potential (dipole corrections)
   IDIPOL =      0    1-x, 2-y, 3-z, 4-all directions 
   EPSILON=  1.0000000 bulk dielectric constant

 Exchange correlation treatment:
   GGA     =    --    GGA type
   LEXCH   =     8    internal setting for exchange type
   VOSKOWN=      0    Vosko Wilk Nusair interpolation
   LHFCALC =     F    Hartree Fock is set to
   LHFONE  =     F    Hartree Fock one center treatment
   AEXX    =    0.0000 exact exchange contribution

 Linear response parameters
   LEPSILON=     F    determine dielectric tensor
   LRPA    =     F    only Hartree local field effects (RPA)
   LNABLA  =     F    use nabla operator in PAW spheres
   LVEL    =     F    velocity operator in full k-point grid
   LINTERFAST=   F  fast interpolation
   KINTER  =     0    interpolate to denser k-point grid
   CSHIFT  =0.1000    complex shift for real part using Kramers Kronig
   OMEGAMAX=  -1.0    maximum frequency
   DEG_THRESHOLD= 0.2000000E-02 threshold for treating states as degnerate
   RTIME   =   -0.100 relaxation time in fs
  (WPLASMAI=    0.000 imaginary part of plasma frequency in eV, 0.658/RTIME)
   DFIELD  = 0.0000000 0.0000000 0.0000000 field for delta impulse in time
 
 Orbital magnetization related:
   ORBITALMAG=     F  switch on orbital magnetization
   LCHIMAG   =     F  perturbation theory with respect to B field
   DQ        =  0.001000  dq finite difference perturbation B field
   LLRAUG    =     F  two centre corrections for induced B field



--------------------------------------------------------------------------------------------------------


 molecular dynamics for ions
   using nose mass (canonical ensemble)
 charge density and potential will be updated during run
 non-spin polarized calculation
 RMM-DIIS sequential band-by-band and
  variant of blocked Davidson during initial phase
 perform sub-space diagonalisation
    before iterative eigenvector-optimisation
 modified Broyden-mixing scheme, WC =      100.0
 initial mixing is a Kerker type mixing with AMIX =  0.4000 and BMIX =      1.0000
 Hartree-type preconditioning will be used
 using additional bands           38
 reciprocal scheme for non local part
 use partial core corrections
 calculate Harris-corrections to forces 
   (improved forces if not selfconsistent)
 use gradient corrections 
 use of overlap-Matrix (Vanderbilt PP)
 Gauss-broadening in eV      SIGMA  =   0.10


--------------------------------------------------------------------------------------------------------


  energy-cutoff  :      550.00
  volume of cell :     2900.14
      direct lattice vectors                 reciprocal lattice vectors
    10.614820082  0.000000000  0.000000000     0.094207909  0.060431132  0.001028775
    -5.852963815  9.124361292  0.000000000     0.000000000  0.109596712  0.001857499
    -0.001448880 -0.507498947 29.943603516     0.000000000  0.000000000  0.033396114

  length of vectors
    10.614820082 10.840256197 29.947903914     0.111929041  0.109612452  0.033396114


 
 k-points in units of 2pi/SCALE and weight: read from INCAR                         
   0.00000000  0.00000000  0.00000000       0.111
   0.03140264  0.02014371  0.00034293       0.222
   0.00000000  0.03653224  0.00061917       0.222
   0.03140264  0.05667595  0.00096209       0.222
  -0.03140264  0.01638853  0.00027624       0.222
 
 k-points in reciprocal lattice and weights: read from INCAR                         
   0.00000000  0.00000000  0.00000000       0.111
   0.33333333  0.00000000  0.00000000       0.222
   0.00000000  0.33333333  0.00000000       0.222
   0.33333333  0.33333333  0.00000000       0.222
  -0.33333333  0.33333333  0.00000000       0.222
 
 position of ions in fractional coordinates (direct lattice) 
   0.22282360  0.11157097  0.67757045
   0.22221026  0.44438425  0.67745541
   0.22282177  0.77828865  0.67741048
   0.55520443  0.11156374  0.67740906
   0.55652920  0.44513955  0.67736098
   0.55631483  0.77859092  0.67732939
   0.88848956  0.11106634  0.67723001
   0.88823855  0.44381586  0.67769247
   0.88835191  0.77749697  0.67725821
   0.11106251  0.22191540  0.44323940
   0.11023169  0.55456098  0.44341428
   0.11095329  0.88904814  0.44324014
   0.44396799  0.22205523  0.44350316
   0.44435574  0.55568871  0.44316985
   0.44440789  0.88938754  0.44323328
   0.77683481  0.22193599  0.44337337
   0.77782444  0.55549331  0.44335648
   0.77750033  0.88849436  0.44359743
   0.22210133  0.11033799  0.55644892
   0.22218748  0.44443593  0.55663421
   0.22172205  0.77698830  0.55672024
   0.55527937  0.11111576  0.55681493
   0.55558032  0.44450745  0.55664039
   0.55532788  0.77773924  0.55653589
   0.88975212  0.11109470  0.55661525
   0.88851451  0.44397621  0.55677215
   0.88898798  0.77780803  0.55664480
   0.11146119  0.22308618  0.32273966
   0.11088803  0.55505978  0.32236932
   0.11111293  0.88892540  0.32254833
   0.44403881  0.22215107  0.32250827
   0.44442441  0.55556434  0.32255368
   0.44451168  0.88844212  0.32257333
   0.77742590  0.22192364  0.32268078
   0.77780623  0.55554334  0.32254901
   0.77781079  0.88889841  0.32259217
   0.99945268  0.00003259  0.61695113
   0.00093383  0.33429408  0.61697897
   0.99979913  0.66613311  0.61701861
   0.33361768  0.99963460  0.61717814
   0.33362033  0.33342147  0.61707588
   0.33248175  0.66571853  0.61708675
   0.66668713  0.99999895  0.61700552
   0.66716622  0.33339410  0.61700724
   0.66658666  0.66681295  0.61690725
   0.22222143  0.11110987  0.38294636
   0.22178505  0.44485339  0.38312978
   0.22189970  0.77760384  0.38309895
   0.55557470  0.11111766  0.38295545
   0.55558464  0.44446320  0.38295443
   0.55545520  0.77768114  0.38301135
   0.88896028  0.11112485  0.38295707
   0.88938671  0.44539952  0.38283478
   0.88850379  0.77766539  0.38287178
 
 position of ions in cartesian coordinates  (Angst):
   1.71122992  0.67414752 20.28890106
  -0.24322459  3.71091458 20.28545620
  -2.19106378  6.75760171 20.28411070
   5.23943512  0.67416352 20.28406817
   3.30109020  3.71785411 20.28262849
   1.34713604  6.76040088 20.28168285
   8.78010834  0.66971588 20.27870693
   6.82987235  3.70560804 20.29255472
   4.87805280  6.75045545 20.27955132
  -0.12059641  1.79989271 13.27218498
  -2.07637828  4.83498245 13.27742149
  -4.02645959  7.88705257 13.27220697
   3.41231654  1.80103472 13.28008275
   1.46368822  4.84539634 13.27010224
  -0.48888550  7.89015278 13.27200172
   6.94633600  1.80001263 13.27619646
   5.00454188  4.84351871 13.27569063
   3.05205800  7.88181837 13.28290542
   1.71095519  0.72436646 16.66208590
  -0.24359380  3.77270274 16.66763411
  -2.19495137  6.80698707 16.67021007
   5.24302730  0.73127733 16.67304538
   3.29489265  3.77335214 16.66781928
   1.34181956  6.81393243 16.66469004
   8.79351892  0.73118657 16.66706629
   6.83203831  3.76843807 16.67176445
   4.88315874  6.81450482 16.66795115
  -0.12304250  1.87172886  9.66398851
  -2.07215543  4.90096387  9.65289914
  -4.02387177  7.94718359  9.65825919
   3.41268264  1.86331406  9.65705978
   1.46531982  4.90547412  9.65841939
  -0.48207549  7.94276130  9.65900785
   6.95285747  1.86115128  9.66222526
   5.00423086  4.90528484  9.65827960
   3.05316396  7.94691506  9.65957201
  10.60792575 -0.31280470 18.47374002
  -1.94759267  2.73710376 18.47457366
   6.71294091  5.76490289 18.47576071
  -2.31042770  8.80781003 18.48053738
   1.58892187  2.72909264 18.47747549
  -0.36808663  5.76108551 18.47780086
   1.22291236  8.81122203 18.47536861
   5.12961188  2.72887767 18.47542010
   3.17197158  5.77116249 18.47242624
   1.70796362  0.81946173 11.46679410
  -0.25005755  3.86456512 11.47228627
  -2.19641689  6.90071610 11.47136312
   5.24640300  0.81952815 11.46706614
   3.29544912  3.86109385 11.46703550
   1.34376251  6.90146587 11.46874009
   8.78518887  0.81959298 11.46711467
   6.83321793  3.86969793 11.46345295
   4.87910572  6.90139295 11.46456092
 


--------------------------------------------------------------------------------------------------------


 k-point   1 :   0.0000 0.0000 0.0000  plane waves:   84927
 k-point   2 :   0.3333 0.0000 0.0000  plane waves:   84957
 k-point   3 :   0.0000 0.3333 0.0000  plane waves:   84953
 k-point   4 :   0.3333 0.3333 0.0000  plane waves:   84916
 k-point   5 :  -0.3333 0.3333 0.0000  plane waves:   84943

 maximum and minimum number of plane-waves per node :     84957    84916

 maximum number of plane-waves:     84957
 maximum index in each direction: 
   IXMAX=   20   IYMAX=   20   IZMAX=   57
   IXMIN=  -20   IYMIN=  -21   IZMIN=  -57


 serial   3D FFT for wavefunctions
 parallel 3D FFT for charge:
    minimum data exchange during FFTs selected (reduces bandwidth)


 total amount of memory used by VASP MPI-rank0   371329. kBytes
=======================================================================

   base      :      30000. kBytes
   nonl-proj :     195747. kBytes
   fftplans  :      19943. kBytes
   grid      :      90496. kBytes
   one-center:        839. kBytes
   wavefun   :      34304. kBytes
 
     INWAV:  cpu time    0.0000: real time    0.0000
 Broyden mixing: mesh for mixing (old mesh)
   NGX = 41   NGY = 41   NGZ =115
  (NGX  =168   NGY  =168   NGZ  =480)
  gives a total of 193315 points

 initial charge density was supplied:
 charge density of overlapping atoms calculated
 number of electron     324.0000000 magnetization 
 keeping initial charge density in first step


--------------------------------------------------------------------------------------------------------


 Maximum index for augmentation-charges         2224 (set IRDMAX)


--------------------------------------------------------------------------------------------------------


 First call to EWALD:  gamma=   0.124
 Maximum number of real-space cells 4x 4x 2
 Maximum number of reciprocal cells 2x 2x 5

    FEWALD:  cpu time    0.0063: real time    0.0063


--------------------------------------- Iteration      1(   1)  ---------------------------------------


    POTLOK:  cpu time    0.3826: real time    0.3841
    SETDIJ:  cpu time    0.0150: real time    0.0152
     EDDAV:  cpu time   52.4220: real time   52.5321
       DOS:  cpu time    0.0009: real time    0.0010
    --------------------------------------------
      LOOP:  cpu time   52.8205: real time   52.9325

 eigenvalue-minimisations  :  2000
 total energy-change (2. order) : 0.2118683E+04  (-0.1152190E+05)
 number of electron     324.0000000 magnetization 
 augmentation part      324.0000000 magnetization 

 Free energy of the ion-electron system (eV)
  ---------------------------------------------------
  alpha Z        PSCENC =       247.45902946
  Ewald energy   TEWEN  =     63745.37126553
  -Hartree energ DENC   =    -75428.20286980
  -exchange      EXHF   =         0.00000000
  -V(xc)+E(xc)   XCENC  =     -2099.70562916
  PAW double counting   =      7476.04436201    -4809.59211051
  entropy T*S    EENTRO =        -0.11537032
  eigenvalues    EBANDS =      1034.34169217
  atomic energy  EATOM  =     11953.08265402
  Solvation  Ediel_sol  =         0.00000000
  ---------------------------------------------------
  free energy    TOTEN  =      2118.68302339 eV

  energy without entropy =     2118.79839371  energy(sigma->0) =     2118.74070855


--------------------------------------------------------------------------------------------------------




--------------------------------------- Iteration      1(   2)  ---------------------------------------


     EDDAV:  cpu time   74.1882: real time   74.3014
       DOS:  cpu time    0.0006: real time    0.0006
    --------------------------------------------
      LOOP:  cpu time   74.1888: real time   74.3020

 eigenvalue-minimisations  :  3080
 total energy-change (2. order) :-0.2218703E+04  (-0.2153012E+04)
 number of electron     324.0000000 magnetization 
 augmentation part      324.0000000 magnetization 

 Free energy of the ion-electron system (eV)
  ---------------------------------------------------
  alpha Z        PSCENC =       247.45902946
  Ewald energy   TEWEN  =     63745.37126553
  -Hartree energ DENC   =    -75428.20286980
  -exchange      EXHF   =         0.00000000
  -V(xc)+E(xc)   XCENC  =     -2099.70562916
  PAW double counting   =      7476.04436201    -4809.59211051
  entropy T*S    EENTRO =        -0.00007962
  eigenvalues    EBANDS =     -1184.47667771
  atomic energy  EATOM  =     11953.08265402
  Solvation  Ediel_sol  =         0.00000000
  ---------------------------------------------------
  free energy    TOTEN  =      -100.02005579 eV

  energy without entropy =     -100.01997616  energy(sigma->0) =     -100.02001598


--------------------------------------------------------------------------------------------------------




--------------------------------------- Iteration      1(   3)  ---------------------------------------


     EDDAV:  cpu time   62.8315: real time   62.9510
       DOS:  cpu time    0.0004: real time    0.0004
    --------------------------------------------
      LOOP:  cpu time   62.8319: real time   62.9514

 eigenvalue-minimisations  :  2520
 total energy-change (2. order) :-0.2246474E+03  (-0.2216043E+03)
 number of electron     324.0000000 magnetization 
 augmentation part      324.0000000 magnetization 

 Free energy of the ion-electron system (eV)
  ---------------------------------------------------
  alpha Z        PSCENC =       247.45902946
  Ewald energy   TEWEN  =     63745.37126553
  -Hartree energ DENC   =    -75428.20286980
  -exchange      EXHF   =         0.00000000
  -V(xc)+E(xc)   XCENC  =     -2099.70562916
  PAW double counting   =      7476.04436201    -4809.59211051
  entropy T*S    EENTRO =        -0.00000000
  eigenvalues    EBANDS =     -1409.12413072
  atomic energy  EATOM  =     11953.08265402
  Solvation  Ediel_sol  =         0.00000000
  ---------------------------------------------------
  free energy    TOTEN  =      -324.66742917 eV

  energy without entropy =     -324.66742917  energy(sigma->0) =     -324.66742917


--------------------------------------------------------------------------------------------------------




--------------------------------------- Iteration      1(   4)  ---------------------------------------


     EDDAV:  cpu time   74.1888: real time   74.3306
       DOS:  cpu time    0.0004: real time    0.0004
    --------------------------------------------
      LOOP:  cpu time   74.1892: real time   74.3310

 eigenvalue-minimisations  :  3080
 total energy-change (2. order) :-0.1061985E+02  (-0.1054221E+02)
 number of electron     324.0000000 magnetization 
 augmentation part      324.0000000 magnetization 

 Free energy of the ion-electron system (eV)
  ---------------------------------------------------
  alpha Z        PSCENC =       247.45902946
  Ewald energy   TEWEN  =     63745.37126553
  -Hartree energ DENC   =    -75428.20286980
  -exchange      EXHF   =         0.00000000
  -V(xc)+E(xc)   XCENC  =     -2099.70562916
  PAW double counting   =      7476.04436201    -4809.59211051
  entropy T*S    EENTRO =        -0.00000000
  eigenvalues    EBANDS =     -1419.74397756
  atomic energy  EATOM  =     11953.08265402
  Solvation  Ediel_sol  =         0.00000000
  ---------------------------------------------------
  free energy    TOTEN  =      -335.28727602 eV

  energy without entropy =     -335.28727602  energy(sigma->0) =     -335.28727602


--------------------------------------------------------------------------------------------------------




--------------------------------------- Iteration      1(   5)  ---------------------------------------


     EDDAV:  cpu time   70.8241: real time   70.9316
       DOS:  cpu time    0.0004: real time    0.0004
    CHARGE:  cpu time    1.2609: real time    1.2623
    MIXING:  cpu time    0.0087: real time    0.0092
    --------------------------------------------
      LOOP:  cpu time   72.0942: real time   72.2034

 eigenvalue-minimisations  :  2920
 total energy-change (2. order) :-0.3271911E+00  (-0.3266121E+00)
 number of electron     323.9999993 magnetization 
 augmentation part      -25.4606087 magnetization 

 Broyden mixing:
  rms(total) = 0.18986E+01    rms(broyden)= 0.18986E+01
  rms(prec ) = 0.20089E+01
  weight for this iteration     100.00

 Free energy of the ion-electron system (eV)
  ---------------------------------------------------
  alpha Z        PSCENC =       247.45902946
  Ewald energy   TEWEN  =     63745.37126553
  -Hartree energ DENC   =    -75428.20286980
  -exchange      EXHF   =         0.00000000
  -V(xc)+E(xc)   XCENC  =     -2099.70562916
  PAW double counting   =      7476.04436201    -4809.59211051
  entropy T*S    EENTRO =        -0.00000000
  eigenvalues    EBANDS =     -1420.07116863
  atomic energy  EATOM  =     11953.08265402
  Solvation  Ediel_sol  =         0.00000000
  ---------------------------------------------------
  free energy    TOTEN  =      -335.61446708 eV

  energy without entropy =     -335.61446708  energy(sigma->0) =     -335.61446708


--------------------------------------------------------------------------------------------------------




--------------------------------------- Iteration      1(   6)  ---------------------------------------


    POTLOK:  cpu time    0.3315: real time    0.3318
    SETDIJ:  cpu time    0.0126: real time    0.0126
    EDDIAG:  cpu time    2.7651: real time    2.7727
  RMM-DIIS:  cpu time   44.5139: real time   44.5987
    ORTHCH:  cpu time    0.2339: real time    0.2341
       DOS:  cpu time    0.0005: real time    0.0005
    CHARGE:  cpu time    1.2753: real time    1.2807
    MIXING:  cpu time    0.0083: real time    0.0084
    --------------------------------------------
      LOOP:  cpu time   49.1411: real time   49.2396

 eigenvalue-minimisations  :  2137
 total energy-change (2. order) : 0.8786852E+01  (-0.5241224E+01)
 number of electron     323.9999993 magnetization 
 augmentation part      -19.9716650 magnetization 

 Broyden mixing:
  rms(total) = 0.70700E+00    rms(broyden)= 0.70700E+00
  rms(prec ) = 0.81608E+00
  weight for this iteration     100.00

 eigenvalues of (default mixing * dielectric matrix)
  average eigenvalue GAMMA=   1.0539
  1.0539

 Free energy of the ion-electron system (eV)
  ---------------------------------------------------
  alpha Z        PSCENC =       247.45902946
  Ewald energy   TEWEN  =     63745.37126553
  -Hartree energ DENC   =    -75407.86111873
  -exchange      EXHF   =         0.00000000
  -V(xc)+E(xc)   XCENC  =     -2093.26585658
  PAW double counting   =      7688.01262035    -5032.98278789
  entropy T*S    EENTRO =        -0.00000009
  eigenvalues    EBANDS =     -1426.64342100
  atomic energy  EATOM  =     11953.08265402
  Solvation  Ediel_sol  =         0.00000000
  ---------------------------------------------------
  free energy    TOTEN  =      -326.82761493 eV

  energy without entropy =     -326.82761484  energy(sigma->0) =     -326.82761488


--------------------------------------------------------------------------------------------------------




--------------------------------------- Iteration      1(   7)  ---------------------------------------


    POTLOK:  cpu time    0.3229: real time    0.3233
    SETDIJ:  cpu time    0.0156: real time    0.0156
    EDDIAG:  cpu time    2.7811: real time    2.7885
  RMM-DIIS:  cpu time   41.2627: real time   41.3462
    ORTHCH:  cpu time    0.2293: real time    0.2296
       DOS:  cpu time    0.0005: real time    0.0005
    CHARGE:  cpu time    1.2695: real time    1.2711
    MIXING:  cpu time    0.0083: real time    0.0083
    --------------------------------------------
      LOOP:  cpu time   45.8899: real time   45.9831

 eigenvalue-minimisations  :  2011
 total energy-change (2. order) : 0.3146904E+01  (-0.1033029E+01)
 number of electron     323.9999993 magnetization 
 augmentation part      -21.7411834 magnetization 

 Broyden mixing:
  rms(total) = 0.46776E+00    rms(broyden)= 0.46776E+00
  rms(prec ) = 0.49495E+00
  weight for this iteration     100.00

 eigenvalues of (default mixing * dielectric matrix)
  average eigenvalue GAMMA=   1.4746
  0.7366  2.2126

 Free energy of the ion-electron system (eV)
  ---------------------------------------------------
  alpha Z        PSCENC =       247.45902946
  Ewald energy   TEWEN  =     63745.37126553
  -Hartree energ DENC   =    -75494.97928934
  -exchange      EXHF   =         0.00000000
  -V(xc)+E(xc)   XCENC  =     -2091.89900820
  PAW double counting   =      7981.23715697    -5331.30617001
  entropy T*S    EENTRO =        -0.00000000
  eigenvalues    EBANDS =     -1332.64634901
  atomic energy  EATOM  =     11953.08265402
  Solvation  Ediel_sol  =         0.00000000
  ---------------------------------------------------
  free energy    TOTEN  =      -323.68071057 eV

  energy without entropy =     -323.68071057  energy(sigma->0) =     -323.68071057


--------------------------------------------------------------------------------------------------------




--------------------------------------- Iteration      1(   8)  ---------------------------------------


    POTLOK:  cpu time    0.3271: real time    0.3275
    SETDIJ:  cpu time    0.0134: real time    0.0134
    EDDIAG:  cpu time    2.7610: real time    2.7642
  RMM-DIIS:  cpu time   41.1023: real time   41.1815
    ORTHCH:  cpu time    0.2219: real time    0.2238
       DOS:  cpu time    0.0005: real time    0.0005
    CHARGE:  cpu time    1.2661: real time    1.2680
    MIXING:  cpu time    0.0126: real time    0.0126
    --------------------------------------------
      LOOP:  cpu time   45.7050: real time   45.7914

 eigenvalue-minimisations  :  2012
 total energy-change (2. order) : 0.4219963E+00  (-0.7326526E+00)
 number of electron     323.9999993 magnetization 
 augmentation part      -21.5457924 magnetization 

 Broyden mixing:
  rms(total) = 0.14016E+00    rms(broyden)= 0.14016E+00
  rms(prec ) = 0.16254E+00
  weight for this iteration     100.00

 eigenvalues of (default mixing * dielectric matrix)
  average eigenvalue GAMMA=   1.2309
  2.1718  0.7605  0.7605

 Free energy of the ion-electron system (eV)
  ---------------------------------------------------
  alpha Z        PSCENC =       247.45902946
  Ewald energy   TEWEN  =     63745.37126553
  -Hartree energ DENC   =    -75554.43617651
  -exchange      EXHF   =         0.00000000
  -V(xc)+E(xc)   XCENC  =     -2088.06820274
  PAW double counting   =      8292.31248698    -5648.75513265
  entropy T*S    EENTRO =        -0.00000000
  eigenvalues    EBANDS =     -1270.22463833
  atomic energy  EATOM  =     11953.08265402
  Solvation  Ediel_sol  =         0.00000000
  ---------------------------------------------------
  free energy    TOTEN  =      -323.25871424 eV

  energy without entropy =     -323.25871424  energy(sigma->0) =     -323.25871424


--------------------------------------------------------------------------------------------------------




--------------------------------------- Iteration      1(   9)  ---------------------------------------


    POTLOK:  cpu time    0.3206: real time    0.3209
    SETDIJ:  cpu time    0.0119: real time    0.0119
    EDDIAG:  cpu time    2.7554: real time    2.7670
  RMM-DIIS:  cpu time   46.5952: real time   46.6872
    ORTHCH:  cpu time    0.2314: real time    0.2328
       DOS:  cpu time    0.0004: real time    0.0004
    CHARGE:  cpu time    1.2654: real time    1.2666
    MIXING:  cpu time    0.0076: real time    0.0076
    --------------------------------------------
      LOOP:  cpu time   51.1878: real time   51.2944

 eigenvalue-minimisations  :  2245
 total energy-change (2. order) :-0.3108171E-01  (-0.1336529E+00)
 number of electron     323.9999993 magnetization 
 augmentation part      -21.2260777 magnetization 

 Broyden mixing:
  rms(total) = 0.10393E+00    rms(broyden)= 0.10393E+00
  rms(prec ) = 0.11641E+00
  weight for this iteration     100.00

 eigenvalues of (default mixing * dielectric matrix)
  average eigenvalue GAMMA=   1.1415
  2.0234  1.3903  0.7507  0.4015

 Free energy of the ion-electron system (eV)
  ---------------------------------------------------
  alpha Z        PSCENC =       247.45902946
  Ewald energy   TEWEN  =     63745.37126553
  -Hartree energ DENC   =    -75551.90105032
  -exchange      EXHF   =         0.00000000
  -V(xc)+E(xc)   XCENC  =     -2087.80338579
  PAW double counting   =      8292.02887648    -5648.58865868
  entropy T*S    EENTRO =        -0.00000000
  eigenvalues    EBANDS =     -1272.93852665
  atomic energy  EATOM  =     11953.08265402
  Solvation  Ediel_sol  =         0.00000000
  ---------------------------------------------------
  free energy    TOTEN  =      -323.28979595 eV

  energy without entropy =     -323.28979595  energy(sigma->0) =     -323.28979595


--------------------------------------------------------------------------------------------------------




--------------------------------------- Iteration      1(  10)  ---------------------------------------


    POTLOK:  cpu time    0.3379: real time    0.3382
    SETDIJ:  cpu time    0.0126: real time    0.0126
    EDDIAG:  cpu time    2.7611: real time    2.7643
  RMM-DIIS:  cpu time   46.5825: real time   46.6585
    ORTHCH:  cpu time    0.2279: real time    0.2282
       DOS:  cpu time    0.0004: real time    0.0004
    CHARGE:  cpu time    1.2646: real time    1.2657
    MIXING:  cpu time    0.0080: real time    0.0080
    --------------------------------------------
      LOOP:  cpu time   51.1950: real time   51.2760

 eigenvalue-minimisations  :  2264
 total energy-change (2. order) : 0.5161209E-02  (-0.4527688E-01)
 number of electron     323.9999993 magnetization 
 augmentation part      -20.9794841 magnetization 

 Broyden mixing:
  rms(total) = 0.72104E-01    rms(broyden)= 0.72104E-01
  rms(prec ) = 0.80485E-01
  weight for this iteration     100.00

 eigenvalues of (default mixing * dielectric matrix)
  average eigenvalue GAMMA=   1.2695
  2.3527  1.7741  0.9214  0.9214  0.3778

 Free energy of the ion-electron system (eV)
  ---------------------------------------------------
  alpha Z        PSCENC =       247.45902946
  Ewald energy   TEWEN  =     63745.37126553
  -Hartree energ DENC   =    -75552.12648345
  -exchange      EXHF   =         0.00000000
  -V(xc)+E(xc)   XCENC  =     -2087.59109154
  PAW double counting   =      8301.92300263    -5658.46689700
  entropy T*S    EENTRO =        -0.00000000
  eigenvalues    EBANDS =     -1272.93611440
  atomic energy  EATOM  =     11953.08265402
  Solvation  Ediel_sol  =         0.00000000
  ---------------------------------------------------
  free energy    TOTEN  =      -323.28463474 eV

  energy without entropy =     -323.28463474  energy(sigma->0) =     -323.28463474


--------------------------------------------------------------------------------------------------------




--------------------------------------- Iteration      1(  11)  ---------------------------------------


    POTLOK:  cpu time    0.3288: real time    0.3291
    SETDIJ:  cpu time    0.0146: real time    0.0146
    EDDIAG:  cpu time    2.7644: real time    2.7686
  RMM-DIIS:  cpu time   43.6407: real time   43.7155
    ORTHCH:  cpu time    0.2322: real time    0.2325
       DOS:  cpu time    0.0004: real time    0.0004
    CHARGE:  cpu time    1.2666: real time    1.2720
    MIXING:  cpu time    0.0090: real time    0.0090
    --------------------------------------------
      LOOP:  cpu time   48.2568: real time   48.3418

 eigenvalue-minimisations  :  2129
 total energy-change (2. order) : 0.1333004E-01  (-0.1548189E-01)
 number of electron     323.9999993 magnetization 
 augmentation part      -21.2504654 magnetization 

 Broyden mixing:
  rms(total) = 0.36090E-01    rms(broyden)= 0.36090E-01
  rms(prec ) = 0.41661E-01
  weight for this iteration     100.00

 eigenvalues of (default mixing * dielectric matrix)
  average eigenvalue GAMMA=   1.1944
  2.5440  1.7072  1.2197  0.7940  0.5290  0.3725

 Free energy of the ion-electron system (eV)
  ---------------------------------------------------
  alpha Z        PSCENC =       247.45902946
  Ewald energy   TEWEN  =     63745.37126553
  -Hartree energ DENC   =    -75569.28255900
  -exchange      EXHF   =         0.00000000
  -V(xc)+E(xc)   XCENC  =     -2087.32477801
  PAW double counting   =      8351.63982281    -5708.45877422
  entropy T*S    EENTRO =        -0.00000000
  eigenvalues    EBANDS =     -1255.75796531
  atomic energy  EATOM  =     11953.08265402
  Solvation  Ediel_sol  =         0.00000000
  ---------------------------------------------------
  free energy    TOTEN  =      -323.27130470 eV

  energy without entropy =     -323.27130470  energy(sigma->0) =     -323.27130470


--------------------------------------------------------------------------------------------------------




--------------------------------------- Iteration      1(  12)  ---------------------------------------


    POTLOK:  cpu time    0.3279: real time    0.3323
    SETDIJ:  cpu time    0.0120: real time    0.0120
    EDDIAG:  cpu time    2.7663: real time    2.7692
  RMM-DIIS:  cpu time   53.5230: real time   53.6187
    ORTHCH:  cpu time    0.2282: real time    0.2285
       DOS:  cpu time    0.0005: real time    0.0005
    CHARGE:  cpu time    1.2645: real time    1.2698
    MIXING:  cpu time    0.0093: real time    0.0094
    --------------------------------------------
      LOOP:  cpu time   58.1318: real time   58.2404

 eigenvalue-minimisations  :  2588
 total energy-change (2. order) :-0.1155760E-02  (-0.4796812E-02)
 number of electron     323.9999993 magnetization 
 augmentation part      -21.2857295 magnetization 

 Broyden mixing:
  rms(total) = 0.27693E-01    rms(broyden)= 0.27693E-01
  rms(prec ) = 0.31873E-01
  weight for this iteration     100.00

 eigenvalues of (default mixing * dielectric matrix)
  average eigenvalue GAMMA=   1.1841
  2.4869  1.7056  1.7056  0.8086  0.8086  0.4073  0.3665

 Free energy of the ion-electron system (eV)
  ---------------------------------------------------
  alpha Z        PSCENC =       247.45902946
  Ewald energy   TEWEN  =     63745.37126553
  -Hartree energ DENC   =    -75573.64560232
  -exchange      EXHF   =         0.00000000
  -V(xc)+E(xc)   XCENC  =     -2087.22604521
  PAW double counting   =      8358.88248743    -5715.74658430
  entropy T*S    EENTRO =        -0.00000000
  eigenvalues    EBANDS =     -1251.44966506
  atomic energy  EATOM  =     11953.08265402
  Solvation  Ediel_sol  =         0.00000000
  ---------------------------------------------------
  free energy    TOTEN  =      -323.27246046 eV

  energy without entropy =     -323.27246046  energy(sigma->0) =     -323.27246046


--------------------------------------------------------------------------------------------------------




--------------------------------------- Iteration      1(  13)  ---------------------------------------


    POTLOK:  cpu time    0.3204: real time    0.3211
    SETDIJ:  cpu time    0.0121: real time    0.0121
    EDDIAG:  cpu time    2.7714: real time    2.7786
  RMM-DIIS:  cpu time   48.6262: real time   48.7040
    ORTHCH:  cpu time    0.2240: real time    0.2242
       DOS:  cpu time    0.0005: real time    0.0005
    CHARGE:  cpu time    1.2596: real time    1.2607
    MIXING:  cpu time    0.0081: real time    0.0081
    --------------------------------------------
      LOOP:  cpu time   53.2221: real time   53.3093

 eigenvalue-minimisations  :  2333
 total energy-change (2. order) : 0.2131619E-02  (-0.2427790E-02)
 number of electron     323.9999993 magnetization 
 augmentation part      -21.1742308 magnetization 

 Broyden mixing:
  rms(total) = 0.91435E-02    rms(broyden)= 0.91434E-02
  rms(prec ) = 0.12199E-01
  weight for this iteration     100.00

 eigenvalues of (default mixing * dielectric matrix)
  average eigenvalue GAMMA=   1.2465
  2.3266  2.3266  1.9082  1.0559  0.7896  0.7896  0.3660  0.4095

 Free energy of the ion-electron system (eV)
  ---------------------------------------------------
  alpha Z        PSCENC =       247.45902946
  Ewald energy   TEWEN  =     63745.37126553
  -Hartree energ DENC   =    -75575.60485218
  -exchange      EXHF   =         0.00000000
  -V(xc)+E(xc)   XCENC  =     -2087.15413547
  PAW double counting   =      8353.67631234    -5710.50657129
  entropy T*S    EENTRO =        -0.00000000
  eigenvalues    EBANDS =     -1249.59403126
  atomic energy  EATOM  =     11953.08265402
  Solvation  Ediel_sol  =         0.00000000
  ---------------------------------------------------
  free energy    TOTEN  =      -323.27032884 eV

  energy without entropy =     -323.27032884  energy(sigma->0) =     -323.27032884


--------------------------------------------------------------------------------------------------------




--------------------------------------- Iteration      1(  14)  ---------------------------------------


    POTLOK:  cpu time    0.3398: real time    0.3401
    SETDIJ:  cpu time    0.0120: real time    0.0120
    EDDIAG:  cpu time    2.7835: real time    2.7867
  RMM-DIIS:  cpu time   54.5324: real time   54.6400
    ORTHCH:  cpu time    0.2292: real time    0.2295
       DOS:  cpu time    0.0005: real time    0.0004
    CHARGE:  cpu time    1.2696: real time    1.2748
    MIXING:  cpu time    0.0082: real time    0.0082
    --------------------------------------------
      LOOP:  cpu time   59.1751: real time   59.2917

 eigenvalue-minimisations  :  2611
 total energy-change (2. order) :-0.9006681E-03  (-0.8527918E-03)
 number of electron     323.9999993 magnetization 
 augmentation part      -21.1519327 magnetization 

 Broyden mixing:
  rms(total) = 0.10103E-01    rms(broyden)= 0.10103E-01
  rms(prec ) = 0.12510E-01
  weight for this iteration     100.00

 eigenvalues of (default mixing * dielectric matrix)
  average eigenvalue GAMMA=   1.2914
  3.1588  2.5444  1.5225  1.5225  0.7953  0.7953  0.5127  0.4052  0.3660

 Free energy of the ion-electron system (eV)
  ---------------------------------------------------
  alpha Z        PSCENC =       247.45902946
  Ewald energy   TEWEN  =     63745.37126553
  -Hartree energ DENC   =    -75581.84569931
  -exchange      EXHF   =         0.00000000
  -V(xc)+E(xc)   XCENC  =     -2087.11875931
  PAW double counting   =      8351.66451535    -5708.42882705
  entropy T*S    EENTRO =        -0.00000000
  eigenvalues    EBANDS =     -1243.45540819
  atomic energy  EATOM  =     11953.08265402
  Solvation  Ediel_sol  =         0.00000000
  ---------------------------------------------------
  free energy    TOTEN  =      -323.27122951 eV

  energy without entropy =     -323.27122951  energy(sigma->0) =     -323.27122951


--------------------------------------------------------------------------------------------------------




--------------------------------------- Iteration      1(  15)  ---------------------------------------


    POTLOK:  cpu time    0.3307: real time    0.3311
    SETDIJ:  cpu time    0.0120: real time    0.0120
    EDDIAG:  cpu time    2.7391: real time    2.7459
  RMM-DIIS:  cpu time   44.9216: real time   44.9920
    ORTHCH:  cpu time    0.2188: real time    0.2190
       DOS:  cpu time    0.0004: real time    0.0004
    CHARGE:  cpu time    1.2595: real time    1.2649
    MIXING:  cpu time    0.0111: real time    0.0111
    --------------------------------------------
      LOOP:  cpu time   49.4932: real time   49.5765

 eigenvalue-minimisations  :  2189
 total energy-change (2. order) :-0.2656145E-04  (-0.1837960E-03)
 number of electron     323.9999993 magnetization 
 augmentation part      -21.1755311 magnetization 

 Broyden mixing:
  rms(total) = 0.46794E-02    rms(broyden)= 0.46793E-02
  rms(prec ) = 0.61331E-02
  weight for this iteration     100.00

 eigenvalues of (default mixing * dielectric matrix)
  average eigenvalue GAMMA=   1.2492
  3.3932  2.4777  1.6019  1.6019  0.7945  0.7945  0.6438  0.3653  0.4205  0.3985

 Free energy of the ion-electron system (eV)
  ---------------------------------------------------
  alpha Z        PSCENC =       247.45902946
  Ewald energy   TEWEN  =     63745.37126553
  -Hartree energ DENC   =    -75587.01523055
  -exchange      EXHF   =         0.00000000
  -V(xc)+E(xc)   XCENC  =     -2087.09918325
  PAW double counting   =      8352.18998826    -5708.91856545
  entropy T*S    EENTRO =        -0.00000000
  eigenvalues    EBANDS =     -1238.34121408
  atomic energy  EATOM  =     11953.08265402
  Solvation  Ediel_sol  =         0.00000000
  ---------------------------------------------------
  free energy    TOTEN  =      -323.27125607 eV

  energy without entropy =     -323.27125607  energy(sigma->0) =     -323.27125607


--------------------------------------------------------------------------------------------------------




--------------------------------------- Iteration      1(  16)  ---------------------------------------


    POTLOK:  cpu time    0.3322: real time    0.3326
    SETDIJ:  cpu time    0.0122: real time    0.0122
    EDDIAG:  cpu time    2.7539: real time    2.7568
  RMM-DIIS:  cpu time   51.5738: real time   51.6847
    ORTHCH:  cpu time    0.2105: real time    0.2107
       DOS:  cpu time    0.0004: real time    0.0004
    CHARGE:  cpu time    1.2641: real time    1.2695
    MIXING:  cpu time    0.0085: real time    0.0085
    --------------------------------------------
      LOOP:  cpu time   56.1557: real time   56.2754

 eigenvalue-minimisations  :  2464
 total energy-change (2. order) :-0.5592782E-03  (-0.9549025E-04)
 number of electron     323.9999993 magnetization 
 augmentation part      -21.1885290 magnetization 

 Broyden mixing:
  rms(total) = 0.37961E-02    rms(broyden)= 0.37961E-02
  rms(prec ) = 0.47915E-02
  weight for this iteration     100.00

 eigenvalues of (default mixing * dielectric matrix)
  average eigenvalue GAMMA=   1.2830
  3.4505  2.3329  1.9691  1.9691  1.0840  0.7980  0.7980  0.5565  0.3646  0.4053
  0.3852

 Free energy of the ion-electron system (eV)
  ---------------------------------------------------
  alpha Z        PSCENC =       247.45902946
  Ewald energy   TEWEN  =     63745.37126553
  -Hartree energ DENC   =    -75588.78665858
  -exchange      EXHF   =         0.00000000
  -V(xc)+E(xc)   XCENC  =     -2087.09142520
  PAW double counting   =      8352.41003941    -5709.13848075
  entropy T*S    EENTRO =        -0.00000000
  eigenvalues    EBANDS =     -1236.57823924
  atomic energy  EATOM  =     11953.08265402
  Solvation  Ediel_sol  =         0.00000000
  ---------------------------------------------------
  free energy    TOTEN  =      -323.27181535 eV

  energy without entropy =     -323.27181535  energy(sigma->0) =     -323.27181535


--------------------------------------------------------------------------------------------------------




--------------------------------------- Iteration      1(  17)  ---------------------------------------


    POTLOK:  cpu time    0.3223: real time    0.3227
    SETDIJ:  cpu time    0.0119: real time    0.0119
    EDDIAG:  cpu time    2.7501: real time    2.7530
  RMM-DIIS:  cpu time   42.8043: real time   42.8562
    ORTHCH:  cpu time    0.2245: real time    0.2247
       DOS:  cpu time    0.0004: real time    0.0004
    CHARGE:  cpu time    1.2609: real time    1.2621
    MIXING:  cpu time    0.0087: real time    0.0087
    --------------------------------------------
      LOOP:  cpu time   47.3832: real time   47.4398

 eigenvalue-minimisations  :  2072
 total energy-change (2. order) :-0.1445494E-02  (-0.2744843E-04)
 number of electron     323.9999993 magnetization 
 augmentation part      -21.1847880 magnetization 

 Broyden mixing:
  rms(total) = 0.19568E-02    rms(broyden)= 0.19568E-02
  rms(prec ) = 0.26842E-02
  weight for this iteration     100.00

 eigenvalues of (default mixing * dielectric matrix)
  average eigenvalue GAMMA=   1.3346
  4.0084  2.4768  2.4768  1.4921  1.4921  0.7958  0.7958  0.7903  0.5339  0.4071
  0.3652  0.3807

 Free energy of the ion-electron system (eV)
  ---------------------------------------------------
  alpha Z        PSCENC =       247.45902946
  Ewald energy   TEWEN  =     63745.37126553
  -Hartree energ DENC   =    -75591.59282204
  -exchange      EXHF   =         0.00000000
  -V(xc)+E(xc)   XCENC  =     -2087.07346257
  PAW double counting   =      8351.54113702    -5708.28367684
  entropy T*S    EENTRO =        -0.00000000
  eigenvalues    EBANDS =     -1233.77738542
  atomic energy  EATOM  =     11953.08265402
  Solvation  Ediel_sol  =         0.00000000
  ---------------------------------------------------
  free energy    TOTEN  =      -323.27326084 eV

  energy without entropy =     -323.27326084  energy(sigma->0) =     -323.27326084


--------------------------------------------------------------------------------------------------------




--------------------------------------- Iteration      1(  18)  ---------------------------------------


    POTLOK:  cpu time    0.3334: real time    0.3337
    SETDIJ:  cpu time    0.0122: real time    0.0122
    EDDIAG:  cpu time    2.7761: real time    2.7833
  RMM-DIIS:  cpu time   44.1294: real time   44.2001
    ORTHCH:  cpu time    0.2254: real time    0.2256
       DOS:  cpu time    0.0004: real time    0.0004
    CHARGE:  cpu time    1.2669: real time    1.2680
    MIXING:  cpu time    0.0105: real time    0.0105
    --------------------------------------------
      LOOP:  cpu time   48.7543: real time   48.8339

 eigenvalue-minimisations  :  2128
 total energy-change (2. order) :-0.9263818E-03  (-0.2583468E-04)
 number of electron     323.9999993 magnetization 
 augmentation part      -21.1832888 magnetization 

 Broyden mixing:
  rms(total) = 0.17702E-02    rms(broyden)= 0.17702E-02
  rms(prec ) = 0.21609E-02
  weight for this iteration     100.00

 eigenvalues of (default mixing * dielectric matrix)
  average eigenvalue GAMMA=   1.3965
  5.0916  2.7964  2.3125  1.6318  1.6318  0.9757  0.8057  0.8057  0.5425  0.4119
  0.4119  0.3655  0.3710

 Free energy of the ion-electron system (eV)
  ---------------------------------------------------
  alpha Z        PSCENC =       247.45902946
  Ewald energy   TEWEN  =     63745.37126553
  -Hartree energ DENC   =    -75593.75129741
  -exchange      EXHF   =         0.00000000
  -V(xc)+E(xc)   XCENC  =     -2087.06492865
  PAW double counting   =      8350.84483434    -5707.58548872
  entropy T*S    EENTRO =        -0.00000000
  eigenvalues    EBANDS =     -1231.63025579
  atomic energy  EATOM  =     11953.08265402
  Solvation  Ediel_sol  =         0.00000000
  ---------------------------------------------------
  free energy    TOTEN  =      -323.27418722 eV

  energy without entropy =     -323.27418722  energy(sigma->0) =     -323.27418722


--------------------------------------------------------------------------------------------------------




--------------------------------------- Iteration      1(  19)  ---------------------------------------


    POTLOK:  cpu time    0.3257: real time    0.3271
    SETDIJ:  cpu time    0.0120: real time    0.0120
    EDDIAG:  cpu time    2.7515: real time    2.7544
  RMM-DIIS:  cpu time   45.1146: real time   45.1889
    ORTHCH:  cpu time    0.2208: real time    0.2210
       DOS:  cpu time    0.0004: real time    0.0004
    CHARGE:  cpu time    1.2658: real time    1.2715
    MIXING:  cpu time    0.0089: real time    0.0089
    --------------------------------------------
      LOOP:  cpu time   49.6998: real time   49.7843

 eigenvalue-minimisations  :  2173
 total energy-change (2. order) :-0.5507027E-03  (-0.1060082E-04)
 number of electron     323.9999993 magnetization 
 augmentation part      -21.1834164 magnetization 

 Broyden mixing:
  rms(total) = 0.10685E-02    rms(broyden)= 0.10685E-02
  rms(prec ) = 0.13385E-02
  weight for this iteration     100.00

 eigenvalues of (default mixing * dielectric matrix)
  average eigenvalue GAMMA=   1.5169
  6.3062  3.0125  2.3166  1.8833  1.8833  1.0626  1.0626  0.8003  0.8003  0.5578
  0.4135  0.4024  0.3642  0.3716

 Free energy of the ion-electron system (eV)
  ---------------------------------------------------
  alpha Z        PSCENC =       247.45902946
  Ewald energy   TEWEN  =     63745.37126553
  -Hartree energ DENC   =    -75595.03596959
  -exchange      EXHF   =         0.00000000
  -V(xc)+E(xc)   XCENC  =     -2087.06255732
  PAW double counting   =      8350.60901047    -5707.34424098
  entropy T*S    EENTRO =        -0.00000000
  eigenvalues    EBANDS =     -1230.35392953
  atomic energy  EATOM  =     11953.08265402
  Solvation  Ediel_sol  =         0.00000000
  ---------------------------------------------------
  free energy    TOTEN  =      -323.27473793 eV

  energy without entropy =     -323.27473793  energy(sigma->0) =     -323.27473793


--------------------------------------------------------------------------------------------------------




--------------------------------------- Iteration      1(  20)  ---------------------------------------


    POTLOK:  cpu time    0.3342: real time    0.3346
    SETDIJ:  cpu time    0.0161: real time    0.0161
    EDDIAG:  cpu time    2.7398: real time    2.7471
  RMM-DIIS:  cpu time   42.4734: real time   42.5471
    ORTHCH:  cpu time    0.2278: real time    0.2280
       DOS:  cpu time    0.0004: real time    0.0004
    CHARGE:  cpu time    1.2622: real time    1.2634
    MIXING:  cpu time    0.0100: real time    0.0100
    --------------------------------------------
      LOOP:  cpu time   47.0639: real time   47.1467

 eigenvalue-minimisations  :  2066
 total energy-change (2. order) :-0.5257103E-03  (-0.8520369E-05)
 number of electron     323.9999993 magnetization 
 augmentation part      -21.1810364 magnetization 

 Broyden mixing:
  rms(total) = 0.50791E-03    rms(broyden)= 0.50791E-03
  rms(prec ) = 0.62822E-03
  weight for this iteration     100.00

 eigenvalues of (default mixing * dielectric matrix)
  average eigenvalue GAMMA=   1.5171
  6.7392  3.1540  2.4324  1.8199  1.8199  1.1723  1.1723  0.8035  0.8035  0.7234
  0.5625  0.4146  0.4032  0.3711  0.3640

 Free energy of the ion-electron system (eV)
  ---------------------------------------------------
  alpha Z        PSCENC =       247.45902946
  Ewald energy   TEWEN  =     63745.37126553
  -Hartree energ DENC   =    -75595.53194028
  -exchange      EXHF   =         0.00000000
  -V(xc)+E(xc)   XCENC  =     -2087.06312013
  PAW double counting   =      8351.03860060    -5707.77446113
  entropy T*S    EENTRO =        -0.00000000
  eigenvalues    EBANDS =     -1229.85729170
  atomic energy  EATOM  =     11953.08265402
  Solvation  Ediel_sol  =         0.00000000
  ---------------------------------------------------
  free energy    TOTEN  =      -323.27526364 eV

  energy without entropy =     -323.27526364  energy(sigma->0) =     -323.27526364


--------------------------------------------------------------------------------------------------------




--------------------------------------- Iteration      1(  21)  ---------------------------------------


    POTLOK:  cpu time    0.3287: real time    0.3290
    SETDIJ:  cpu time    0.0119: real time    0.0119
    EDDIAG:  cpu time    2.7699: real time    2.7728
  RMM-DIIS:  cpu time   46.6176: real time   46.6880
    ORTHCH:  cpu time    0.2177: real time    0.2179
       DOS:  cpu time    0.0004: real time    0.0004
    CHARGE:  cpu time    1.2753: real time    1.2765
    MIXING:  cpu time    0.0093: real time    0.0093
    --------------------------------------------
      LOOP:  cpu time   51.2307: real time   51.3057

 eigenvalue-minimisations  :  2212
 total energy-change (2. order) :-0.1230030E-03  (-0.2232968E-05)
 number of electron     323.9999993 magnetization 
 augmentation part      -21.1811065 magnetization 

 Broyden mixing:
  rms(total) = 0.49983E-03    rms(broyden)= 0.49983E-03
  rms(prec ) = 0.60270E-03
  weight for this iteration     100.00

 eigenvalues of (default mixing * dielectric matrix)
  average eigenvalue GAMMA=   1.5263
  7.0776  3.2851  2.5180  1.8354  1.8354  1.6824  1.0797  1.0000  0.7978  0.7978
  0.5621  0.3639  0.3695  0.4137  0.4008  0.4008

 Free energy of the ion-electron system (eV)
  ---------------------------------------------------
  alpha Z        PSCENC =       247.45902946
  Ewald energy   TEWEN  =     63745.37126553
  -Hartree energ DENC   =    -75595.69360470
  -exchange      EXHF   =         0.00000000
  -V(xc)+E(xc)   XCENC  =     -2087.06322526
  PAW double counting   =      8351.15027005    -5707.88803502
  entropy T*S    EENTRO =        -0.00000000
  eigenvalues    EBANDS =     -1229.69374072
  atomic energy  EATOM  =     11953.08265402
  Solvation  Ediel_sol  =         0.00000000
  ---------------------------------------------------
  free energy    TOTEN  =      -323.27538664 eV

  energy without entropy =     -323.27538664  energy(sigma->0) =     -323.27538664


--------------------------------------------------------------------------------------------------------




--------------------------------------- Iteration      1(  22)  ---------------------------------------


    POTLOK:  cpu time    0.3264: real time    0.3267
    SETDIJ:  cpu time    0.0155: real time    0.0156
    EDDIAG:  cpu time    2.7640: real time    2.7716
  RMM-DIIS:  cpu time   37.2434: real time   37.3073
    ORTHCH:  cpu time    0.2317: real time    0.2319
       DOS:  cpu time    0.0004: real time    0.0004
    CHARGE:  cpu time    1.2659: real time    1.2671
    MIXING:  cpu time    0.0094: real time    0.0094
    --------------------------------------------
      LOOP:  cpu time   41.8569: real time   41.9300

 eigenvalue-minimisations  :  1735
 total energy-change (2. order) :-0.8784174E-04  (-0.7072513E-06)
 number of electron     323.9999993 magnetization 
 augmentation part      -21.1821968 magnetization 

 Broyden mixing:
[...]
  0.000  -0.000   0.000  -0.000  -0.000   0.011   0.000   0.000
 -0.000   0.000  -0.000   0.000  -0.000   0.000   0.011   0.000
  0.000   0.000  -0.000  -0.000   0.000   0.000   0.000   0.011
  0.001   0.000  -0.001  -0.000   0.001   0.000   0.000   0.000
 -0.000   0.000  -0.014   0.000  -0.000  -0.000   0.000   0.000
 -0.009  -0.000  -0.000  -0.018   0.000  -0.000  -0.000  -0.000
 -0.000   0.000  -0.000  -0.001  -0.014   0.000   0.000  -0.000
 -0.001  -0.000   0.000  -0.000  -0.001   0.000   0.000   0.000
 total augmentation occupancy for first ion, spin component:           1
  1.936   0.197  -0.002   0.200   0.003   0.002   0.035   0.009  -0.002   0.000   0.006   0.002   0.000
  0.197   1.326   0.007  -0.927  -0.028  -0.012   0.369   0.011   0.010  -0.000  -0.020   0.004  -0.004
 -0.002   0.007   1.327   0.004  -0.002  -0.472   0.000  -0.000  -0.008  -0.115  -0.001  -0.001  -0.043
  0.200  -0.927   0.004   1.494   0.009   0.000  -0.533  -0.015   0.001   0.000  -0.038  -0.005   0.000
  0.003  -0.028  -0.002   0.009   1.343  -0.000  -0.015  -0.468  -0.042  -0.001  -0.000  -0.115  -0.001
  0.002  -0.012  -0.472   0.000  -0.000   0.299   0.000   0.010   0.001   0.037   0.001  -0.001   0.008
  0.035   0.369   0.000  -0.533  -0.015   0.000   0.281   0.005   0.000  -0.000   0.044   0.003  -0.000
  0.009   0.011  -0.000  -0.015  -0.468   0.010   0.005   0.289   0.007  -0.001  -0.000   0.038   0.000
 -0.002   0.010  -0.008   0.001  -0.042   0.001   0.000   0.007   0.019   0.000  -0.001  -0.000  -0.001
  0.000  -0.000  -0.115   0.000  -0.001   0.037  -0.000  -0.001   0.000   0.018   0.000   0.001  -0.000
  0.006  -0.020  -0.001  -0.038  -0.000   0.001   0.044  -0.000  -0.001   0.000   0.019   0.001   0.000
  0.002   0.004  -0.001  -0.005  -0.115  -0.001   0.003   0.038  -0.000   0.001   0.001   0.017   0.001
  0.000  -0.004  -0.043   0.000  -0.001   0.008  -0.000   0.000  -0.001  -0.000   0.000   0.001   0.019


------------------------ aborting loop because EDIFF is reached ----------------------------------------


    CHARGE:  cpu time    1.2610: real time    1.2624
    FORLOC:  cpu time    0.0928: real time    0.0929
    FORNL :  cpu time   14.3292: real time   14.3582
    STRESS:  cpu time   75.5626: real time   75.6886
    FORCOR:  cpu time    0.3774: real time    0.3777
    FORHAR:  cpu time    0.1583: real time    0.1584
    MIXING:  cpu time    0.0088: real time    0.0088
    OFIELD:  cpu time    0.0000: real time    0.0000

  Number of pair interactions contributing to vdW energy:  271402
  Edisp (eV):  -19.68367
    FORVDW:  cpu time    0.0297: real time    0.0297

  FORCE on cell =-STRESS in cart. coord.  units (eV):
  Direction    XX          YY          ZZ          XY          YZ          ZX
  --------------------------------------------------------------------------------------
  Alpha Z   247.45903   247.45903   247.45903
  Ewald   72883.34037 72961.14952-82085.92036    92.47388    29.32083    -4.80803
  Hartree 75222.65201 75242.94529-74860.16941    25.30580     3.50978    -2.02705
  E(xc)   -1356.05941 -1357.08147 -1374.94510    -1.55565    -1.07372    -0.10331
  Local  ************************151882.25197  -114.22364   -31.86660     6.76643
  n-local  3556.33893  3557.57833  3740.08305    -2.43497     7.54077     0.57246
  augment  -760.89489  -759.67396  -800.78104     2.39725    -1.19487    -0.15707
  Kinetic  3288.90401  3297.52535  3267.37039    24.00101     4.73283    -0.09945
  Fock        0.00000     0.00000     0.00000     0.00000     0.00000     0.00000
  vdW       -12.99938   -12.41688    -9.09261     0.12636    -0.15666    -0.23361
  -------------------------------------------------------------------------------------
  Total      -1.88045    12.30218     6.25591    26.09005    10.81236    -0.08962
  in kB      -1.03885     6.79631     3.45606    14.41339     5.97327    -0.04951
  external pressure =        3.07 kB  Pullay stress =        0.00 kB

  kinetic pressure (ideal gas correction) =      0.23 kB
  total pressure  =      3.30 kB
  Total+kin.    -0.793       7.033       3.655      14.460       5.928      -0.011

 VOLUME and BASIS-vectors are now :
 -----------------------------------------------------------------------------
  energy-cutoff  :      550.00
  volume of cell :     2900.14
      direct lattice vectors                 reciprocal lattice vectors
    10.614820082  0.000000000  0.000000000     0.094207909  0.060431132  0.001028775
    -5.852963815  9.124361292  0.000000000     0.000000000  0.109596712  0.001857499
    -0.001448880 -0.507498947 29.943603516     0.000000000  0.000000000  0.033396114

  length of vectors
    10.614820082 10.840256197 29.947903914     0.111929041  0.109612452  0.033396114


 FORCES acting on ions
    electron-ion (+dipol)            ewald-force                    non-local-force                 convergence-correction
 -----------------------------------------------------------------------------------------------
   -.183E+01 0.205E+01 -.846E+03   0.174E+01 -.215E+01 0.852E+03   0.196E+00 0.905E-01 -.554E+01   -.379E-03 -.117E-02 -.946E-03
   -.239E+01 -.596E+00 -.846E+03   0.230E+01 0.569E+00 0.852E+03   0.241E+00 0.287E+00 -.543E+01   -.305E-03 -.105E-02 0.108E-02
   0.158E+00 0.512E-01 -.844E+03   -.259E+00 -.537E-01 0.849E+03   0.480E-01 0.332E-01 -.523E+01   -.394E-04 0.176E-02 0.603E-03
   0.339E+00 0.334E+01 -.846E+03   -.460E+00 -.337E+01 0.851E+03   0.761E-01 -.288E+00 -.526E+01   0.497E-03 -.664E-03 -.126E-02
   -.383E+01 -.118E+01 -.843E+03   0.369E+01 0.116E+01 0.848E+03   0.418E+00 0.210E+00 -.511E+01   0.398E-03 0.121E-03 0.338E-03
   -.312E+01 -.601E+00 -.847E+03   0.305E+01 0.584E+00 0.852E+03   0.278E+00 0.174E+00 -.511E+01   0.999E-03 0.172E-02 -.151E-03
   -.579E+01 0.192E+01 -.842E+03   0.571E+01 -.202E+01 0.847E+03   0.546E+00 0.365E-01 -.512E+01   -.106E-03 -.101E-02 -.180E-02
   -.289E+01 -.489E+01 -.847E+03   0.282E+01 0.493E+01 0.852E+03   0.329E+00 0.364E+00 -.522E+01   0.177E-04 -.121E-02 0.560E-03
   -.455E+01 -.291E+00 -.844E+03   0.449E+01 0.306E+00 0.850E+03   0.407E+00 0.916E-01 -.514E+01   -.104E-02 0.161E-02 -.565E-03
   -.232E+01 0.996E+00 0.119E+03   0.234E+01 -.105E+01 -.113E+03   0.155E+00 0.205E+00 -.537E+01   -.138E-02 -.183E-03 -.514E-04
   -.244E+00 -.457E+00 0.120E+03   0.171E+00 0.416E+00 -.114E+03   0.125E+00 0.202E+00 -.514E+01   0.389E-04 -.916E-03 0.306E-03
   -.122E+01 0.654E+00 0.121E+03   0.124E+01 -.724E+00 -.116E+03   -.329E-01 0.158E+00 -.555E+01   -.426E-03 0.240E-04 0.125E-02
   -.527E+01 -.658E+00 0.119E+03   0.525E+01 0.604E+00 -.114E+03   0.357E+00 0.285E+00 -.506E+01   0.115E-02 0.891E-03 -.420E-03
   -.372E+01 -.676E+00 0.119E+03   0.371E+01 0.645E+00 -.114E+03   0.226E+00 0.135E+00 -.500E+01   0.760E-03 0.130E-03 -.721E-03
   -.283E+01 -.642E+00 0.119E+03   0.278E+01 0.614E+00 -.114E+03   0.185E+00 0.868E-01 -.520E+01   0.125E-02 0.100E-02 -.779E-04
   -.726E+00 -.125E+01 0.121E+03   0.673E+00 0.122E+01 -.116E+03   0.569E-01 0.217E+00 -.539E+01   0.260E-03 -.809E-03 -.138E-02
   -.394E+01 0.822E+00 0.118E+03   0.392E+01 -.902E+00 -.113E+03   0.258E+00 0.119E+00 -.517E+01   -.802E-03 -.750E-03 -.625E-03
   -.260E+01 0.529E+00 0.118E+03   0.257E+01 -.594E+00 -.112E+03   0.870E-01 0.356E-01 -.538E+01   -.729E-03 0.830E-03 -.587E-03
   -.293E+01 0.172E-01 -.121E+03   0.287E+01 0.568E-01 0.116E+03   0.238E+00 -.211E+00 0.522E+01   -.410E-03 -.124E-02 0.715E-03
   -.339E+01 0.347E+00 -.118E+03   0.333E+01 -.289E+00 0.113E+03   0.315E+00 -.119E+00 0.539E+01   -.312E-03 -.108E-02 -.141E-02
   -.319E+01 -.107E+00 -.120E+03   0.317E+01 0.184E+00 0.115E+03   0.222E+00 -.154E+00 0.524E+01   -.415E-04 0.172E-02 -.846E-03
   -.434E+01 0.175E+01 -.119E+03   0.430E+01 -.167E+01 0.114E+03   0.388E+00 -.461E+00 0.523E+01   0.429E-03 -.707E-03 0.899E-03
   -.585E+01 -.677E+00 -.120E+03   0.578E+01 0.743E+00 0.115E+03   0.460E+00 -.169E+00 0.536E+01   0.390E-03 0.130E-03 -.687E-03
   -.482E+01 -.300E+01 -.118E+03   0.479E+01 0.311E+01 0.113E+03   0.374E+00 0.598E-01 0.527E+01   0.101E-02 0.167E-02 -.139E-03
   0.729E+00 0.371E+01 -.121E+03   -.869E+00 -.376E+01 0.116E+03   0.217E-01 -.325E+00 0.545E+01   -.518E-04 -.107E-02 0.127E-02
   0.628E+00 0.483E+00 -.119E+03   -.755E+00 -.483E+00 0.114E+03   0.102E+00 -.116E+00 0.517E+01   0.897E-05 -.132E-02 -.911E-03
   0.183E+01 0.329E+01 -.119E+03   -.191E+01 -.324E+01 0.114E+03   -.237E+00 -.451E+00 0.538E+01   -.975E-03 0.161E-02 0.249E-03
   -.188E+01 0.315E+01 0.846E+03   0.181E+01 -.313E+01 -.851E+03   0.195E+00 -.331E+00 0.541E+01   -.132E-02 -.104E-03 0.517E-03
   -.142E+01 -.553E+00 0.845E+03   0.138E+01 0.636E+00 -.850E+03   0.700E-01 -.154E+00 0.522E+01   0.999E-04 -.103E-02 -.283E-04
   -.180E+01 0.477E+00 0.841E+03   0.174E+01 -.425E+00 -.846E+03   0.165E+00 -.220E+00 0.518E+01   -.437E-03 -.244E-04 -.717E-03
   -.342E+01 0.146E+01 0.848E+03   0.330E+01 -.138E+01 -.853E+03   0.314E+00 -.334E+00 0.521E+01   0.113E-02 0.972E-03 0.734E-03
   -.240E+01 -.726E+00 0.843E+03   0.237E+01 0.793E+00 -.849E+03   0.821E-01 -.119E+00 0.515E+01   0.772E-03 -.688E-05 0.108E-02
   -.155E+01 0.202E+01 0.847E+03   0.142E+01 -.200E+01 -.853E+03   0.182E+00 -.381E+00 0.518E+01   0.124E-02 0.103E-02 0.454E-03
   -.317E+01 0.278E+00 0.845E+03   0.309E+01 -.183E+00 -.850E+03   0.335E+00 -.344E+00 0.522E+01   0.118E-03 -.777E-03 0.162E-02
   -.237E+01 0.165E+01 0.844E+03   0.231E+01 -.154E+01 -.850E+03   0.212E-01 -.638E+00 0.495E+01   -.738E-03 -.831E-03 0.896E-03
   -.436E+01 0.620E+00 0.847E+03   0.431E+01 -.573E+00 -.853E+03   0.303E+00 -.323E+00 0.531E+01   -.816E-03 0.793E-03 0.112E-02
   0.534E+01 -.840E+00 -.485E+03   -.547E+01 0.899E+00 0.485E+03   -.202E+00 0.336E+00 0.126E-01   -.814E-03 0.750E-04 -.278E-03
   0.314E+01 -.809E+00 -.481E+03   -.326E+01 0.885E+00 0.481E+03   -.496E-01 -.529E-01 0.296E-01   -.307E-03 -.223E-02 -.246E-03
   0.611E+01 -.104E+00 -.486E+03   -.625E+01 0.108E+00 0.486E+03   -.381E-01 -.111E+00 0.603E-01   -.674E-03 0.101E-02 -.216E-03
   0.458E+01 -.104E+01 -.482E+03   -.470E+01 0.113E+01 0.482E+03   -.536E-01 0.264E+00 0.204E+00   0.119E-03 0.664E-03 -.206E-03
   0.628E+01 0.614E+00 -.483E+03   -.657E+01 -.636E+00 0.483E+03   -.417E+00 -.190E+00 -.466E-01   0.958E-04 -.130E-02 -.252E-03
   0.538E+01 0.770E+00 -.484E+03   -.555E+01 -.870E+00 0.484E+03   -.230E+00 -.109E+00 -.106E+00   0.583E-03 0.121E-02 -.235E-03
   0.409E+01 0.828E+00 -.481E+03   -.427E+01 -.912E+00 0.480E+03   -.315E+00 0.142E+00 -.419E+00   0.776E-03 0.626E-03 -.286E-03
   0.696E+01 -.346E+01 -.483E+03   -.716E+01 0.358E+01 0.483E+03   -.454E+00 0.338E+00 -.312E+00   0.158E-03 -.136E-02 -.296E-03
   0.193E+01 -.191E+01 -.480E+03   -.207E+01 0.199E+01 0.480E+03   0.138E+00 0.685E-01 -.344E+00   0.341E-03 0.161E-02 -.248E-03
   0.752E+01 0.201E+01 0.483E+03   -.776E+01 -.197E+01 -.484E+03   -.340E+00 -.251E+00 0.925E-01   -.788E-04 0.813E-03 0.244E-03
   0.542E+01 0.107E+01 0.477E+03   -.558E+01 -.114E+01 -.477E+03   -.961E-01 -.560E-01 -.216E+00   0.204E-03 -.403E-03 0.138E-03
   0.592E+01 -.536E+00 0.484E+03   -.602E+01 0.573E+00 -.484E+03   -.661E-01 -.463E-01 0.152E+00   0.711E-03 0.583E-04 0.291E-03
   0.456E+01 -.213E+01 0.486E+03   -.475E+01 0.219E+01 -.486E+03   -.107E+00 0.274E+00 0.285E+00   0.133E-02 0.754E-03 0.311E-03
   0.219E+01 -.241E+00 0.481E+03   -.229E+01 0.233E+00 -.481E+03   0.649E-01 0.856E-01 0.608E-03   0.318E-03 0.191E-03 0.190E-03
   0.366E+01 -.199E+01 0.483E+03   -.375E+01 0.209E+01 -.483E+03   -.129E+00 0.158E+00 0.849E-01   0.712E-03 0.635E-03 0.279E-03
   0.316E+01 -.419E+00 0.485E+03   -.323E+01 0.444E+00 -.485E+03   -.563E-01 0.146E+00 0.107E+00   -.106E-02 -.458E-04 0.316E-03
   0.492E+01 0.371E+00 0.482E+03   -.504E+01 -.352E+00 -.482E+03   -.836E-01 0.578E-02 0.239E+00   -.480E-03 -.147E-02 0.224E-03
   0.427E+01 -.456E+01 0.482E+03   -.445E+01 0.476E+01 -.482E+03   -.227E-01 0.426E+00 0.317E+00   -.133E-02 -.436E-03 0.241E-03
 -----------------------------------------------------------------------------------------------
   -.505E+01 0.926E+00 -.233E+00   0.782E-13 -.355E-13 0.568E-12   0.505E+01 -.921E+00 0.234E+00   0.874E-03 0.472E-03 0.350E-03
 
 
 POSITION                                       TOTAL-FORCE (eV/Angst)
 -----------------------------------------------------------------------------------
      1.71642      0.68459     20.30449         0.109917     -0.017876     -0.166897
     -0.23711      3.69745     20.30164         0.154547      0.249015     -0.107908
     -2.17683      6.76763     20.26475        -0.038298      0.031484      0.190246
      5.26537      0.70031     20.28597        -0.029359     -0.312613      0.127090
      3.29789      3.71037     20.26129         0.290985      0.185254      0.320406
      1.32950      6.75283     20.29036         0.213895      0.149873      0.214368
      8.76336      0.70016     20.25740         0.462519     -0.055373      0.309100
      6.83818      3.70117     20.29225         0.258246      0.388375      0.142453
      4.84942      6.75695     20.27296         0.343090      0.099036      0.243118
     -0.12793      1.79993     13.29012         0.187186      0.129065     -0.102219
     -2.07249      4.85369     13.26302         0.063937      0.149924      0.207593
     -4.00608      7.90159     13.27696         0.006391      0.082432     -0.206204
      3.41592      1.79726     13.26150         0.341217      0.216148      0.223427
      1.46663      4.85819     13.25634         0.228554      0.090210      0.346249
     -0.47851      7.89871     13.26529         0.151815      0.051601      0.078426
      6.96286      1.79598     13.25906         0.018902      0.176773     -0.028927
      4.99630      4.85801     13.26789         0.244031      0.023861      0.170244
      3.06107      7.90505     13.28937         0.072417     -0.036805     -0.148971
      1.70865      0.72267     16.68040         0.173386     -0.128342     -0.146455
     -0.24725      3.75492     16.65522         0.248303     -0.048039      0.090735
     -2.19915      6.78690     16.67894         0.199365     -0.069787     -0.145279
      5.23439      0.73509     16.67888         0.336185     -0.373384     -0.152006
      3.28783      3.75996     16.67703         0.375285     -0.093594     -0.046840
      1.31536      6.77583     16.66269         0.331189      0.171054     -0.008950
      8.81237      0.73265     16.67334        -0.113678     -0.359277      0.062293
      6.84888      3.75722     16.68199        -0.022066     -0.106777     -0.189597
      4.91753      6.81843     16.66089        -0.303713     -0.374095      0.067971
     -0.12808      1.88604      9.64728         0.133745     -0.302852      0.086981
     -2.04811      4.88846      9.66942         0.038516     -0.069833     -0.167633
     -4.02059      7.95574      9.69534         0.117311     -0.163428     -0.296788
      3.41106      1.88095      9.64810         0.201637     -0.246511     -0.149862
      1.47421      4.87803      9.68612         0.055254     -0.056014     -0.233326
     -0.47184      7.94549      9.64914         0.065715     -0.352610     -0.185387
      6.94135      1.87065      9.66296         0.246605     -0.241449     -0.201357
      5.02015      4.93201      9.68519        -0.032045     -0.507549     -0.455174
      3.03608      7.94884      9.64077         0.251310     -0.268602     -0.019601
      4.76579      8.79170     18.47665        -0.344687      0.407249      0.148067
     -1.95704      2.73835     18.46987        -0.180987     -0.002491      0.073169
      6.69127      5.76399     18.47505        -0.194618     -0.109414      0.222121
     -2.32461      8.79875     18.46393        -0.176171      0.345808      0.331912
      1.59274      2.72778     18.47844        -0.716539     -0.234533     -0.029302
     -0.36642      5.75960     18.48205        -0.421475     -0.203632     -0.056700
      1.22099      8.79196     18.49327        -0.496710      0.073732     -0.626602
      5.14925      2.70211     18.49583        -0.679115      0.446888     -0.420477
      3.13868      5.76672     18.48451         0.009470      0.152117     -0.491455
      1.70736      0.85290     11.46241        -0.616234     -0.251948      0.035955
     -0.25785      3.85770     11.49130        -0.262138     -0.126868     -0.255416
     -2.19184      6.90297     11.45686        -0.189380     -0.022367      0.123224
      5.23066      0.80070     11.43917        -0.288606      0.348242      0.341678
      3.28483      3.85345     11.47119        -0.036579      0.089964     -0.024268
      1.33961      6.89801     11.46084        -0.234848      0.250520      0.090586
      8.77656      0.80734     11.45541        -0.143041      0.178516      0.060244
      6.82152      3.86608     11.45468        -0.216470      0.009199      0.299431
      4.85919      6.88914     11.45882        -0.192408      0.645411      0.457732
 -----------------------------------------------------------------------------------
    total drift:                                0.001758      0.005687      0.001218


--------------------------------------------------------------------------------------------------------



  FREE ENERGIE OF THE ION-ELECTRON SYSTEM (eV)
  ---------------------------------------------------
  free  energy   TOTEN  =      -342.87525461 eV

  energy  without entropy=     -342.87525461  energy(sigma->0) =     -342.87525461
 
 d Force =-0.1681131E-01[-0.189E-01,-0.148E-01]  d Energy =-0.1677482E-01-0.365E-04
 d Force =-0.3263340E+00[-0.332E+00,-0.321E+00]  d Ewald  =-0.3263364E+00 0.235E-05


--------------------------------------------------------------------------------------------------------


    POTLOK:  cpu time    0.3530: real time    0.3533


--------------------------------------------------------------------------------------------------------


           RANDOM_SEED =         173188650              324                0
   IONSTEP:  cpu time    0.0001: real time    0.0001

  ENERGY OF THE ELECTRON-ION-THERMOSTAT SYSTEM (eV)
  ---------------------------------------------------
% ion-electron   TOTEN  =      -342.875255  see above
  kinetic energy EKIN   =         0.610433
  kin. lattice  EKIN_LAT=         0.000000  (temperature   89.10 K)
  nose potential ES     =        -0.012445
  nose kinetic   EPS    =         0.001006
  ---------------------------------------------------
  total energy   ETOTAL =      -342.276261 eV

  maximum distance moved by ions :      0.67E-03


 mean value of Nose-termostat <S>:     0.986 mean value of <T> :    89.104
 mean temperature <T/S>/<1/S>  :    89.104

    WAVPRE:  cpu time    0.1143: real time    0.1176
    FEWALD:  cpu time    0.0014: real time    0.0014
    ORTHCH:  cpu time    8.4565: real time    8.4702
    POTLOK:  cpu time    0.3519: real time    0.3522
    EDDIAG:  cpu time    2.7940: real time    2.7969
     LOOP+:  cpu time  499.8076: real time  500.6326
    4ORBIT:  cpu time    0.0000: real time    0.0000

 total amount of memory used by VASP MPI-rank0   371329. kBytes
=======================================================================

   base      :      30000. kBytes
   nonl-proj :     195747. kBytes
   fftplans  :      19943. kBytes
   grid      :      90496. kBytes
   one-center:        839. kBytes
   wavefun   :      34304. kBytes
 
  
  
 General timing and accounting informations for this job:
 ========================================================
  
                  Total CPU time used (sec):     6073.714
                            User time (sec):     6059.065
                          System time (sec):       14.650
                         Elapsed time (sec):     6084.596
  
                   Maximum memory used (kb):      831520.
                   Average memory used (kb):           0.
  
                          Minor page faults:       386466
                          Major page faults:            0
                 Voluntary context switches:          630
