-3.436042015099999958e+02
-3.436012539100000254e+02
-3.435928929799999878e+02
-3.435793099699999971e+02
-3.435608199199999717e+02
-3.435378528599999868e+02
-3.435109355999999821e+02
-3.434806641199999717e+02
-3.434476805400000217e+02
-3.434126532600000132e+02
-3.432901889699999742e+02
-3.432917956100000083e+02
-3.432891473700000233e+02
-3.432824017400000116e+02
-3.432718375499999865e+02
-3.432578434100000209e+02
-3.432408997300000237e+02
-3.432215577700000040e+02
-3.432004134200000180e+02
-3.431780870100000129e+02
-3.420981318199999919e+02
-3.421025584000000208e+02
-3.421105163400000038e+02
-3.421219922799999722e+02
-3.421369878599999765e+02
-3.421555103900000177e+02
-3.421775526199999717e+02
-3.422030770399999824e+02
-3.422319926999999780e+02
-3.422641452899999877e+02
-3.419552302499999996e+02
-3.419627002899999866e+02
-3.419696392700000160e+02
-3.419759670500000084e+02
-3.419817156099999806e+02
-3.419870101299999874e+02
-3.419920564700000227e+02
-3.419971235500000262e+02
-3.420025106800000003e+02
-3.420085283199999822e+02
-3.428264654199999768e+02
-3.428341718600000263e+02
-3.428394363699999872e+02
-3.428421604800000182e+02
-3.428423225500000058e+02
-3.428399885900000186e+02
-3.428353002700000047e+02
-3.428284727800000269e+02
-3.428197779800000262e+02
-3.428095354700000144e+02
-3.424568717899999797e+02
-3.424720096099999864e+02
-3.424867432300000019e+02
-3.425008116899999777e+02
-3.425140116900000180e+02
-3.425262188799999876e+02
-3.425373784399999977e+02
-3.425475234200000045e+02
-3.425567580200000180e+02
-3.425652617700000064e+02
-3.412703260900000259e+02
-3.412707220400000097e+02
-3.412764259599999832e+02
-3.412873725399999785e+02
-3.413034366200000136e+02
-3.413244340900000111e+02
-3.413501200800000106e+02
-3.413801889900000219e+02
-3.414142807000000062e+02
-3.414519849399999885e+02
-3.423559516700000245e+02
-3.423540927799999736e+02
-3.423493952599999943e+02
-3.423420676599999979e+02
-3.423324226700000281e+02
-3.423208609900000283e+02
-3.423078479600000037e+02
-3.422938865300000089e+02
-3.422794966499999987e+02
-3.422651844499999925e+02
-3.427280322600000204e+02
-3.427253647699999988e+02
-3.427177626199999736e+02
-3.427054379599999834e+02
-3.426887452899999857e+02
-3.426681494700000030e+02
-3.426442119499999990e+02
-3.426175613199999930e+02
-3.425888763199999971e+02
-3.425588507400000253e+02
-3.424064287599999830e+02
-3.424047926200000234e+02
-3.424012715900000217e+02
-3.423960339800000270e+02
-3.423893539100000112e+02
-3.423815984199999889e+02
-3.423732052700000281e+02
-3.423646643100000233e+02
-3.423564841900000033e+02
-3.423491807699999754e+02
-3.430693871899999863e+02
-3.430697077799999875e+02
-3.430669870500000229e+02
-3.430612966400000232e+02
-3.430527920200000267e+02
-3.430417028200000118e+02
-3.430283302000000276e+02
-3.430130384400000025e+02
-3.429962388600000054e+02
-3.429783760400000006e+02
-3.426165600400000244e+02
-3.426055184699999927e+02
-3.425939977200000044e+02
-3.425822205399999802e+02
-3.425704384300000243e+02
-3.425589281599999936e+02
-3.425479787699999861e+02
-3.425378954700000236e+02
-3.425289816999999744e+02
-3.425215358599999718e+02
-3.424659317200000146e+02
-3.424778478499999892e+02
-3.424889044199999830e+02
-3.424989975699999718e+02
-3.425081405999999902e+02
-3.425164493999999991e+02
-3.425241299599999820e+02
-3.425314569299999903e+02
-3.425387393199999906e+02
-3.425462944700000207e+02
-3.424737203099999761e+02
-3.424805316900000207e+02
-3.424869353000000274e+02
-3.424930748099999960e+02
-3.424992043299999978e+02
-3.425056586000000038e+02
-3.425128286799999842e+02
-3.425211251499999889e+02
-3.425309434200000283e+02
-3.425426286000000005e+02
-3.422646746500000177e+02
-3.422541958799999975e+02
-3.422444043899999997e+02
-3.422354955299999801e+02
-3.422276686499999983e+02
-3.422211227899999813e+02
-3.422160489699999744e+02
-3.422126185899999768e+02
-3.422109749499999793e+02
-3.422112248199999840e+02
-3.422370185799999831e+02
-3.422362008499999888e+02
-3.422341274500000168e+02
-3.422309532200000035e+02
-3.422268812899999944e+02
-3.422221615099999781e+02
-3.422170712800000274e+02
-3.422119093900000166e+02
-3.422069861900000092e+02
-3.422026136399999814e+02
-3.426096254000000272e+02
-3.426118760699999939e+02
-3.426110445799999979e+02
-3.426071943700000020e+02
-3.426004802699999914e+02
-3.425911414700000250e+02
-3.425794819199999779e+02
-3.425658612299999959e+02
-3.425506688899999972e+02
-3.425343071799999848e+02
-3.425412179100000003e+02
-3.425368637899999840e+02
-3.425279725600000233e+02
-3.425147573300000090e+02
-3.424975488200000200e+02
-3.424767736700000000e+02
-3.424529406600000243e+02
-3.424266287199999965e+02
-3.423984522399999832e+02
-3.423690537499999778e+02
-3.425947739800000136e+02
-3.425994464300000004e+02
-3.426039967699999806e+02
-3.426083619300000009e+02
-3.426125228899999797e+02
-3.426164969299999825e+02
-3.426203415599999857e+02
-3.426241455100000053e+02
-3.426280387599999813e+02
-3.426321706400000267e+02
-3.426939968300000032e+02
-3.426929586900000118e+02
-3.426881329000000278e+02
-3.426796298699999852e+02
-3.426676770000000261e+02
-3.426526098699999920e+02
-3.426348603299999809e+02
-3.426149452399999973e+02
-3.425934395400000199e+02
-3.425709648600000037e+02
-3.427232899200000134e+02
-3.427147904899999844e+02
-3.427037773999999786e+02
-3.426905118299999913e+02
-3.426753232600000274e+02
-3.426586086099999875e+02
-3.426408087799999862e+02
-3.426224060800000188e+02
-3.426039017200000103e+02
-3.425858150700000238e+02
-3.429647226499999988e+02
-3.429586849300000040e+02
-3.429490364999999770e+02
-3.429360141899999803e+02
-3.429199532700000077e+02
-3.429012753100000168e+02
-3.428804746800000203e+02
-3.428580866300000025e+02
-3.428346904800000061e+02
-3.428108701699999870e+02
-3.426917175199999974e+02
-3.426964885200000026e+02
-3.426974076000000196e+02
-3.426945597499999963e+02
-3.426881556600000067e+02
-3.426785075999999890e+02
-3.426660279199999763e+02
-3.426512007399999789e+02
-3.426345735200000036e+02
-3.426167237399999976e+02
-3.426289844899999935e+02
-3.426214110299999902e+02
-3.426100731000000224e+02
-3.425951862499999834e+02
-3.425770640599999979e+02
-3.425561005600000044e+02
-3.425327513899999872e+02
-3.425075145100000213e+02
-3.424809143100000028e+02
-3.424534759699999995e+02
-3.425652813400000127e+02
-3.425631052800000020e+02
-3.425592674399999851e+02
-3.425538744899999983e+02
-3.425470917499999928e+02
-3.425391368499999771e+02
-3.425302783199999794e+02
-3.425208223399999952e+02
-3.425111071399999787e+02
-3.425014910900000018e+02
-3.425225291099999936e+02
-3.425300123399999848e+02
-3.425353360899999871e+02
-3.425384031500000219e+02
-3.425392041100000142e+02
-3.425378181599999721e+02
-3.425344094399999904e+02
-3.425292139399999769e+02
-3.425225265400000012e+02
-3.425146827099999882e+02
-3.429260713099999975e+02
-3.429216082300000039e+02
-3.429154967299999726e+02
-3.429078772999999956e+02
-3.428989489400000252e+02
-3.428889573800000221e+02
-3.428781896200000006e+02
-3.428669631999999865e+02
-3.428556193800000074e+02
-3.428445106699999769e+02
-3.431242350499999816e+02
-3.431226468599999748e+02
-3.431168759000000250e+02
-3.431070709599999873e+02
-3.430934917600000063e+02
-3.430764921800000025e+02
-3.430565082900000107e+02
-3.430340391999999952e+02
-3.430096283999999969e+02
-3.429838460500000110e+02
-3.422998833999999988e+02
-3.422934676400000171e+02
-3.422837547899999890e+02
-3.422709429299999897e+02
-3.422553256599999827e+02
-3.422372609600000146e+02
-3.422171720399999799e+02
-3.421955249999999751e+02
-3.421728222200000005e+02
-3.421495913900000119e+02
-3.429370369299999766e+02
-3.429453428300000155e+02
-3.429492274799999905e+02
-3.429486657900000068e+02
-3.429437633499999833e+02
-3.429347425600000179e+02
-3.429219440400000281e+02
-3.429058033200000182e+02
-3.428868314800000121e+02
-3.428655931200000282e+02
-3.428124897800000213e+02
-3.428161849599999869e+02
-3.428157959700000106e+02
-3.428113743700000100e+02
-3.428031068600000140e+02
-3.427913084200000071e+02
-3.427764000500000066e+02
-3.427588840199999822e+02
-3.427393183099999874e+02
-3.427182806899999719e+02
-3.417452935200000184e+02
-3.417442516899999987e+02
-3.417498738300000127e+02
-3.417621991699999739e+02
-3.417812542899999926e+02
-3.418070270599999958e+02
-3.418394462800000042e+02
-3.418783460199999809e+02
-3.419234407899999724e+02
-3.419742955899999970e+02
-3.434295647499999973e+02
-3.434275285200000098e+02
-3.434200998900000172e+02
-3.434074435599999902e+02
-3.433898821899999803e+02
-3.433678900200000044e+02
-3.433420583500000021e+02
-3.433130810100000190e+02
-3.432817162900000199e+02
-3.432487676299999748e+02
-3.429428438200000073e+02
-3.429436363500000198e+02
-3.429399191399999722e+02
-3.429318687200000113e+02
-3.429198033200000282e+02
-3.429041649600000028e+02
-3.428855064300000208e+02
-3.428644628100000205e+02
-3.428417245800000046e+02
-3.428180197400000111e+02
-3.415631571200000280e+02
-3.415687522399999807e+02
-3.415786735300000032e+02
-3.415929817900000103e+02
-3.416117535899999780e+02
-3.416350600100000179e+02
-3.416629445400000122e+02
-3.416953881900000169e+02
-3.417322831199999769e+02
-3.417734009399999877e+02
-3.428493863200000078e+02
-3.428441453099999876e+02
-3.428360584499999959e+02
-3.428254442499999755e+02
-3.428127525900000023e+02
-3.427985506900000132e+02
-3.427834953600000176e+02
-3.427682981099999893e+02
-3.427537082000000055e+02
-3.427404712399999767e+02
-3.430987251299999912e+02
-3.431013659000000189e+02
-3.431005207200000200e+02
-3.430963358899999776e+02
-3.430890977700000235e+02
-3.430792070399999716e+02
-3.430671598199999721e+02
-3.430535232099999803e+02
-3.430388947800000210e+02
-3.430238847699999951e+02
-3.429291769800000225e+02
-3.429281073000000220e+02
-3.429235157100000038e+02
-3.429155302600000255e+02
-3.429043568700000151e+02
-3.428902612699999963e+02
-3.428735645200000022e+02
-3.428546276600000056e+02
-3.428338376400000129e+02
-3.428115911699999856e+02
-3.429381592600000204e+02
-3.429318970699999909e+02
-3.429212890200000174e+02
-3.429066080599999964e+02
-3.428882588999999825e+02
-3.428667443100000014e+02
-3.428426595600000155e+02
-3.428166442899999993e+02
-3.427893730700000106e+02
-3.427615266000000247e+02
-3.426340817000000243e+02
-3.426377964900000279e+02
-3.426390430100000231e+02
-3.426378171399999815e+02
-3.426342168699999888e+02
-3.426284201400000029e+02
-3.426206925800000249e+02
-3.426113679299999717e+02
-3.426008411299999921e+02
-3.425895380499999874e+02
-3.408302661199999761e+02
-3.408324382199999718e+02
-3.408419885999999792e+02
-3.408589021799999728e+02
-3.408831751499999996e+02
-3.409147968699999751e+02
-3.409537018600000238e+02
-3.409997260900000242e+02
-3.410525652800000103e+02
-3.411117366299999958e+02
-3.415324253300000237e+02
-3.415363633200000208e+02
-3.415442335100000264e+02
-3.415559202499999856e+02
-3.415712818499999912e+02
-3.415901327099999776e+02
-3.416122612099999856e+02
-3.416374249099999929e+02
-3.416653532299999938e+02
-3.416957533699999772e+02
-3.427433568800000216e+02
-3.427506824499999993e+02
-3.427549730800000134e+02
-3.427562423499999795e+02
-3.427546130599999969e+02
-3.427503069800000048e+02
-3.427436374100000194e+02
-3.427349833000000103e+02
-3.427247735299999931e+02
-3.427134650099999931e+02
-3.430710647199999812e+02
-3.430704196400000114e+02
-3.430657271100000116e+02
-3.430571176099999775e+02
-3.430448370799999793e+02
-3.430292212900000095e+02
-3.430106956399999945e+02
-3.429897515600000020e+02
-3.429669327500000122e+02
-3.429428169799999750e+02
-3.429526484500000265e+02
-3.429459940200000005e+02
-3.429369792400000279e+02
-3.429257829200000174e+02
-3.429126492199999916e+02
-3.428978747300000123e+02
-3.428818005300000209e+02
-3.428647954200000072e+02
-3.428472548099999813e+02
-3.428295853600000100e+02
-3.428307911300000228e+02
-3.428338217200000031e+02
-3.428340283399999748e+02
-3.428315577399999938e+02
-3.428267183500000215e+02
-3.428199536199999784e+02
-3.428118168699999728e+02
-3.428029255399999897e+02
-3.427939338200000066e+02
-3.427854869099999746e+02
-3.428231696199999874e+02
-3.428333880399999885e+02
-3.428415581500000258e+02
-3.428475791199999776e+02
-3.428514488600000050e+02
-3.428532532899999978e+02
-3.428531698300000130e+02
-3.428514509299999986e+02
-3.428484090000000037e+02
-3.428444023199999720e+02
-3.425280877199999736e+02
-3.425246048100000280e+02
-3.425175852699999837e+02
-3.425072017400000277e+02
-3.424937316300000134e+02
-3.424775529199999937e+02
-3.424591240799999809e+02
-3.424389733200000023e+02
-3.424176747000000205e+02
-3.423958363099999929e+02
-3.422229292600000008e+02
-3.422333066799999983e+02
-3.422429241599999727e+02
-3.422516575500000044e+02
-3.422594735700000115e+02
-3.422664164700000242e+02
-3.422726183999999989e+02
-3.422782760700000040e+02
-3.422836454999999773e+02
-3.422890149300000076e+02
-3.425409015899999758e+02
-3.425511684699999932e+02
-3.425591983400000231e+02
-3.425650371899999982e+02
-3.425688893199999825e+02
-3.425711015900000120e+02
-3.425721389400000021e+02
-3.425725612200000114e+02
-3.425729757199999881e+02
-3.425740086999999789e+02
-3.429412660799999912e+02
-3.429350595899999803e+02
-3.429278117000000066e+02
-3.429198011299999962e+02
-3.429113682600000175e+02
-3.429028998399999750e+02
-3.428948051300000088e+02
-3.428875080299999922e+02
-3.428814029900000264e+02
-3.428768538499999750e+02
-3.429762031700000193e+02
-3.429730020399999830e+02
-3.429655100800000014e+02
-3.429538910499999815e+02
-3.429384195700000078e+02
-3.429194650499999852e+02
-3.428974773699999901e+02
-3.428729689599999801e+02
-3.428464931099999831e+02
-3.428186316200000192e+02
-3.423902323400000114e+02
-3.424022055799999862e+02
-3.424119380999999862e+02
-3.424193215299999906e+02
-3.424243402500000002e+02
-3.424270743800000218e+02
-3.424276935299999991e+02
-3.424264523900000086e+02
-3.424236770499999807e+02
-3.424197508099999823e+02
-3.427398363600000266e+02
-3.427334225800000240e+02
-3.427223610400000098e+02
-3.427068403900000249e+02
-3.426872124800000279e+02
-3.426639819999999759e+02
-3.426377750899999910e+02
-3.426093182100000263e+02
-3.425794032499999844e+02
-3.425488592400000130e+02
-3.424504927599999746e+02
-3.424578746999999908e+02
-3.424628721500000097e+02
-3.424653617600000075e+02
-3.424653382399999941e+02
-3.424629106099999944e+02
-3.424582928199999969e+02
-3.424517952400000240e+02
-3.424437977599999954e+02
-3.424347371499999895e+02
-3.428928152600000203e+02
-3.428919856200000140e+02
-3.428867045100000155e+02
-3.428771431600000028e+02
-3.428635824300000081e+02
-3.428464010000000144e+02
-3.428260547699999847e+02
-3.428030599699999925e+02
-3.427779784200000108e+02
-3.427514019299999859e+02
-3.424603632100000254e+02
-3.424661590700000033e+02
-3.424720477999999844e+02
-3.424779973999999925e+02
-3.424840256900000099e+02
-3.424901955700000258e+02
-3.424966090300000019e+02
-3.425033888699999807e+02
-3.425106651799999895e+02
-3.425185647499999959e+02
-3.428553403000000230e+02
-3.428548371599999882e+02
-3.428511307300000226e+02
-3.428443084900000031e+02
-3.428345236200000272e+02
-3.428219967900000142e+02
-3.428070104500000070e+02
-3.427898971700000175e+02
-3.427710273100000222e+02
-3.427507929000000217e+02
-3.422452702499999759e+02
-3.422476681499999813e+02
-3.422512624199999891e+02
-3.422560393900000122e+02
-3.422619913999999994e+02
-3.422691236399999752e+02
-3.422774519399999917e+02
-3.422869984700000145e+02
-3.422977864200000226e+02
-3.423098420399999782e+02
-3.428990403199999832e+02
-3.428993322800000101e+02
-3.428950839099999826e+02
-3.428864583800000219e+02
-3.428737456900000211e+02
-3.428573489199999926e+02
-3.428377605700000004e+02
-3.428155472700000246e+02
-3.427913254499999880e+02
-3.427657341299999985e+02
-3.429684466200000088e+02
-3.429584482500000036e+02
-3.429448576500000172e+02
-3.429279058600000099e+02
-3.429079269700000054e+02
-3.428853405400000156e+02
-3.428606389999999919e+02
-3.428343723899999986e+02
-3.428071256399999811e+02
-3.427795071300000131e+02
-3.419371401299999889e+02
-3.419431062099999963e+02
-3.419509078599999725e+02
-3.419604861799999753e+02
-3.419717799200000172e+02
-3.419847247199999742e+02
-3.419992629800000259e+02
-3.420153313899999716e+02
-3.420328735300000176e+02
-3.420518356100000119e+02
-3.417324976699999866e+02
-3.417336407500000064e+02
-3.417358876999999779e+02
-3.417392586799999776e+02
-3.417438221099999964e+02
-3.417496874000000275e+02
-3.417569979799999942e+02
-3.417659034999999790e+02
-3.417765490699999873e+02
-3.417890519599999948e+02
-3.425813746499999866e+02
-3.425875447399999985e+02
-3.425923239900000112e+02
-3.425958457899999985e+02
-3.425983623500000022e+02
-3.426002152899999942e+02
-3.426018175599999722e+02
-3.426036260299999867e+02
-3.426061064500000271e+02
-3.426097052900000222e+02
-3.428543814199999815e+02
-3.428577528700000130e+02
-3.428595661400000267e+02
-3.428599434000000201e+02
-3.428590920199999914e+02
-3.428572892700000239e+02
-3.428548788200000104e+02
-3.428522580200000220e+02
-3.428498654399999737e+02
-3.428481559300000185e+02
-3.422643998500000180e+02
-3.422560265299999855e+02
-3.422436302599999749e+02
-3.422275803699999983e+02
-3.422083469199999968e+02
-3.421864782000000105e+02
-3.421625795100000005e+02
-3.421372783599999821e+02
-3.421112120899999809e+02
-3.420850016200000141e+02
-3.430013018099999726e+02
-3.429999341500000014e+02
-3.429973749900000257e+02
-3.429938417600000093e+02
-3.429896280500000216e+02
-3.429850854499999855e+02
-3.429806116699999734e+02
-3.429766224100000045e+02
-3.429735386199999994e+02
-3.429717535899999916e+02
-3.430526177599999755e+02
-3.430528745600000207e+02
-3.430492558799999756e+02
-3.430419415000000072e+02
-3.430311969499999805e+02
-3.430173652600000196e+02
-3.430008502800000088e+02
-3.429821061700000087e+02
-3.429616089900000020e+02
-3.429398540600000160e+02
-3.421912760199999752e+02
-3.422003063099999736e+02
-3.422112126299999773e+02
-3.422238533600000210e+02
-3.422380844699999898e+02
-3.422537626000000159e+02
-3.422707505100000276e+02
-3.422889232900000138e+02
-3.423081666900000073e+02
-3.423283811200000173e+02
-3.430794506400000046e+02
-3.430787117500000249e+02
-3.430749287599999775e+02
-3.430682575399999905e+02
-3.430589432300000112e+02
-3.430473136100000033e+02
-3.430337620299999912e+02
-3.430187286600000220e+02
-3.430026763000000187e+02
-3.429860811099999864e+02
-3.429913143100000070e+02
-3.429961534199999846e+02
-3.429977138799999921e+02
-3.429960452299999929e+02
-3.429912936299999728e+02
-3.429836934699999915e+02
-3.429735665000000040e+02
-3.429613029899999788e+02
-3.429473501100000021e+02
-3.429321903800000086e+02
-3.415997955299999944e+02
-3.416011770100000149e+02
-3.416047436100000141e+02
-3.416104614899999774e+02
-3.416182990199999949e+02
-3.416282056800000078e+02
-3.416401317099999915e+02
-3.416540190100000132e+02
-3.416697952200000259e+02
-3.416873835600000007e+02
-3.429294285999999943e+02
-3.429305130000000190e+02
-3.429269314000000008e+02
-3.429187082099999770e+02
-3.429060146799999984e+02
-3.428891694299999813e+02
-3.428686145799999849e+02
-3.428448990800000047e+02
-3.428186512799999832e+02
-3.427905553599999848e+02
-3.430006205600000158e+02
-3.430068208399999889e+02
-3.430094902800000227e+02
-3.430088063900000179e+02
-3.430050921499999959e+02
-3.429987958799999888e+02
-3.429904587099999844e+02
-3.429806762000000049e+02
-3.429700826100000199e+02
-3.429592955900000106e+02
-3.424641666900000132e+02
-3.424597716700000092e+02
-3.424555863599999839e+02
-3.424517301999999859e+02
-3.424483728600000063e+02
-3.424457214500000077e+02
-3.424440115300000116e+02
-3.424434913700000038e+02
-3.424444014300000276e+02
-3.424469685700000241e+02
-3.423587968100000012e+02
-3.423528888800000232e+02
-3.423469104499999958e+02
-3.423410107500000095e+02
-3.423353541100000257e+02
-3.423301260299999740e+02
-3.423255326199999899e+02
-3.423217844199999718e+02
-3.423190984299999968e+02
-3.423176848300000188e+02
-3.424639662000000158e+02
-3.424829792300000122e+02
-3.425011556599999949e+02
-3.425183035499999846e+02
-3.425342934299999911e+02
-3.425490508899999895e+02
-3.425625669500000186e+02
-3.425748946599999840e+02
-3.425861427699999808e+02
-3.425964779999999905e+02
-3.423397666000000186e+02
-3.423457197999999835e+02
-3.423482683799999791e+02
-3.423474984999999720e+02
-3.423436055999999894e+02
-3.423368738199999939e+02
-3.423276701099999855e+02
-3.423164291599999842e+02
-3.423036304099999825e+02
-3.422897808199999758e+02
-3.422932913099999723e+02
-3.422942504100000178e+02
-3.422970572699999821e+02
-3.423017042999999830e+02
-3.423081816100000196e+02
-3.423164688400000273e+02
-3.423265441699999769e+02
-3.423383851400000140e+02
-3.423519596699999852e+02
-3.423672343000000069e+02
-3.431759158899999989e+02
-3.431731655500000215e+02
-3.431656063699999777e+02
-3.431534522700000025e+02
-3.431370470900000100e+02
-3.431168354000000136e+02
-3.430933509800000252e+02
-3.430671893300000193e+02
-3.430389823599999772e+02
-3.430093830100000218e+02
-3.433064435699999990e+02
-3.433031217899999774e+02
-3.432950247499999819e+02
-3.432823698700000250e+02
-3.432654931399999896e+02
-3.432448412400000279e+02
-3.432209501699999805e+02
-3.431944238699999801e+02
-3.431659044900000026e+02
-3.431360584399999993e+02
-3.428720688600000130e+02
-3.428645702300000266e+02
-3.428544378000000279e+02
-3.428419918899999743e+02
-3.428276318999999717e+02
-3.428118456700000252e+02
-3.427951618199999757e+02
-3.427781493200000114e+02
-3.427614019000000098e+02
-3.427455111500000271e+02
-3.430667978700000162e+02
-3.430639505099999838e+02
-3.430583762800000045e+02
-3.430503012099999864e+02
-3.430400700499999971e+02
-3.430281367599999953e+02
-3.430150380599999949e+02
-3.430013572500000123e+02
-3.429877007000000049e+02
-3.429746622700000103e+02
-3.428260927200000197e+02
-3.428253089799999884e+02
-3.428206288399999835e+02
-3.428123077999999850e+02
-3.428007307899999887e+02
-3.427863785800000187e+02
-3.427698154099999783e+02
-3.427516569300000242e+02
-3.427325374399999873e+02
-3.427130933799999752e+02
-3.412686172800000008e+02
-3.412765816699999846e+02
-3.412876043900000127e+02
-3.413015817699999843e+02
-3.413183896400000208e+02
-3.413378893899999866e+02
-3.413599251499999809e+02
-3.413843303599999786e+02
-3.414109218199999987e+02
-3.414395091600000001e+02
-3.430106944600000247e+02
-3.430109538199999974e+02
-3.430078220600000236e+02
-3.430014089000000013e+02
-3.429919303400000103e+02
-3.429796857900000191e+02
-3.429650565499999857e+02
-3.429484851400000025e+02
-3.429304678099999819e+02
-3.429115284000000088e+02
-3.428853940999999850e+02
-3.428835979199999997e+02
-3.428759909999999991e+02
-3.428628094399999782e+02
-3.428444587800000249e+02
-3.428214865300000156e+02
-3.427945607199999927e+02
-3.427644300599999951e+02
-3.427319006000000172e+02
-3.426977984200000265e+02
-3.429176320899999837e+02
-3.429134638200000040e+02
-3.429032275000000141e+02
-3.428871630300000106e+02
-3.428656842999999981e+02
-3.428393679499999962e+02
-3.428089217699999836e+02
-3.427751505300000190e+02
-3.427389235699999972e+02
-3.427011456399999929e+02
-3.431030741000000148e+02
-3.431063642199999890e+02
-3.431050235700000144e+02
-3.430990991599999802e+02
-3.430887582299999963e+02
-3.430742771800000241e+02
-3.430560323700000254e+02
-3.430344735900000046e+02
-3.430101153800000020e+02
-3.429835049800000206e+02
-3.429809292400000231e+02
-3.429819558400000119e+02
-3.429782742599999779e+02
-3.429699689400000011e+02
-3.429572453499999938e+02
-3.429404260599999930e+02
-3.429199264200000243e+02
-3.428962434800000096e+02
-3.428699253199999930e+02
-3.428415549800000122e+02
-3.428573108200000092e+02
-3.428583943699999850e+02
-3.428561767200000077e+02
-3.428507768900000201e+02
-3.428424124100000085e+02
-3.428313787499999989e+02
-3.428180491100000040e+02
-3.428028511300000218e+02
-3.427862560500000200e+02
-3.427687625300000036e+02
-3.409166446099999916e+02
-3.409420635500000003e+02
-3.409733202599999800e+02
-3.410099962200000050e+02
-3.410515871000000061e+02
-3.410975119500000119e+02
-3.411471215600000164e+02
-3.411997220299999753e+02
-3.412545848699999738e+02
-3.413109841599999754e+02
-3.420702473700000041e+02
-3.420745574800000099e+02
-3.420802518500000247e+02
-3.420872954499999992e+02
-3.420956604699999843e+02
-3.421053271200000268e+02
-3.421162790000000200e+02
-3.421285015600000179e+02
-3.421419955200000231e+02
-3.421567612000000054e+02
-3.434474727499999744e+02
-3.434468096699999933e+02
-3.434411998499999754e+02
-3.434308131399999979e+02
-3.434159525499999859e+02
-3.433970426100000282e+02
-3.433746092399999839e+02
-3.433492484500000046e+02
-3.433216124799999989e+02
-3.432923758900000166e+02
-3.427581895899999722e+02
-3.427577645800000141e+02
-3.427539319699999965e+02
-3.427468256000000224e+02
-3.427366784299999836e+02
-3.427238166500000034e+02
-3.427086394099999893e+02
-3.426916105899999820e+02
-3.426732314700000188e+02
-3.426540348400000084e+02
-3.423069014899999729e+02
-3.423001970199999846e+02
-3.422954585699999939e+02
-3.422929358100000172e+02
-3.422928878999999824e+02
-3.422955694699999754e+02
-3.423012117200000262e+02
-3.423099931300000094e+02
-3.423220311399999787e+02
-3.423373448400000143e+02
-3.425545510000000036e+02
-3.425495104699999729e+02
-3.425444780799999762e+02
-3.425395278099999814e+02
-3.425347696599999949e+02
-3.425303374599999984e+02
-3.425263948799999980e+02
-3.425231185299999765e+02
-3.425207014399999821e+02
-3.425193342900000175e+02
-3.427256708699999876e+02
-3.427298580899999934e+02
-3.427307938899999726e+02
-3.427284379199999762e+02
-3.427228514600000153e+02
-3.427141984200000024e+02
-3.427027380600000015e+02
-3.426888159100000166e+02
-3.426728396199999906e+02
-3.426552709499999878e+02
-3.431337093000000209e+02
-3.431327206099999785e+02
-3.431273689199999808e+02
-3.431178523300000052e+02
-3.431044929400000001e+02
-3.430877252399999975e+02
-3.430680682500000103e+02
-3.430461187000000223e+02
-3.430225164099999802e+02
-3.429979301500000020e+02
-3.430131899599999770e+02
-3.430186093899999946e+02
-3.430226127199999837e+02
-3.430252701800000068e+02
-3.430267440000000079e+02
-3.430272768799999881e+02
-3.430271740100000102e+02
-3.430267865999999799e+02
-3.430264832299999966e+02
-3.430266364899999871e+02
-3.426331505499999821e+02
-3.426238056400000005e+02
-3.426125862700000084e+02
-3.425997767900000213e+02
-3.425856977799999754e+02
-3.425707003399999735e+02
-3.425551504000000023e+02
-3.425394185800000173e+02
-3.425238595299999815e+02
-3.425088094100000262e+02
-3.426605694900000003e+02
-3.426576869900000020e+02
-3.426530299500000183e+02
-3.426467655000000150e+02
-3.426391214000000218e+02
-3.426303775100000166e+02
-3.426208610200000066e+02
-3.426109292400000186e+02
-3.426009646599999883e+02
-3.425913649600000213e+02
-3.414902655500000037e+02
-3.414943630800000278e+02
-3.415022702800000047e+02
-3.415139381399999934e+02
-3.415292840199999773e+02
-3.415481891300000257e+02
-3.415704980500000261e+02
-3.415960239999999999e+02
-3.416245486700000242e+02
-3.416558217699999886e+02
-3.429166851699999938e+02
-3.429187663600000064e+02
-3.429180432499999824e+02
-3.429145833300000277e+02
-3.429085737699999754e+02
-3.429003053399999885e+02
-3.428901649599999928e+02
-3.428786053700000025e+02
-3.428661299600000234e+02
-3.428532567899999890e+02
-3.423756826299999716e+02
-3.423766994100000147e+02
-3.423767030600000112e+02
-3.423758730600000035e+02
-3.423745357600000148e+02
-3.423731424200000220e+02
-3.423722318200000245e+02
-3.423723944199999778e+02
-3.423742252399999870e+02
-3.423782852400000252e+02
-3.433948634899999774e+02
-3.433953063600000064e+02
-3.433917400600000178e+02
-3.433843107800000212e+02
-3.433732946999999740e+02
-3.433590919499999927e+02
-3.433422002600000269e+02
-3.433232001900000228e+02
-3.433027257200000122e+02
-3.432814360500000248e+02
-3.431398593600000027e+02
-3.431458371400000260e+02
-3.431482219700000087e+02
-3.431470458200000166e+02
-3.431424422200000208e+02
-3.431346352699999898e+02
-3.431239372300000241e+02
-3.431107288000000040e+02
-3.430954518300000018e+02
-3.430785897499999919e+02
-3.429288928500000111e+02
-3.429422009699999876e+02
-3.429522347199999786e+02
-3.429589673799999900e+02
-3.429625123499999972e+02
-3.429631149499999765e+02
-3.429611391799999751e+02
-3.429570445800000016e+02
-3.429513626400000135e+02
-3.429446676800000091e+02
-3.413729837299999872e+02
-3.413527008699999783e+02
-3.413370090000000232e+02
-3.413263676799999757e+02
-3.413212518700000260e+02
-3.413221210699999801e+02
-3.413293987100000209e+02
-3.413434385499999735e+02
-3.413644772800000169e+02
-3.413926116100000172e+02
-3.426203365599999984e+02
-3.426256275200000232e+02
-3.426304466799999773e+02
-3.426348066900000049e+02
-3.426387841600000002e+02
-3.426425144500000215e+02
-3.426461813700000221e+02
-3.426500197899999876e+02
-3.426542959799999721e+02
-3.426593024000000014e+02
-3.413734521100000165e+02
-3.413760423800000012e+02
-3.413829241700000239e+02
-3.413941827099999955e+02
-3.414099530400000049e+02
-3.414303881199999751e+02
-3.414556293200000141e+02
-3.414857650600000056e+02
-3.415207954800000039e+02
-3.415605830299999752e+02
-3.433832268900000031e+02
-3.433812432999999942e+02
-3.433744598200000269e+02
-3.433630833899999857e+02
-3.433474502999999913e+02
-3.433280005999999958e+02
-3.433052641900000026e+02
-3.432798329600000216e+02
-3.432523389500000235e+02
-3.432234258199999886e+02
-3.417822848000000135e+02
-3.417771696199999951e+02
-3.417746461899999986e+02
-3.417748231200000077e+02
-3.417778025800000137e+02
-3.417836789300000078e+02
-3.417925388599999792e+02
-3.418044427599999722e+02
-3.418194431900000154e+02
-3.418375610300000176e+02
-3.431645208699999898e+02
-3.431631056699999931e+02
-3.431567633000000228e+02
-3.431457048600000235e+02
-3.431302656400000046e+02
-3.431108854299999962e+02
-3.430880973999999810e+02
-3.430624966299999983e+02
-3.430347195300000180e+02
-3.430054242900000077e+02
-3.431911054400000012e+02
-3.431890306099999748e+02
-3.431828698300000156e+02
-3.431728231399999913e+02
-3.431592040500000280e+02
-3.431424426300000050e+02
-3.431230489399999897e+02
-3.431016020199999730e+02
-3.430787262900000201e+02
-3.430550675800000135e+02
-3.431999667900000190e+02
-3.431951691799999935e+02
-3.431866747999999916e+02