0.000000000000000000e+00 2.032270000000000021e+00 9.535519999999999996e+00 -1.760000000000000009e+00 5.080680000000000085e+00 9.535519999999999996e+00 -3.520000000000000018e+00 8.129089999999999705e+00 9.535519999999999996e+00 3.520000000000000018e+00 2.032270000000000021e+00 9.535519999999999996e+00 1.760000000000000009e+00 5.080680000000000085e+00 9.535519999999999996e+00 0.000000000000000000e+00 8.129089999999999705e+00 9.535519999999999996e+00 7.040000000000000036e+00 2.032270000000000021e+00 9.535519999999999996e+00 5.280000000000000249e+00 5.080680000000000085e+00 9.535519999999999996e+00 3.520000000000000018e+00 8.129089999999999705e+00 9.535519999999999996e+00 0.000000000000000000e+00 8.129100000000000215e-01 1.683811000000000035e+01 -1.760000000000000009e+00 3.861320000000000086e+00 1.683811000000000035e+01 -3.520000000000000018e+00 6.909729999999999706e+00 1.683811000000000035e+01 3.520000000000000018e+00 8.129100000000000215e-01 1.683811000000000035e+01 1.760000000000000009e+00 3.861320000000000086e+00 1.683811000000000035e+01 0.000000000000000000e+00 6.909729999999999706e+00 1.683811000000000035e+01 7.040000000000000036e+00 8.129100000000000215e-01 1.683811000000000035e+01 5.280000000000000249e+00 3.861320000000000086e+00 1.683811000000000035e+01 3.520000000000000018e+00 6.909729999999999706e+00 1.683811000000000035e+01 0.000000000000000000e+00 2.032270000000000021e+00 1.316219000000000072e+01 -1.760000000000000009e+00 5.080680000000000085e+00 1.316219000000000072e+01 -3.520000000000000018e+00 8.129089999999999705e+00 1.316219000000000072e+01 3.520000000000000018e+00 2.032270000000000021e+00 1.316219000000000072e+01 1.760000000000000009e+00 5.080680000000000085e+00 1.316219000000000072e+01 0.000000000000000000e+00 8.129089999999999705e+00 1.316219000000000072e+01 7.040000000000000036e+00 2.032270000000000021e+00 1.316219000000000072e+01 5.280000000000000249e+00 5.080680000000000085e+00 1.316219000000000072e+01 3.520000000000000018e+00 8.129089999999999705e+00 1.316219000000000072e+01 0.000000000000000000e+00 8.129100000000000215e-01 2.046469000000000094e+01 -1.760000000000000009e+00 3.861320000000000086e+00 2.046469000000000094e+01 -3.520000000000000018e+00 6.909729999999999706e+00 2.046469000000000094e+01 3.520000000000000018e+00 8.129100000000000215e-01 2.046469000000000094e+01 1.760000000000000009e+00 3.861320000000000086e+00 2.046469000000000094e+01 0.000000000000000000e+00 6.909729999999999706e+00 2.046469000000000094e+01 7.040000000000000036e+00 8.129100000000000215e-01 2.046469000000000094e+01 5.280000000000000249e+00 3.861320000000000086e+00 2.046469000000000094e+01 3.520000000000000018e+00 6.909729999999999706e+00 2.046469000000000094e+01 0.000000000000000000e+00 0.000000000000000000e+00 1.134816999999999965e+01 -1.760000000000000009e+00 3.048410000000000064e+00 1.134816999999999965e+01 -3.520000000000000018e+00 6.096820000000000128e+00 1.134816999999999965e+01 3.520000000000000018e+00 0.000000000000000000e+00 1.134816999999999965e+01 1.760000000000000009e+00 3.048410000000000064e+00 1.134816999999999965e+01 0.000000000000000000e+00 6.096820000000000128e+00 1.134816999999999965e+01 7.040000000000000036e+00 0.000000000000000000e+00 1.134816999999999965e+01 5.280000000000000249e+00 3.048410000000000064e+00 1.134816999999999965e+01 3.520000000000000018e+00 6.096820000000000128e+00 1.134816999999999965e+01 1.760000000000000009e+00 1.829050000000000065e+00 1.865137000000000000e+01 0.000000000000000000e+00 4.877460000000000129e+00 1.865137000000000000e+01 -1.760000000000000009e+00 7.925860000000000127e+00 1.865137000000000000e+01 5.280000000000000249e+00 1.829050000000000065e+00 1.865137000000000000e+01 3.520000000000000018e+00 4.877460000000000129e+00 1.865137000000000000e+01 1.760000000000000009e+00 7.925860000000000127e+00 1.865137000000000000e+01 8.800000000000000711e+00 1.829050000000000065e+00 1.865137000000000000e+01 7.040000000000000036e+00 4.877460000000000129e+00 1.865137000000000000e+01 5.280000000000000249e+00 7.925860000000000127e+00 1.865137000000000000e+01
-4.000000000000000192e-04 2.032280000000000086e+00 9.534090000000000842e+00 -1.761470000000000091e+00 5.077160000000000117e+00 9.540139999999999176e+00 -3.518759999999999888e+00 8.126490000000000435e+00 9.534390000000000143e+00 3.519239999999999924e+00 2.030930000000000124e+00 9.538349999999999440e+00 1.759749999999999925e+00 5.079830000000000290e+00 9.532099999999999795e+00 -2.400000000000000061e-04 8.128560000000000230e+00 9.535819999999999297e+00 7.041009999999999991e+00 2.032300000000000217e+00 9.537900000000000489e+00 5.282099999999999795e+00 5.082639999999999603e+00 9.535669999999999646e+00 3.520239999999999814e+00 8.127019999999999911e+00 9.536170000000000258e+00 -2.200000000000000133e-03 8.127199999999999980e-01 1.683783999999999992e+01 -1.760399999999999965e+00 3.861479999999999801e+00 1.684039999999999893e+01 -3.524690000000000101e+00 6.908199999999999896e+00 1.683937999999999846e+01 3.519730000000000025e+00 8.122000000000000330e-01 1.683864000000000161e+01 1.762250000000000094e+00 3.861050000000000093e+00 1.683728999999999942e+01 -1.309999999999999967e-03 6.910470000000000113e+00 1.683774999999999977e+01 7.040879999999999583e+00 8.140300000000000313e-01 1.683735000000000070e+01 5.278400000000000425e+00 3.862830000000000208e+00 1.683836000000000155e+01 3.523320000000000007e+00 6.911539999999999573e+00 1.684102999999999994e+01 -2.020000000000000094e-03 2.032000000000000028e+00 1.316192999999999991e+01 -1.759160000000000057e+00 5.080289999999999750e+00 1.316255999999999915e+01 -3.517529999999999824e+00 8.128539999999999210e+00 1.316493999999999964e+01 3.519289999999999807e+00 2.033850000000000158e+00 1.315984000000000087e+01 1.758119999999999905e+00 5.080879999999999619e+00 1.315930999999999962e+01 -1.940000000000000101e-03 8.130649999999999267e+00 1.316155999999999970e+01 7.040989999999999860e+00 2.031800000000000050e+00 1.316173000000000037e+01 5.280339999999999812e+00 5.081660000000000288e+00 1.316502000000000017e+01 3.520410000000000039e+00 8.129509999999999792e+00 1.316039999999999921e+01 8.000000000000000383e-04 8.148800000000000487e-01 2.046324999999999861e+01 -1.759260000000000046e+00 3.860529999999999795e+00 2.046462999999999965e+01 -3.519600000000000062e+00 6.907689999999999664e+00 2.046388999999999925e+01 3.520230000000000192e+00 8.131300000000000194e-01 2.046550999999999831e+01 1.757300000000000084e+00 3.862439999999999873e+00 2.046717999999999904e+01 1.660000000000000017e-03 6.906830000000000247e+00 2.046377999999999986e+01 7.039900000000000269e+00 8.113899999999999446e-01 2.046461000000000041e+01 5.278430000000000177e+00 3.860289999999999999e+00 2.046454999999999913e+01 3.521199999999999886e+00 6.909559999999999924e+00 2.046505000000000152e+01 1.709999999999999932e-03 2.399999999999999790e-03 1.134994000000000014e+01 -1.759719999999999951e+00 3.049910000000000121e+00 1.134754000000000040e+01 7.039419999999999789e+00 6.096330000000000027e+00 1.134760999999999953e+01 -1.756529999999999925e+00 9.144360000000000710e+00 1.134878999999999927e+01 1.760450000000000070e+00 3.047649999999999970e+00 1.134934999999999938e+01 1.600000000000000131e-04 6.094240000000000101e+00 1.134383000000000052e+01 7.038669999999999760e+00 5.800000000000000034e-04 1.134613000000000049e+01 5.279589999999999783e+00 3.051860000000000017e+00 1.134909999999999997e+01 3.521770000000000067e+00 6.097599999999999909e+00 1.134871000000000052e+01 1.761439999999999895e+00 1.830840000000000023e+00 1.864808999999999983e+01 -1.500000000000000031e-03 4.878980000000000317e+00 1.865246000000000137e+01 -1.760760000000000103e+00 7.925390000000000157e+00 1.865408000000000044e+01 5.282989999999999853e+00 1.830319999999999947e+00 1.865265000000000128e+01 3.521059999999999857e+00 4.875910000000000188e+00 1.864893000000000001e+01 1.757309999999999928e+00 7.929249999999999687e+00 1.864830999999999861e+01 8.798439999999999372e+00 1.827550000000000008e+00 1.864975000000000094e+01 7.039990000000000414e+00 4.876219999999999999e+00 1.865049000000000134e+01 5.279980000000000118e+00 7.929710000000000036e+00 1.864971999999999852e+01
-7.900000000000000121e-04 2.032280000000000086e+00 9.532669999999999533e+00 -1.762930000000000108e+00 5.073640000000000150e+00 9.544739999999999114e+00 -3.517510000000000137e+00 8.123900000000000787e+00 9.533279999999999532e+00 3.518479999999999830e+00 2.029599999999999849e+00 9.541169999999999263e+00 1.759500000000000064e+00 5.078979999999999606e+00 9.528689999999999216e+00 -4.899999999999999842e-04 8.128030000000000754e+00 9.536120000000000374e+00 7.042019999999999946e+00 2.032329999999999970e+00 9.540269999999999584e+00 5.284189999999999721e+00 5.084590000000000387e+00 9.535809999999999675e+00 3.520480000000000054e+00 8.124959999999999738e+00 9.536820000000000519e+00 -4.389999999999999805e-03 8.125099999999999545e-01 1.683756999999999948e+01 -1.760790000000000077e+00 3.861610000000000209e+00 1.684268000000000143e+01 -3.529360000000000053e+00 6.906649999999999956e+00 1.684065000000000012e+01 3.519470000000000098e+00 8.114500000000000046e-01 1.683916999999999931e+01 1.764499999999999957e+00 3.860749999999999904e+00 1.683646999999999849e+01 -2.629999999999999959e-03 6.911190000000000389e+00 1.683738999999999919e+01 7.041760000000000019e+00 8.151300000000000212e-01 1.683658000000000143e+01 5.276810000000000223e+00 3.864310000000000134e+00 1.683860999999999919e+01 3.526619999999999866e+00 6.913319999999999688e+00 1.684393999999999991e+01 -4.040000000000000188e-03 2.031769999999999854e+00 1.316165999999999947e+01 -1.758329999999999949e+00 5.079930000000000057e+00 1.316291999999999973e+01 -3.515060000000000073e+00 8.128019999999999357e+00 1.316766999999999932e+01 3.518590000000000106e+00 2.035460000000000047e+00 1.315748999999999924e+01 1.756240000000000023e+00 5.081109999999999793e+00 1.315642000000000067e+01 -3.870000000000000176e-03 8.132229999999999848e+00 1.316092000000000084e+01 7.041970000000000063e+00 2.031359999999999832e+00 1.316126000000000040e+01 5.280669999999999753e+00 5.082679999999999865e+00 1.316783999999999999e+01 3.520820000000000061e+00 8.129970000000000141e+00 1.315860999999999947e+01 1.600000000000000077e-03 8.168499999999999650e-01 2.046180999999999983e+01 -1.758529999999999927e+00 3.859729999999999883e+00 2.046456999999999837e+01 -3.519200000000000106e+00 6.905649999999999622e+00 2.046309000000000111e+01 3.520459999999999923e+00 8.133500000000000174e-01 2.046632999999999925e+01 1.754610000000000003e+00 3.863570000000000171e+00 2.046965000000000146e+01 3.320000000000000034e-03 6.903950000000000031e+00 2.046287999999999840e+01 7.039799999999999613e+00 8.098800000000000443e-01 2.046452999999999989e+01 5.276860000000000106e+00 3.859259999999999913e+00 2.046440000000000126e+01 3.522400000000000198e+00 6.909390000000000143e+00 2.046540999999999855e+01 3.429999999999999889e-03 4.789999999999999987e-03 1.135168999999999961e+01 -1.759439999999999893e+00 3.051400000000000112e+00 1.134694000000000003e+01 7.038840000000000430e+00 6.095860000000000056e+00 1.134708000000000006e+01 -1.753079999999999972e+00 9.143499999999999517e+00 1.134942000000000029e+01 1.760890000000000066e+00 3.046910000000000007e+00 1.135051999999999950e+01 3.099999999999999999e-04 6.091689999999999827e+00 1.133952000000000027e+01 7.037340000000000373e+00 1.170000000000000033e-03 1.134411000000000058e+01 5.279189999999999827e+00 3.055309999999999970e+00 1.135003000000000029e+01 3.523530000000000051e+00 6.098379999999999690e+00 1.134925999999999924e+01 1.762869999999999937e+00 1.832619999999999916e+00 1.864482999999999890e+01 -2.980000000000000010e-03 4.880480000000000373e+00 1.865352999999999994e+01 -1.761509999999999909e+00 7.924900000000000055e+00 1.865675999999999846e+01 5.285960000000000214e+00 1.831590000000000051e+00 1.865391999999999939e+01 3.522120000000000140e+00 4.874369999999999870e+00 1.864651999999999887e+01 1.754629999999999912e+00 7.932599999999999874e+00 1.864526000000000039e+01 8.796879999999999811e+00 1.826049999999999951e+00 1.864815000000000111e+01 7.039970000000000283e+00 4.874970000000000248e+00 1.864961999999999875e+01 5.279969999999999608e+00 7.933530000000000193e+00 1.864808999999999983e+01
-1.180000000000000059e-03 2.032290000000000152e+00 9.531250000000000000e+00 -1.764399999999999968e+00 5.070140000000000313e+00 9.549289999999999168e+00 -3.516270000000000007e+00 8.121330000000000382e+00 9.532170000000000698e+00 3.517729999999999801e+00 2.028270000000000017e+00 9.543979999999999464e+00 1.759269999999999889e+00 5.078129999999999811e+00 9.525299999999999656e+00 -7.200000000000000453e-04 8.127489999999999881e+00 9.536390000000000811e+00 7.043009999999999771e+00 2.032360000000000166e+00 9.542619999999999436e+00 5.286279999999999646e+00 5.086540000000000283e+00 9.535940000000000083e+00 3.520729999999999915e+00 8.122920000000000584e+00 9.537480000000000402e+00 -6.559999999999999859e-03 8.122899999999999565e-01 1.683727999999999980e+01 -1.761179999999999968e+00 3.861709999999999976e+00 1.684495000000000076e+01 -3.534009999999999874e+00 6.905090000000000394e+00 1.684191999999999823e+01 3.519229999999999858e+00 8.106799999999999562e-01 1.683970000000000056e+01 1.766729999999999912e+00 3.860440000000000094e+00 1.683565000000000111e+01 -3.950000000000000386e-03 6.911880000000000024e+00 1.683702999999999861e+01 7.042620000000000324e+00 8.162099999999999911e-01 1.683579999999999899e+01 5.275240000000000151e+00 3.865740000000000176e+00 1.683884000000000114e+01 3.529900000000000038e+00 6.915060000000000429e+00 1.684683000000000064e+01 -6.040000000000000230e-03 2.031569999999999876e+00 1.316141000000000005e+01 -1.757489999999999997e+00 5.079600000000000115e+00 1.316328000000000031e+01 -3.512599999999999945e+00 8.127530000000000143e+00 1.317038999999999938e+01 3.517889999999999961e+00 2.037090000000000067e+00 1.315517000000000003e+01 1.754369999999999985e+00 5.081369999999999720e+00 1.315354999999999919e+01 -5.780000000000000415e-03 8.133810000000000429e+00 1.316028000000000020e+01 7.042950000000000266e+00 2.030959999999999877e+00 1.316078000000000081e+01 5.280999999999999694e+00 5.083719999999999573e+00 1.317065999999999981e+01 3.521220000000000017e+00 8.130459999999999354e+00 1.315681999999999974e+01 2.399999999999999790e-03 8.188199999999999923e-01 2.046037000000000106e+01 -1.757800000000000029e+00 3.858929999999999971e+00 2.046451000000000064e+01 -3.518819999999999837e+00 6.903629999999999711e+00 2.046228999999999942e+01 3.520690000000000097e+00 8.135700000000000154e-01 2.046713000000000093e+01 1.751940000000000053e+00 3.864679999999999893e+00 2.047210000000000107e+01 4.980000000000000052e-03 6.901089999999999947e+00 2.046198000000000050e+01 7.039710000000000356e+00 8.083700000000000330e-01 2.046445999999999898e+01 5.275299999999999656e+00 3.858239999999999892e+00 2.046426999999999907e+01 3.523590000000000000e+00 6.909229999999999983e+00 2.046573000000000064e+01 5.139999999999999604e-03 7.159999999999999698e-03 1.135341000000000022e+01 -1.759149999999999991e+00 3.052859999999999907e+00 1.134636000000000067e+01 7.038269999999999804e+00 6.095410000000000217e+00 1.134659000000000084e+01 -1.749679999999999902e+00 9.142649999999999721e+00 1.135003000000000029e+01 1.761300000000000088e+00 3.046190000000000175e+00 1.135166000000000075e+01 4.600000000000000139e-04 6.089179999999999815e+00 1.133525999999999989e+01 7.036030000000000229e+00 1.740000000000000010e-03 1.134211999999999954e+01 5.278800000000000381e+00 3.058759999999999923e+00 1.135094999999999921e+01 3.525279999999999969e+00 6.099140000000000228e+00 1.134978000000000087e+01 1.764270000000000005e+00 1.834379999999999900e+00 1.864161000000000001e+01 -4.420000000000000318e-03 4.881949999999999790e+00 1.865457999999999927e+01 -1.762270000000000003e+00 7.924400000000000333e+00 1.865941000000000116e+01 5.288899999999999935e+00 1.832819999999999894e+00 1.865515999999999863e+01 3.523140000000000160e+00 4.872849999999999682e+00 1.864415999999999940e+01 1.751989999999999936e+00 7.935889999999999667e+00 1.864226000000000028e+01 8.795349999999999113e+00 1.824559999999999960e+00 1.864658000000000015e+01 7.039920000000000400e+00 4.873719999999999608e+00 1.864877999999999858e+01 5.279969999999999608e+00 7.937310000000000088e+00 1.864650999999999925e+01
-1.569999999999999998e-03 2.032290000000000152e+00 9.529849999999999710e+00 -1.765870000000000051e+00 5.066650000000000098e+00 9.553779999999999717e+00 -3.515019999999999811e+00 8.118779999999999220e+00 9.531100000000000350e+00 3.516989999999999839e+00 2.026949999999999807e+00 9.546780000000000044e+00 1.759060000000000068e+00 5.077259999999999884e+00 9.521919999999999717e+00 -9.600000000000000243e-04 8.126950000000000784e+00 9.536640000000000228e+00 7.043989999999999974e+00 2.032410000000000050e+00 9.544959999999999667e+00 5.288339999999999819e+00 5.088470000000000049e+00 9.536070000000000491e+00 3.520989999999999842e+00 8.120889999999999276e+00 9.538140000000000285e+00 -8.720000000000000320e-03 8.120500000000000496e-01 1.683697000000000088e+01 -1.761570000000000080e+00 3.861779999999999990e+00 1.684719000000000122e+01 -3.538619999999999877e+00 6.903500000000000192e+00 1.684318000000000026e+01 3.519000000000000128e+00 8.098800000000000443e-01 1.684024000000000143e+01 1.768929999999999891e+00 3.860120000000000218e+00 1.683482000000000056e+01 -5.279999999999999971e-03 6.912530000000000285e+00 1.683667000000000158e+01 7.043470000000000120e+00 8.172500000000000320e-01 1.683499000000000123e+01 5.273679999999999701e+00 3.867119999999999891e+00 1.683905999999999992e+01 3.533160000000000078e+00 6.916780000000000150e+00 1.684969999999999857e+01 -8.030000000000000679e-03 2.031410000000000160e+00 1.316117000000000026e+01 -1.756650000000000045e+00 5.079320000000000057e+00 1.316362999999999950e+01 -3.510139999999999816e+00 8.127079999999999416e+00 1.317308000000000057e+01 3.517209999999999948e+00 2.038740000000000219e+00 1.315287000000000006e+01 1.752520000000000078e+00 5.081669999999999909e+00 1.315069000000000088e+01 -7.660000000000000142e-03 8.135389999999999233e+00 1.315963999999999956e+01 7.043910000000000338e+00 2.030600000000000183e+00 1.316031000000000084e+01 5.281340000000000146e+00 5.084810000000000052e+00 1.317346000000000039e+01 3.521619999999999973e+00 8.130990000000000606e+00 1.315503999999999962e+01 3.210000000000000180e-03 8.207999999999999741e-01 2.045891999999999911e+01 -1.757090000000000041e+00 3.858130000000000059e+00 2.046444999999999936e+01 -3.518450000000000077e+00 6.901609999999999800e+00 2.046150000000000091e+01 3.520919999999999828e+00 8.138100000000000334e-01 2.046791999999999945e+01 1.749290000000000012e+00 3.865790000000000060e+00 2.047450999999999866e+01 6.629999999999999609e-03 6.898259999999999614e+00 2.046109999999999829e+01 7.039620000000000211e+00 8.068699999999999761e-01 2.046439000000000163e+01 5.273760000000000225e+00 3.857229999999999936e+00 2.046413000000000082e+01 3.524760000000000115e+00 6.909080000000000332e+00 2.046602000000000032e+01 6.859999999999999779e-03 9.490000000000000172e-03 1.135507999999999917e+01 -1.758860000000000090e+00 3.054260000000000197e+00 1.134581999999999979e+01 7.037720000000000198e+00 6.094969999999999999e+00 1.134617000000000075e+01 -1.746359999999999912e+00 9.141799999999999926e+00 1.135063000000000066e+01 1.761660000000000004e+00 3.045490000000000030e+00 1.135274000000000072e+01 6.099999999999999737e-04 6.086750000000000327e+00 1.133108999999999966e+01 7.034740000000000215e+00 2.299999999999999961e-03 1.134018000000000015e+01 5.278439999999999799e+00 3.062190000000000190e+00 1.135186999999999991e+01 3.527000000000000135e+00 6.099870000000000125e+00 1.135028999999999932e+01 1.765640000000000098e+00 1.836119999999999974e+00 1.863847000000000165e+01 -5.810000000000000060e-03 4.883370000000000211e+00 1.865558000000000050e+01 -1.763020000000000032e+00 7.923890000000000100e+00 1.866199999999999903e+01 5.291789999999999772e+00 1.834019999999999984e+00 1.865636999999999901e+01 3.524129999999999985e+00 4.871340000000000003e+00 1.864189000000000007e+01 1.749390000000000001e+00 7.939119999999999955e+00 1.863930999999999827e+01 8.793829999999999814e+00 1.823090000000000099e+00 1.864506000000000085e+01 7.039850000000000385e+00 4.872469999999999857e+00 1.864797000000000082e+01 5.279989999999999739e+00 7.941029999999999589e+00 1.864501999999999882e+01
-1.940000000000000101e-03 2.032290000000000152e+00 9.528460000000000818e+00 -1.767339999999999911e+00 5.063200000000000145e+00 9.558189999999999742e+00 -3.513780000000000125e+00 8.116260000000000474e+00 9.530049999999999244e+00 3.516280000000000072e+00 2.025650000000000173e+00 9.549549999999999983e+00 1.758879999999999999e+00 5.076389999999999958e+00 9.518580000000000041e+00 -1.190000000000000085e-03 8.126409999999999911e+00 9.536849999999999383e+00 7.044940000000000424e+00 2.032469999999999999e+00 9.547259999999999636e+00 5.290379999999999860e+00 5.090390000000000192e+00 9.536179999999999879e+00 3.521259999999999835e+00 8.118900000000000006e+00 9.538800000000000168e+00 -1.085999999999999986e-02 8.118100000000000316e-01 1.683662999999999954e+01 -1.761949999999999905e+00 3.861819999999999808e+00 1.684938999999999965e+01 -3.543190000000000062e+00 6.901909999999999989e+00 1.684442999999999913e+01 3.518810000000000215e+00 8.090399999999999814e-01 1.684078999999999837e+01 1.771099999999999897e+00 3.859789999999999832e+00 1.683398000000000039e+01 -6.629999999999999609e-03 6.913160000000000416e+00 1.683631000000000100e+01 7.044290000000000163e+00 8.182800000000000074e-01 1.683415000000000106e+01 5.272149999999999892e+00 3.868440000000000101e+00 1.683924999999999983e+01 3.536369999999999791e+00 6.918459999999999610e+00 1.685251999999999839e+01 -1.000999999999999980e-02 2.031309999999999949e+00 1.316094999999999970e+01 -1.755819999999999936e+00 5.079069999999999752e+00 1.316397000000000084e+01 -3.507690000000000197e+00 8.126670000000000726e+00 1.317572999999999972e+01 3.516539999999999999e+00 2.040410000000000057e+00 1.315061000000000035e+01 1.750680000000000014e+00 5.081999999999999851e+00 1.314784000000000042e+01 -9.499999999999999764e-03 8.136969999999999814e+00 1.315898999999999930e+01 7.044859999999999900e+00 2.030269999999999797e+00 1.315981999999999985e+01 5.281670000000000087e+00 5.085930000000000284e+00 1.317625999999999920e+01 3.521999999999999797e+00 8.131550000000000722e+00 1.315326999999999913e+01 4.029999999999999728e-03 8.227799999999999558e-01 2.045747000000000071e+01 -1.756399999999999961e+00 3.857310000000000016e+00 2.046437999999999846e+01 -3.518100000000000005e+00 6.899610000000000021e+00 2.046070999999999884e+01 3.521150000000000002e+00 8.140500000000000513e-01 2.046868999999999872e+01 1.746669999999999945e+00 3.866899999999999782e+00 2.047688000000000130e+01 8.269999999999999574e-03 6.895470000000000432e+00 2.046023999999999887e+01 7.039530000000000065e+00 8.053700000000000303e-01 2.046433999999999997e+01 5.272230000000000416e+00 3.856240000000000112e+00 2.046400999999999826e+01 3.525920000000000165e+00 6.908949999999999925e+00 2.046625999999999834e+01 8.580000000000000820e-03 1.175999999999999962e-02 1.135669000000000040e+01 -1.758550000000000058e+00 3.055600000000000094e+00 1.134534000000000020e+01 7.037169999999999703e+00 6.094570000000000043e+00 1.134582999999999942e+01 -1.743139999999999912e+00 9.140959999999999752e+00 1.135121999999999964e+01 1.761970000000000036e+00 3.044820000000000082e+00 1.135375999999999941e+01 7.500000000000000156e-04 6.084399999999999586e+00 1.132701999999999920e+01 7.033479999999999954e+00 2.830000000000000050e-03 1.133829000000000065e+01 5.278100000000000236e+00 3.065599999999999881e+00 1.135276999999999958e+01 3.528680000000000039e+00 6.100559999999999761e+00 1.135077000000000069e+01 1.766969999999999930e+00 1.837839999999999918e+00 1.863542999999999950e+01 -7.130000000000000053e-03 4.884739999999999860e+00 1.865653000000000006e+01 -1.763770000000000060e+00 7.923359999999999737e+00 1.866452999999999918e+01 5.294620000000000104e+00 1.835180000000000033e+00 1.865754000000000090e+01 3.525069999999999926e+00 4.869869999999999699e+00 1.863973999999999975e+01 1.746850000000000014e+00 7.942260000000000097e+00 1.863644999999999996e+01 8.792339999999999378e+00 1.821630000000000082e+00 1.864358999999999966e+01 7.039729999999999599e+00 4.871209999999999596e+00 1.864722000000000079e+01 5.280039999999999623e+00 7.944679999999999964e+00 1.864363000000000170e+01
-2.299999999999999961e-03 2.032290000000000152e+00 9.527089999999999392e+00 -1.768809999999999993e+00 5.059770000000000323e+00 9.562490000000000379e+00 -3.512529999999999930e+00 8.113780000000000214e+00 9.529030000000000555e+00 3.515589999999999993e+00 2.024360000000000159e+00 9.552300000000000679e+00 1.758739999999999970e+00 5.075499999999999901e+00 9.515259999999999607e+00 -1.410000000000000012e-03 8.125849999999999795e+00 9.537020000000000053e+00 7.045869999999999855e+00 2.032550000000000079e+00 9.549530000000000740e+00 5.292399999999999771e+00 5.092290000000000205e+00 9.536270000000000024e+00 3.521560000000000024e+00 8.116939999999999600e+00 9.539460000000000051e+00 -1.295999999999999930e-02 8.115700000000000136e-01 1.683625999999999934e+01 -1.762320000000000109e+00 3.861829999999999874e+00 1.685155999999999921e+01 -3.547699999999999854e+00 6.900310000000000166e+00 1.684566999999999837e+01 3.518639999999999990e+00 8.081599999999999895e-01 1.684132999999999925e+01 1.773220000000000018e+00 3.859459999999999891e+00 1.683313000000000059e+01 -7.990000000000000574e-03 6.913770000000000415e+00 1.683594000000000079e+01 7.045079999999999565e+00 8.192899999999999627e-01 1.683326999999999884e+01 5.270660000000000345e+00 3.869699999999999918e+00 1.683941000000000088e+01 3.539530000000000065e+00 6.920099999999999696e+00 1.685530999999999935e+01 -1.196000000000000014e-02 2.031250000000000000e+00 1.316075000000000017e+01 -1.754979999999999984e+00 5.078870000000000218e+00 1.316430000000000078e+01 -3.505240000000000133e+00 8.126300000000000523e+00 1.317835000000000001e+01 3.515890000000000182e+00 2.042100000000000026e+00 1.314840000000000053e+01 1.748850000000000016e+00 5.082370000000000054e+00 1.314500999999999920e+01 -1.128999999999999969e-02 8.138519999999999754e+00 1.315832999999999942e+01 7.045799999999999841e+00 2.029990000000000183e+00 1.315933000000000064e+01 5.282000000000000028e+00 5.087089999999999890e+00 1.317905000000000015e+01 3.522380000000000067e+00 8.132160000000000721e+00 1.315151999999999965e+01 4.850000000000000144e-03 8.247700000000000031e-01 2.045601999999999876e+01 -1.755740000000000078e+00 3.856479999999999908e+00 2.046431000000000111e+01 -3.517780000000000129e+00 6.897619999999999862e+00 2.045993999999999957e+01 3.521380000000000177e+00 8.143099999999999783e-01 2.046943999999999875e+01 1.744080000000000075e+00 3.867989999999999817e+00 2.047917999999999950e+01 9.900000000000000813e-03 6.892739999999999867e+00 2.045938999999999908e+01 7.039460000000000051e+00 8.038899999999999935e-01 2.046431000000000111e+01 5.270719999999999850e+00 3.855259999999999909e+00 2.046388999999999925e+01 3.527050000000000018e+00 6.908830000000000027e+00 2.046642999999999901e+01 1.030999999999999972e-02 1.396000000000000019e-02 1.135821999999999932e+01 -1.758229999999999960e+00 3.056849999999999845e+00 1.134493999999999936e+01 7.036640000000000228e+00 6.094190000000000218e+00 1.134558999999999962e+01 -1.740029999999999966e+00 9.140119999999999578e+00 1.135178999999999938e+01 1.762199999999999989e+00 3.044179999999999886e+00 1.135468999999999973e+01 8.899999999999999491e-04 6.082139999999999880e+00 1.132307999999999915e+01 7.032250000000000334e+00 3.330000000000000061e-03 1.133647999999999989e+01 5.277790000000000425e+00 3.068989999999999885e+00 1.135366999999999926e+01 3.530330000000000190e+00 6.101210000000000022e+00 1.135122999999999927e+01 1.768240000000000034e+00 1.839530000000000109e+00 1.863249000000000066e+01 -8.370000000000000703e-03 4.886029999999999873e+00 1.865740999999999872e+01 -1.764520000000000088e+00 7.922810000000000130e+00 1.866696999999999917e+01 5.297369999999999912e+00 1.836300000000000043e+00 1.865867000000000075e+01 3.525959999999999983e+00 4.868439999999999657e+00 1.863772000000000162e+01 1.744380000000000042e+00 7.945280000000000342e+00 1.863366999999999862e+01 8.790889999999999205e+00 1.820210000000000106e+00 1.864220999999999862e+01 7.039559999999999818e+00 4.869950000000000223e+00 1.864652999999999849e+01 5.280109999999999637e+00 7.948240000000000194e+00 1.864237999999999928e+01