-3.432571223699999905e+02
-3.432542572899999982e+02
-3.432457368099999826e+02
-3.432317865100000063e+02
-3.432127740600000152e+02
-3.431891985999999974e+02
-3.431616570200000069e+02
-3.431308239699999945e+02
-3.430974247600000240e+02
-3.430622049099999913e+02
-3.414300462900000070e+02
-3.414348374400000239e+02
-3.414441374400000200e+02
-3.414578316899999777e+02
-3.414757617700000196e+02
-3.414977161200000069e+02
-3.415234341099999824e+02
-3.415526153999999792e+02
-3.415849162999999749e+02
-3.416199576700000193e+02
-3.421239698499999804e+02
-3.421251393599999915e+02
-3.421249668599999723e+02
-3.421235374899999897e+02
-3.421209926500000051e+02
-3.421175463899999727e+02
-3.421134615799999779e+02
-3.421090414199999827e+02
-3.421046180899999740e+02
-3.421005123499999740e+02
-3.418815511000000242e+02
-3.418924218299999893e+02
-3.419040766300000200e+02
-3.419162122500000009e+02
-3.419285986799999932e+02
-3.419410653599999819e+02
-3.419535130200000026e+02
-3.419659017199999766e+02
-3.419782429499999807e+02
-3.419905892400000198e+02
-3.430472020600000178e+02
-3.430425456199999985e+02
-3.430332589500000040e+02
-3.430195058200000062e+02
-3.430015695700000151e+02
-3.429798458600000117e+02
-3.429548209000000156e+02
-3.429270564600000171e+02
-3.428971673899999928e+02
-3.428658004600000027e+02
-3.422258094599999936e+02
-3.422295528199999808e+02
-3.422282879900000125e+02
-3.422221084000000246e+02
-3.422112849999999753e+02
-3.421962641499999904e+02
-3.421776290000000245e+02
-3.421560742099999857e+02
-3.421323695199999975e+02
-3.421073199200000090e+02
-3.414945844800000145e+02
-3.414953314699999964e+02
-3.414949674700000060e+02
-3.414936051899999825e+02
-3.414914133099999844e+02
-3.414886082099999953e+02
-3.414854603200000156e+02
-3.414822697500000004e+02
-3.414793770800000061e+02
-3.414771421099999884e+02
-3.429969281200000069e+02
-3.429944082200000253e+02
-3.429860550899999794e+02
-3.429721118300000171e+02
-3.429529941600000029e+02
-3.429292824199999927e+02
-3.429016766600000210e+02
-3.428709812199999760e+02
-3.428380601599999977e+02
-3.428038050100000191e+02
-3.425210274400000117e+02
-3.425233685499999865e+02
-3.425234983600000191e+02
-3.425215202699999963e+02
-3.425176228999999921e+02
-3.425120629099999974e+02
-3.425051624199999765e+02
-3.424972817899999882e+02
-3.424888125900000091e+02
-3.424801545600000168e+02
-3.425364604200000258e+02
-3.425381297299999801e+02
-3.425363419299999919e+02
-3.425312410600000135e+02
-3.425230865400000084e+02
-3.425122473000000127e+02
-3.424991682300000093e+02
-3.424843654599999923e+02
-3.424683971100000122e+02
-3.424518394500000227e+02
-3.414661988199999882e+02
-3.414634567599999855e+02
-3.414626306399999862e+02
-3.414637771399999906e+02
-3.414669650399999909e+02
-3.414722760000000221e+02
-3.414797988099999770e+02
-3.414896291800000085e+02
-3.415018672300000162e+02
-3.415166074800000047e+02
-3.420163625700000125e+02
-3.420324300600000242e+02
-3.420492670400000179e+02
-3.420668150199999786e+02
-3.420850775200000271e+02
-3.421041152299999908e+02
-3.421240189299999770e+02
-3.421448941400000194e+02
-3.421668325900000127e+02
-3.421898917999999981e+02
-3.428600310400000239e+02
-3.428585337999999751e+02
-3.428517261200000235e+02
-3.428398275999999782e+02
-3.428232301599999801e+02
-3.428024834600000190e+02
-3.427782612600000220e+02
-3.427513394499999890e+02
-3.427225533299999825e+02
-3.426927743900000110e+02
-3.425950104400000100e+02
-3.425970818900000268e+02
-3.425965909299999907e+02
-3.425935719899999867e+02
-3.425881457200000000e+02
-3.425805095599999959e+02
-3.425709306499999798e+02
-3.425597392999999897e+02
-3.425473098699999923e+02
-3.425340528400000153e+02
-3.428541793200000143e+02
-3.428556617200000005e+02
-3.428542514800000163e+02
-3.428500736500000130e+02
-3.428433398700000225e+02
-3.428343370200000209e+02
-3.428234190200000171e+02
-3.428109921999999870e+02
-3.427975006099999860e+02
-3.427834041099999922e+02
-3.410624653699999840e+02
-3.410688178899999912e+02
-3.410784180499999820e+02
-3.410912392999999838e+02
-3.411073023700000135e+02
-3.411266663499999936e+02
-3.411494052300000135e+02
-3.411755808799999841e+02
-3.412052136300000029e+02
-3.412382575099999826e+02
-3.421173747999999932e+02
-3.421218347399999971e+02
-3.421241589399999725e+02
-3.421243560899999920e+02
-3.421225601900000015e+02
-3.421190193699999895e+02
-3.421140823800000135e+02
-3.421081704399999808e+02
-3.421017521699999975e+02
-3.420953131699999972e+02
-3.424857340799999861e+02
-3.424789996100000167e+02
-3.424686377699999866e+02
-3.424549219900000026e+02
-3.424382252600000243e+02
-3.424190076799999929e+02
-3.423977910699999825e+02
-3.423751468699999805e+02
-3.423516709300000116e+02
-3.423279665700000010e+02
-3.418478581200000121e+02
-3.418530343799999969e+02
-3.418572444999999789e+02
-3.418604787699999861e+02
-3.418627962200000070e+02
-3.418643289299999992e+02
-3.418652801299999737e+02
-3.418659095099999945e+02
-3.418665316500000131e+02
-3.418675008399999911e+02
-3.424095206700000062e+02
-3.424046275300000275e+02
-3.423958649900000069e+02
-3.423834511200000179e+02
-3.423677107799999817e+02
-3.423490525199999865e+02
-3.423279582399999867e+02
-3.423049595400000271e+02
-3.422806197400000201e+02
-3.422555257600000118e+02
-3.413716101200000139e+02
-3.413681417099999749e+02
-3.413693890999999780e+02
-3.413753589699999793e+02
-3.413860081099999775e+02
-3.414012414100000115e+02
-3.414209184000000050e+02
-3.414448404099999834e+02
-3.414727601499999992e+02
-3.415043766399999754e+02
-3.424452627499999835e+02
-3.424304512599999839e+02
-3.424125847899999826e+02
-3.423921430099999839e+02
-3.423697742499999777e+02
-3.423462679099999946e+02
-3.423225176500000089e+02
-3.422994750899999872e+02
-3.422781194600000276e+02
-3.422594128299999738e+02
-3.417164359000000218e+02
-3.417308844300000032e+02
-3.417439738100000000e+02
-3.417556552400000101e+02
-3.417660247300000265e+02
-3.417753046000000268e+02
-3.417838250300000027e+02
-3.417919931900000279e+02
-3.418002546199999756e+02
-3.418090590499999735e+02
-3.414958122900000035e+02
-3.415221806700000116e+02
-3.415512937999999963e+02
-3.415827305500000080e+02
-3.416160525099999745e+02
-3.416508193099999744e+02
-3.416865977300000168e+02
-3.417229842699999836e+02
-3.417596188300000222e+02
-3.417961857099999747e+02
-3.414836421399999722e+02
-3.415003099799999973e+02
-3.415179641600000195e+02
-3.415363933799999927e+02
-3.415553931499999862e+02
-3.415747711399999957e+02
-3.415943550900000218e+02
-3.416139990600000260e+02
-3.416335803200000214e+02
-3.416530102099999908e+02
-3.427690425299999788e+02
-3.427688387599999942e+02
-3.427649837399999910e+02
-3.427576562200000012e+02
-3.427471544399999743e+02
-3.427338694599999940e+02
-3.427182766000000242e+02
-3.427009067100000266e+02
-3.426823265599999786e+02
-3.426631235699999820e+02
-3.419918657000000053e+02
-3.419931905600000164e+02
-3.419938848400000211e+02
-3.419939210399999752e+02
-3.419933652799999777e+02
-3.419923628500000063e+02
-3.419911300300000221e+02
-3.419899359600000253e+02
-3.419890816299999869e+02
-3.419888768999999797e+02
-3.423651390499999820e+02
-3.423609826200000157e+02
-3.423561804500000108e+02
-3.423509157899999877e+02
-3.423454078699999741e+02
-3.423399056200000246e+02
-3.423346818399999734e+02
-3.423300189899999850e+02
-3.423262047700000039e+02
-3.423235151599999995e+02
-3.415875599600000214e+02
-3.416010668000000123e+02
-3.416168820899999901e+02
-3.416347754500000065e+02
-3.416545223300000202e+02
-3.416759177999999793e+02
-3.416987683699999820e+02
-3.417228945300000191e+02
-3.417481073700000138e+02
-3.417742208799999730e+02
-3.423106043399999976e+02
-3.423219843399999718e+02
-3.423336137800000074e+02
-3.423454526599999781e+02
-3.423575179399999797e+02
-3.423698785000000271e+02
-3.423826417700000206e+02
-3.423959436900000242e+02
-3.424099208499999918e+02
-3.424247082900000123e+02
-3.418819924800000081e+02
-3.418834386600000244e+02
-3.418802276000000120e+02
-3.418725228700000116e+02
-3.418606151600000089e+02
-3.418449058699999910e+02
-3.418258941099999788e+02
-3.418041491800000244e+02
-3.417802896200000191e+02
-3.417549556399999915e+02
-3.420409470000000169e+02
-3.420495024599999851e+02
-3.420564228999999727e+02
-3.420616131400000199e+02
-3.420650476399999889e+02
-3.420667690899999798e+02
-3.420668838999999934e+02
-3.420655643499999883e+02
-3.420630331899999987e+02
-3.420595570899999984e+02
-3.425410412100000030e+02
-3.425366025499999978e+02
-3.425284551600000214e+02
-3.425169264400000202e+02
-3.425024693600000205e+02
-3.424856388100000117e+02
-3.424670688400000245e+02
-3.424474327699999776e+02
-3.424274228200000039e+02
-3.424077110299999731e+02
-3.427889149800000155e+02
-3.427878253200000245e+02
-3.427845719499999859e+02
-3.427793976099999895e+02
-3.427726571000000035e+02
-3.427647917799999959e+02
-3.427563159599999949e+02
-3.427477779499999997e+02
-3.427397385699999859e+02
-3.427327425299999959e+02
-3.426535478399999874e+02
-3.426589369899999724e+02
-3.426613113399999975e+02
-3.426606315199999813e+02
-3.426569301800000176e+02
-3.426503227599999946e+02
-3.426409908300000211e+02
-3.426291757399999938e+02
-3.426151601799999753e+02
-3.425992523499999720e+02
-3.412605945399999996e+02
-3.412664574300000027e+02
-3.412740028200000211e+02
-3.412833604300000161e+02
-3.412947498699999755e+02
-3.413084543599999847e+02
-3.413248010600000271e+02
-3.413441100800000072e+02
-3.413666677699999923e+02
-3.413926788399999737e+02
-3.426137474600000132e+02
-3.426168528399999786e+02
-3.426155584100000056e+02
-3.426099570499999913e+02
-3.426002676400000269e+02
-3.425868382500000280e+02
-3.425701117300000078e+02
-3.425506100299999730e+02
-3.425289176100000077e+02
-3.425056564099999719e+02
-3.426215435099999809e+02
-3.426256743100000222e+02
-3.426261671400000068e+02
-3.426230832100000043e+02
-3.426165808200000242e+02
-3.426069088500000248e+02
-3.425943934900000158e+02
-3.425794251500000200e+02
-3.425624433199999999e+02
-3.425439136800000028e+02
-3.431378367400000116e+02
-3.431370434199999977e+02
-3.431310980399999835e+02
-3.431201469299999758e+02
-3.431044720500000267e+02
-3.430844718499999999e+02
-3.430606476699999803e+02
-3.430335795099999814e+02
-3.430039016499999889e+02
-3.429722766300000103e+02
-3.404048680199999808e+02
-3.404153244199999904e+02
-3.404304440500000055e+02
-3.404501822299999958e+02
-3.404745128800000202e+02
-3.405033954099999960e+02
-3.405367595399999914e+02
-3.405744717300000275e+02
-3.406163128000000029e+02
-3.406619517199999905e+02
-3.425431889899999760e+02
-3.425436036199999990e+02
-3.425396285100000000e+02
-3.425313938900000039e+02
-3.425191521699999839e+02
-3.425032627900000080e+02
-3.424841734799999813e+02
-3.424623974599999769e+02
-3.424384965400000169e+02
-3.424130478000000153e+02
-3.423899746800000230e+02
-3.423909483499999737e+02
-3.423890394300000253e+02
-3.423843581500000255e+02
-3.423771006900000202e+02
-3.423675456700000268e+02
-3.423560410900000193e+02
-3.423429910400000153e+02
-3.423288408700000218e+02
-3.423140590500000258e+02
-3.428024287200000231e+02
-3.428022054799999978e+02
-3.427985565100000258e+02
-3.427916108100000088e+02
-3.427816011799999956e+02
-3.427688547000000199e+02
-3.427537777499999834e+02
-3.427368323000000032e+02
-3.427185255699999971e+02
-3.426993869500000187e+02
-3.425249924799999803e+02
-3.425248438500000248e+02
-3.425226723600000014e+02
-3.425185944400000153e+02
-3.425128594299999918e+02
-3.425058275499999922e+02
-3.424979488899999751e+02
-3.424897463099999868e+02
-3.424817784599999868e+02
-3.424746190800000250e+02
-3.427101756000000137e+02
-3.427113254399999960e+02
-3.427092272900000012e+02
-3.427039765499999930e+02
-3.426957818600000110e+02
-3.426849452399999905e+02
-3.426718468299999927e+02
-3.426569210700000099e+02
-3.426406412800000112e+02
-3.426234956700000112e+02
-3.422703183899999999e+02
-3.422676701299999991e+02
-3.422617325800000003e+02
-3.422526914900000179e+02
-3.422408179000000246e+02
-3.422264575500000205e+02
-3.422100185599999804e+02
-3.421919598100000144e+02
-3.421727683799999795e+02
-3.421529559100000029e+02
-3.417590545099999986e+02
-3.417592488999999887e+02
-3.417601070900000195e+02
-3.417616943200000037e+02
-3.417641153800000211e+02
-3.417674986499999932e+02
-3.417720053900000039e+02
-3.417778204300000198e+02
-3.417851430599999958e+02
-3.417941867000000116e+02
-3.428122407500000008e+02
-3.427958137800000031e+02
-3.427767987799999787e+02
-3.427556052300000147e+02
-3.427327397399999995e+02
-3.427087891400000217e+02
-3.426844031800000039e+02
-3.426602726699999835e+02
-3.426371035799999731e+02
-3.426155986100000064e+02
-3.423492332899999724e+02
-3.423510177399999748e+02
-3.423484908899999937e+02
-3.423418293899999867e+02
-3.423313409900000011e+02
-3.423174522400000228e+02
-3.423006920000000264e+02
-3.422816584999999918e+02
-3.422610057599999891e+02
-3.422394060899999886e+02
-3.420871643500000232e+02
-3.420868586400000027e+02
-3.420817033499999980e+02
-3.420719121299999870e+02
-3.420578806199999917e+02
-3.420401766200000111e+02
-3.420195009199999845e+02
-3.419966659899999968e+02
-3.419725631800000087e+02
-3.419481200800000238e+02
