0.000000000000000000e+00 -3.514999999999999895e-03 -4.600000000000000139e-04 0.000000000000000000e+00 -3.516000000000000028e-03 -4.589999999999999896e-04 0.000000000000000000e+00 -3.517000000000000161e-03 -4.589999999999999896e-04 0.000000000000000000e+00 -3.517000000000000161e-03 -4.600000000000000139e-04 0.000000000000000000e+00 -3.514999999999999895e-03 -4.600000000000000139e-04 0.000000000000000000e+00 -3.516000000000000028e-03 -4.600000000000000139e-04 1.999999999999999909e-06 -3.516000000000000028e-03 -4.600000000000000139e-04 0.000000000000000000e+00 -3.513000000000000064e-03 -4.600000000000000139e-04 0.000000000000000000e+00 -3.516000000000000028e-03 -4.600000000000000139e-04 0.000000000000000000e+00 -9.747300000000000408e-02 3.429999999999999889e-04 3.000000000000000076e-06 -9.747699999999999421e-02 3.429999999999999889e-04 0.000000000000000000e+00 -9.747799999999999521e-02 3.409999999999999945e-04 -9.999999999999999547e-07 -9.747400000000000508e-02 3.429999999999999889e-04 -3.000000000000000076e-06 -9.747799999999999521e-02 3.440000000000000132e-04 1.999999999999999909e-06 -9.747899999999999621e-02 3.440000000000000132e-04 9.999999999999999547e-07 -9.747699999999999421e-02 3.420000000000000188e-04 0.000000000000000000e+00 -9.747699999999999421e-02 3.409999999999999945e-04 -3.000000000000000076e-06 -9.747599999999999321e-02 3.420000000000000188e-04 0.000000000000000000e+00 1.000879999999999964e-01 -9.280000000000000054e-04 9.999999999999999547e-07 1.000849999999999934e-01 -9.290000000000000297e-04 9.999999999999999547e-07 1.000849999999999934e-01 -9.290000000000000297e-04 -3.000000000000000076e-06 1.000849999999999934e-01 -9.280000000000000054e-04 -1.999999999999999909e-06 1.000849999999999934e-01 -9.280000000000000054e-04 -9.999999999999999547e-07 1.000840000000000063e-01 -9.290000000000000297e-04 1.999999999999999909e-06 1.000859999999999944e-01 -9.290000000000000297e-04 0.000000000000000000e+00 1.000869999999999954e-01 -9.290000000000000297e-04 0.000000000000000000e+00 1.000840000000000063e-01 -9.280000000000000054e-04 9.999999999999999547e-07 4.979999999999999618e-04 -1.019999999999999992e-04 9.999999999999999547e-07 4.929999999999999487e-04 -1.010000000000000020e-04 9.999999999999999547e-07 4.929999999999999487e-04 -9.799999999999999684e-05 9.999999999999999547e-07 4.970000000000000459e-04 -1.010000000000000020e-04 -3.000000000000000076e-06 4.929999999999999487e-04 -1.019999999999999992e-04 3.000000000000000076e-06 4.929999999999999487e-04 -1.010000000000000020e-04 -9.999999999999999547e-07 4.939999999999999730e-04 -1.019999999999999992e-04 9.999999999999999547e-07 4.920000000000000328e-04 -9.899999999999999404e-05 -1.999999999999999909e-06 4.960000000000000216e-04 -1.000000000000000048e-04 9.999999999999999547e-07 2.195300000000000029e-02 5.150000000000000498e-04 1.999999999999999909e-06 2.195400000000000129e-02 5.159999999999999656e-04 1.999999999999999909e-06 2.195499999999999882e-02 5.159999999999999656e-04 -1.999999999999999909e-06 2.195000000000000076e-02 5.150000000000000498e-04 -3.999999999999999819e-06 2.195400000000000129e-02 5.180000000000000143e-04 -9.999999999999999547e-07 2.195099999999999829e-02 5.169999999999999899e-04 -9.999999999999999547e-07 2.195000000000000076e-02 5.140000000000000254e-04 -1.999999999999999909e-06 2.195300000000000029e-02 5.150000000000000498e-04 -1.999999999999999909e-06 2.195300000000000029e-02 5.169999999999999899e-04 -3.999999999999999819e-06 -2.155999999999999930e-02 4.539999999999999765e-04 1.999999999999999909e-06 -2.156999999999999890e-02 4.519999999999999821e-04 6.000000000000000152e-06 -2.156699999999999937e-02 4.539999999999999765e-04 9.999999999999999547e-07 -2.156699999999999937e-02 4.550000000000000008e-04 -5.000000000000000409e-06 -2.156900000000000137e-02 4.530000000000000064e-04 -9.999999999999999547e-07 -2.156699999999999937e-02 4.550000000000000008e-04 1.999999999999999909e-06 -2.156399999999999983e-02 4.550000000000000008e-04 1.999999999999999909e-06 -2.157299999999999843e-02 4.550000000000000008e-04 -3.000000000000000076e-06 -2.156200000000000130e-02 4.530000000000000064e-04
9.329000000000000486e-03 -3.740999999999999968e-03 1.386000000000000079e-02 4.159999999999999744e-04 2.114800000000000013e-02 -7.346700000000000452e-02 -7.370000000000000249e-04 2.554700000000000026e-02 2.645600000000000035e-02 1.652500000000000149e-02 9.572000000000000647e-03 -1.943100000000000036e-02 2.563400000000000054e-02 -1.075899999999999947e-02 2.542200000000000015e-02 4.983999999999999715e-03 -7.673000000000000133e-03 -3.099500000000000172e-02 -1.932100000000000137e-02 9.584999999999999770e-03 -2.639800000000000132e-02 -2.080800000000000011e-02 -1.571799999999999933e-02 -1.304899999999999984e-02 1.208799999999999979e-02 2.423499999999999960e-02 2.220999999999999884e-03 2.219499999999999945e-02 -7.616399999999999559e-02 -2.379699999999999871e-02 5.098000000000000101e-03 -9.796599999999999753e-02 -2.927000000000000088e-02 4.215800000000000103e-02 -8.000899999999999679e-02 -6.781999999999999834e-03 2.351999999999999924e-02 -1.000359999999999999e-01 3.880999999999999901e-03 -3.053200000000000011e-02 -7.635500000000000620e-02 -6.957999999999999775e-03 -1.138499999999999929e-02 -9.714899999999999924e-02 -2.762999999999999831e-03 -2.077100000000000127e-02 -9.155800000000000050e-02 -2.653600000000000056e-02 2.332299999999999998e-02 -1.221140000000000003e-01 -1.960500000000000090e-02 -3.569499999999999756e-02 -1.017119999999999969e-01 -3.271700000000000302e-02 1.676599999999999965e-02 1.139860000000000040e-01 1.457100000000000062e-02 -1.160000000000000007e-03 1.096570000000000045e-01 -8.952999999999999153e-03 -6.551999999999999665e-03 1.072420000000000040e-01 -3.214100000000000290e-02 1.272099999999999967e-02 8.896999999999999353e-02 3.235600000000000281e-02 1.429399999999999941e-02 1.043520000000000003e-01 1.467199999999999928e-02 3.295800000000000118e-02 6.325300000000000367e-02 -5.908000000000000057e-03 -1.262800000000000034e-02 1.094549999999999967e-01 -6.199999999999999782e-03 -9.150000000000000147e-04 1.055859999999999993e-01 -1.096399999999999979e-02 -8.312999999999999209e-03 1.077029999999999932e-01 9.900000000000000813e-03 4.015000000000000339e-03 4.284999999999999747e-03 -2.141000000000000108e-03 -1.657099999999999893e-02 -7.428999999999999840e-03 -3.164999999999999845e-03 -1.868200000000000069e-02 1.348799999999999999e-02 5.414999999999999675e-03 -1.369999999999999961e-04 9.490000000000000172e-03 -1.769400000000000139e-02 2.715599999999999958e-02 -7.532999999999999766e-03 -4.415600000000000080e-02 -8.358000000000000845e-03 3.826100000000000334e-02 1.447999999999999982e-02 5.043999999999999873e-03 8.836999999999999370e-03 1.041399999999999965e-02 1.524999999999999967e-02 1.339199999999999939e-02 4.592999999999999861e-03 -1.746899999999999842e-02 1.144000000000000052e-02 -4.542100000000000304e-02 8.419999999999999750e-04 -2.013699999999999865e-02 -4.120700000000000057e-02 6.429999999999999952e-03 -2.724400000000000086e-02 3.623400000000000232e-02 8.521000000000000796e-03 3.280600000000000183e-02 5.499199999999999922e-02 -6.384399999999999797e-02 1.884900000000000117e-02 -9.568000000000000116e-03 -3.743900000000000006e-02 3.442200000000000121e-02 -4.259700000000000292e-02 -3.340000000000000087e-03 7.158100000000000573e-02 7.017700000000000327e-02 1.900100000000000053e-02 -1.269999999999999970e-04 3.859800000000000036e-02 1.682700000000000168e-02 1.007999999999999998e-03 -5.943999999999999631e-03 -2.215299999999999908e-02 -8.852999999999999758e-03 -1.650499999999999884e-02 -2.869599999999999929e-02 -3.118599999999999844e-02 6.213199999999999973e-02 4.526700000000000168e-02 -5.249500000000000000e-02 -3.536399999999999960e-02 1.817999999999999955e-03 -2.666999999999999926e-02 -4.552799999999999903e-02 -4.212400000000000172e-02 -4.304199999999999693e-02 -2.646700000000000094e-02 -3.162700000000000233e-02 5.686000000000000082e-03 7.431200000000000305e-02 3.966999999999999693e-02 -7.646600000000000619e-02 5.265999999999999848e-02 1.942699999999999982e-02 -1.446999999999999936e-03 4.074400000000000244e-02 -2.698700000000000057e-02 -1.671299999999999869e-02 3.325600000000000084e-02 1.485999999999999995e-02 -6.410299999999999332e-02 6.864800000000000069e-02
1.847800000000000137e-02 -4.019000000000000003e-03 2.790700000000000125e-02 5.389999999999999826e-04 4.655700000000000116e-02 -1.473559999999999870e-01 -1.407999999999999963e-03 5.423399999999999749e-02 5.262200000000000211e-02 3.296000000000000318e-02 2.271700000000000108e-02 -3.853700000000000181e-02 5.065800000000000164e-02 -1.787300000000000000e-02 5.055899999999999977e-02 9.924000000000000529e-03 -1.173800000000000017e-02 -6.162100000000000216e-02 -3.856899999999999912e-02 2.278000000000000164e-02 -5.252799999999999830e-02 -4.158200000000000091e-02 -2.786699999999999941e-02 -2.577199999999999977e-02 2.388099999999999945e-02 5.185800000000000132e-02 4.503000000000000058e-03 4.435399999999999759e-02 -5.466499999999999831e-02 -4.809800000000000186e-02 1.020100000000000000e-02 -9.830700000000000549e-02 -5.897600000000000064e-02 8.400699999999999834e-02 -6.272899999999999310e-02 -1.441899999999999953e-02 4.671299999999999758e-02 -1.025530000000000053e-01 7.140999999999999778e-03 -6.062000000000000027e-02 -5.531099999999999905e-02 -1.485000000000000035e-02 -2.270600000000000049e-02 -9.675799999999999679e-02 -5.942000000000000233e-03 -4.153599999999999653e-02 -8.552999999999999492e-02 -5.351999999999999813e-02 4.678899999999999726e-02 -1.465940000000000021e-01 -3.985699999999999660e-02 -7.169899999999999884e-02 -1.059950000000000059e-01 -6.587200000000000000e-02 3.354200000000000237e-02 1.277210000000000012e-01 3.030499999999999861e-02 -2.309999999999999987e-03 1.189579999999999943e-01 -1.663600000000000148e-02 -1.316999999999999942e-02 1.142409999999999953e-01 -6.272800000000000598e-02 2.554999999999999979e-02 7.761999999999999456e-02 6.576200000000000101e-02 2.860199999999999895e-02 1.084719999999999990e-01 3.045000000000000137e-02 6.621799999999999908e-02 2.690800000000000136e-02 -9.567000000000000851e-03 -2.521599999999999883e-02 1.185439999999999966e-01 -1.115099999999999945e-02 -1.895999999999999899e-03 1.108770000000000033e-01 -2.087999999999999926e-02 -1.649799999999999878e-02 1.151189999999999991e-01 2.081900000000000070e-02 7.962000000000000327e-03 8.007999999999999494e-03 -3.811999999999999850e-03 -3.301699999999999774e-02 -1.524799999999999940e-02 -6.002000000000000390e-03 -3.711799999999999822e-02 2.627099999999999921e-02 1.132200000000000047e-02 -1.920000000000000049e-04 1.822500000000000162e-02 -3.496400000000000202e-02 5.373900000000000204e-02 -1.561599999999999967e-02 -8.712999999999999912e-02 -1.673099999999999934e-02 7.623299999999999521e-02 2.939200000000000146e-02 1.001499999999999960e-02 1.702199999999999894e-02 2.100000000000000130e-02 3.029199999999999948e-02 2.621300000000000019e-02 9.584999999999999770e-03 -3.433499999999999747e-02 2.209399999999999906e-02 -8.928300000000000125e-02 1.618000000000000081e-03 -6.171100000000000196e-02 -8.238399999999999890e-02 1.286900000000000023e-02 -7.706200000000000550e-02 7.259100000000000275e-02 1.699499999999999969e-02 4.381000000000000172e-02 1.090570000000000012e-01 -1.275199999999999945e-01 1.624899999999999956e-02 -1.975100000000000119e-02 -7.470899999999999763e-02 4.685700000000000282e-02 -8.533000000000000307e-02 -6.290999999999999717e-03 1.204680000000000056e-01 1.388629999999999864e-01 3.803800000000000237e-02 -2.203000000000000097e-02 7.647500000000000131e-02 3.346699999999999675e-02 -1.975100000000000119e-02 -1.233800000000000001e-02 -4.375600000000000322e-02 -3.919700000000000267e-02 -3.293000000000000094e-02 -5.721799999999999803e-02 -4.107899999999999746e-02 1.230220000000000063e-01 8.983499999999999819e-02 -8.334400000000000142e-02 -7.086299999999999544e-02 3.954000000000000049e-03 -3.170599999999999807e-02 -9.090900000000000369e-02 -8.378800000000000137e-02 -6.423900000000000443e-02 -5.324399999999999966e-02 -6.266800000000000148e-02 3.265300000000000147e-02 1.472509999999999930e-01 7.839400000000000535e-02 -1.306609999999999994e-01 1.037959999999999994e-01 3.878600000000000103e-02 1.836199999999999985e-02 8.081299999999999595e-02 -5.381299999999999972e-02 -1.186599999999999981e-02 6.582799999999999763e-02 2.987799999999999831e-02 -1.061829999999999996e-01 1.366239999999999954e-01
2.733899999999999872e-02 -4.400000000000000265e-03 4.164899999999999852e-02 4.760000000000000234e-04 7.268199999999999661e-02 -2.215570000000000039e-01 -2.040000000000000147e-03 8.239599999999999702e-02 7.798199999999999577e-02 4.925999999999999823e-02 3.589699999999999835e-02 -5.769799999999999929e-02 7.483099999999999474e-02 -2.471200000000000133e-02 7.496300000000000185e-02 1.478900000000000006e-02 -1.567500000000000143e-02 -9.203400000000000469e-02 -5.764099999999999779e-02 3.593199999999999866e-02 -7.864300000000000457e-02 -6.221899999999999653e-02 -3.994500000000000134e-02 -3.843200000000000088e-02 3.529100000000000292e-02 7.921699999999999575e-02 6.373000000000000193e-03 6.638700000000000156e-02 -3.311299999999999660e-02 -7.223599999999999466e-02 1.526600000000000006e-02 -9.851999999999999647e-02 -8.850800000000000334e-02 1.254280000000000117e-01 -4.573200000000000182e-02 -2.251299999999999829e-02 6.935900000000000398e-02 -1.049490000000000006e-01 1.008500000000000021e-02 -9.008599999999999941e-02 -3.445600000000000052e-02 -2.318999999999999881e-02 -3.377100000000000241e-02 -9.637500000000000233e-02 -9.164999999999999536e-03 -6.213400000000000173e-02 -7.950100000000000222e-02 -8.027600000000000013e-02 7.018199999999999439e-02 -1.707619999999999971e-01 -6.013500000000000095e-02 -1.078849999999999948e-01 -1.103900000000000020e-01 -9.891300000000000092e-02 5.032400000000000068e-02 1.411290000000000044e-01 4.610199999999999715e-02 -3.426999999999999925e-03 1.279240000000000099e-01 -2.394200000000000148e-02 -1.991100000000000161e-02 1.210859999999999992e-01 -9.259100000000000663e-02 3.840299999999999964e-02 6.606199999999999573e-02 9.901500000000000579e-02 4.289599999999999663e-02 1.123969999999999969e-01 4.630200000000000288e-02 9.958100000000000285e-02 -8.748000000000000567e-03 -1.193400000000000016e-02 -3.774399999999999977e-02 1.273100000000000065e-01 -1.576299999999999923e-02 -2.975999999999999913e-03 1.158809999999999979e-01 -3.073100000000000137e-02 -2.445500000000000104e-02 1.221919999999999951e-01 3.175499999999999851e-02 1.175299999999999956e-02 1.161700000000000059e-02 -4.972999999999999990e-03 -4.921199999999999880e-02 -2.286799999999999944e-02 -8.684000000000000746e-03 -5.516900000000000276e-02 3.880399999999999822e-02 1.771500000000000158e-02 -1.710000000000000094e-04 2.660900000000000071e-02 -5.184699999999999726e-02 7.968100000000000183e-02 -2.371300000000000144e-02 -1.288209999999999911e-01 -2.515699999999999881e-02 1.141839999999999938e-01 4.448599999999999777e-02 1.489599999999999952e-02 2.506200000000000094e-02 3.151999999999999941e-02 4.501200000000000340e-02 3.885700000000000265e-02 1.487899999999999986e-02 -5.054700000000000165e-02 3.239399999999999918e-02 -1.312850000000000128e-01 2.271000000000000015e-03 -1.025549999999999934e-01 -1.226330000000000059e-01 1.922700000000000103e-02 -1.271430000000000060e-01 1.091730000000000061e-01 2.535899999999999960e-02 5.486200000000000104e-02 1.621549999999999936e-01 -1.906069999999999987e-01 1.421299999999999994e-02 -2.997199999999999864e-02 -1.115229999999999971e-01 5.921699999999999880e-02 -1.272749999999999992e-01 -8.852000000000000493e-03 1.683010000000000062e-01 2.059910000000000074e-01 5.694599999999999662e-02 -4.357500000000000262e-02 1.137940000000000063e-01 4.981200000000000211e-02 -4.032600000000000073e-02 -1.865100000000000091e-02 -6.470299999999999663e-02 -6.889399999999999691e-02 -4.861000000000000043e-02 -8.536100000000000632e-02 -5.121099999999999958e-02 1.825910000000000033e-01 1.333320000000000061e-01 -1.139330000000000065e-01 -1.058260000000000034e-01 6.408999999999999767e-03 -3.665999999999999814e-02 -1.353429999999999911e-01 -1.247759999999999980e-01 -8.503900000000000348e-02 -7.966900000000000370e-02 -9.292599999999999472e-02 5.911600000000000188e-02 2.185509999999999953e-01 1.160149999999999931e-01 -1.838140000000000052e-01 1.534570000000000101e-01 5.795000000000000151e-02 3.775799999999999990e-02 1.202690000000000009e-01 -8.019900000000000639e-02 -7.062999999999999834e-03 9.787099999999999966e-02 4.490999999999999853e-02 -1.475779999999999870e-01 2.036830000000000029e-01
3.582899999999999974e-02 -4.912999999999999833e-03 5.500399999999999734e-02 2.919999999999999961e-04 9.945299999999999974e-02 -2.955160000000000009e-01 -2.660000000000000038e-03 1.098419999999999952e-01 1.023850000000000038e-01 6.535499999999999643e-02 4.909800000000000275e-02 -7.686800000000000577e-02 9.794100000000000028e-02 -3.116899999999999879e-02 9.865000000000000158e-02 1.956300000000000053e-02 -1.942699999999999982e-02 -1.219709999999999961e-01 -7.642899999999999694e-02 4.888900000000000190e-02 -1.045780000000000043e-01 -8.255899999999999350e-02 -5.191500000000000281e-02 -5.090100000000000180e-02 4.623000000000000026e-02 1.061909999999999937e-01 7.812000000000000367e-03 8.822699999999999987e-02 -1.169700000000000080e-02 -9.585499999999999576e-02 2.019200000000000161e-02 -9.861200000000000521e-02 -1.176819999999999949e-01 1.662569999999999881e-01 -2.910499999999999893e-02 -3.095399999999999888e-02 9.122800000000000353e-02 -1.071519999999999972e-01 1.270600000000000028e-02 -1.187420000000000003e-01 -1.393900000000000000e-02 -3.184800000000000131e-02 -4.439799999999999996e-02 -9.601300000000000112e-02 -1.238599999999999944e-02 -8.239499999999999602e-02 -7.361800000000000288e-02 -1.064530000000000060e-01 9.329700000000000493e-02 -1.944510000000000127e-01 -8.017399999999999527e-02 -1.440730000000000066e-01 -1.149170000000000053e-01 -1.315880000000000105e-01 6.716500000000000248e-02 1.540269999999999972e-01 6.186500000000000332e-02 -4.490000000000000067e-03 1.364680000000000060e-01 -3.078699999999999840e-02 -2.685500000000000040e-02 1.277979999999999949e-01 -1.215460000000000013e-01 5.112799999999999984e-02 5.437100000000000266e-02 1.318759999999999932e-01 5.713300000000000323e-02 1.160400000000000043e-01 6.224400000000000072e-02 1.328590000000000049e-01 -4.352299999999999919e-02 -1.297000000000000063e-02 -5.020800000000000263e-02 1.356590000000000018e-01 -1.993800000000000086e-02 -4.198999999999999608e-03 1.205380000000000063e-01 -4.051799999999999846e-02 -3.208699999999999747e-02 1.288120000000000098e-01 4.267300000000000260e-02 1.532900000000000061e-02 1.503700000000000002e-02 -5.425000000000000135e-03 -6.505700000000000371e-02 -3.016100000000000031e-02 -1.120600000000000068e-02 -7.267400000000000249e-02 5.105300000000000116e-02 2.465600000000000083e-02 -9.500000000000000523e-05 3.453099999999999919e-02 -6.827400000000000135e-02 1.049159999999999954e-01 -3.180899999999999700e-02 -1.689410000000000078e-01 -3.366899999999999754e-02 1.519069999999999865e-01 5.965399999999999869e-02 1.962699999999999861e-02 3.293999999999999706e-02 4.189099999999999768e-02 5.933800000000000185e-02 5.121300000000000158e-02 2.049700000000000133e-02 -6.607699999999999685e-02 4.233399999999999663e-02 -1.710639999999999938e-01 2.778000000000000087e-03 -1.423639999999999906e-01 -1.616190000000000127e-01 2.544300000000000034e-02 -1.770519999999999872e-01 1.455760000000000109e-01 3.355099999999999749e-02 6.585299999999999487e-02 2.137429999999999886e-01 -2.525700000000000167e-01 1.276500000000000030e-02 -4.016900000000000331e-02 -1.475789999999999880e-01 7.143599999999999950e-02 -1.680589999999999862e-01 -1.101199999999999922e-02 2.147189999999999932e-01 2.709690000000000154e-01 7.553200000000000192e-02 -6.456699999999999939e-02 1.502139999999999864e-01 6.574900000000000189e-02 -6.063400000000000040e-02 -2.484799999999999856e-02 -8.488199999999999912e-02 -9.773500000000000243e-02 -6.345599999999999852e-02 -1.128740000000000021e-01 -6.151399999999999924e-02 2.402940000000000076e-01 1.753659999999999941e-01 -1.440120000000000011e-01 -1.399920000000000053e-01 9.148999999999999147e-03 -4.152200000000000335e-02 -1.785289999999999933e-01 -1.647929999999999950e-01 -1.053049999999999958e-01 -1.055770000000000042e-01 -1.221519999999999967e-01 8.486200000000000687e-02 2.875079999999999858e-01 1.523180000000000089e-01 -2.354920000000000069e-01 2.012339999999999962e-01 7.673800000000000066e-02 5.656100000000000017e-02 1.586730000000000085e-01 -1.058960000000000040e-01 -2.318999999999999881e-03 1.290360000000000118e-01 5.979799999999999699e-02 -1.879939999999999944e-01 2.690839999999999899e-01
4.386099999999999721e-02 -5.590000000000000351e-03 6.789100000000000690e-02 5.599999999999999916e-05 1.267679999999999918e-01 -3.686209999999999765e-01 -3.295000000000000186e-03 1.364190000000000125e-01 1.257330000000000114e-01 8.118200000000000416e-02 6.228600000000000109e-02 -9.597700000000000675e-02 1.198020000000000057e-01 -3.713500000000000134e-02 1.216139999999999999e-01 2.420800000000000035e-02 -2.292999999999999899e-02 -1.511919999999999931e-01 -9.482699999999999463e-02 6.152200000000000030e-02 -1.301569999999999949e-01 -1.024710000000000065e-01 -6.372200000000000086e-02 -6.303400000000000669e-02 5.664600000000000191e-02 1.326410000000000089e-01 8.812000000000000388e-03 1.098009999999999958e-01 9.409999999999999962e-03 -1.186370000000000063e-01 2.492499999999999924e-02 -9.856900000000000384e-02 -1.462960000000000094e-01 2.063339999999999896e-01 -1.292100000000000019e-02 -3.964800000000000268e-02 1.121169999999999944e-01 -1.090909999999999935e-01 1.503299999999999949e-02 -1.464199999999999946e-01 6.112000000000000245e-03 -4.067199999999999982e-02 -5.444199999999999734e-02 -9.571499999999999453e-02 -1.554700000000000006e-02 -1.021740000000000009e-01 -6.800699999999999801e-02 -1.317250000000000087e-01 1.159020000000000050e-01 -2.175120000000000109e-01 -9.971299999999999608e-02 -1.800650000000000028e-01 -1.195910000000000029e-01 -1.636489999999999889e-01 8.408200000000000396e-02 1.662309999999999899e-01 7.749000000000000332e-02 -5.477000000000000098e-03 1.445150000000000046e-01 -3.708399999999999891e-02 -3.404700000000000087e-02 1.343949999999999867e-01 -1.494230000000000003e-01 6.359599999999999975e-02 4.260800000000000004e-02 1.640870000000000106e-01 7.128400000000000014e-02 1.193420000000000036e-01 7.824899999999999911e-02 1.658449999999999924e-01 -7.724200000000000510e-02 -1.266100000000000038e-02 -6.259399999999999686e-02 1.435279999999999889e-01 -2.358599999999999933e-02 -5.610999999999999668e-03 1.247960000000000041e-01 -5.022599999999999981e-02 -3.929300000000000154e-02 1.348560000000000036e-01 5.353000000000000119e-02 1.865299999999999944e-02 1.821300000000000002e-02 -4.977999999999999786e-03 -8.042000000000000537e-02 -3.700400000000000217e-02 -1.357000000000000046e-02 -8.948100000000000498e-02 6.300300000000000344e-02 3.221700000000000258e-02 2.799999999999999958e-05 4.190900000000000181e-02 -8.420900000000000607e-02 1.293640000000000068e-01 -3.987600000000000172e-02 -2.072680000000000078e-01 -4.229399999999999826e-02 1.891549999999999898e-01 7.474600000000000688e-02 2.414399999999999880e-02 4.064899999999999763e-02 5.204099999999999698e-02 7.318099999999999605e-02 6.314999999999999780e-02 2.645899999999999988e-02 -8.091600000000000181e-02 5.189400000000000263e-02 -2.082910000000000039e-01 3.118999999999999811e-03 -1.808680000000000010e-01 -1.990030000000000132e-01 3.144399999999999973e-02 -2.263449999999999906e-01 1.813520000000000132e-01 4.150500000000000023e-02 7.667699999999999516e-02 2.632729999999999793e-01 -3.129210000000000047e-01 1.191399999999999924e-02 -5.027399999999999924e-02 -1.825849999999999973e-01 8.345299999999999940e-02 -2.072980000000000100e-01 -1.278800000000000076e-02 2.594000000000000195e-01 3.332100000000000062e-01 9.361099999999999977e-02 -8.480699999999999350e-02 1.853809999999999902e-01 8.116400000000000003e-02 -8.060199999999999310e-02 -3.089300000000000032e-02 -1.041799999999999948e-01 -1.255320000000000047e-01 -7.737299999999999733e-02 -1.395069999999999921e-01 -7.190699999999999870e-02 2.955980000000000274e-01 2.155910000000000049e-01 -1.733329999999999871e-01 -1.731020000000000059e-01 1.215399999999999987e-02 -4.627499999999999669e-02 -2.201359999999999983e-01 -2.036020000000000052e-01 -1.249249999999999944e-01 -1.307780000000000054e-01 -1.501550000000000107e-01 1.096700000000000036e-01 3.534340000000000259e-01 1.871140000000000025e-01 -2.853319999999999745e-01 2.467320000000000069e-01 9.499599999999999711e-02 7.463500000000000689e-02 1.956070000000000031e-01 -1.306440000000000101e-01 2.344999999999999862e-03 1.590129999999999877e-01 7.439999999999999392e-02 -2.271660000000000068e-01 3.321080000000000143e-01
5.135599999999999887e-02 -6.461999999999999862e-03 8.022999999999999576e-02 -1.610000000000000103e-04 1.545100000000000084e-01 -4.402789999999999759e-01 -3.976999999999999633e-03 1.619899999999999951e-01 1.479370000000000129e-01 9.669099999999999917e-02 7.544199999999999517e-02 -1.149919999999999970e-01 1.402619999999999978e-01 -4.250000000000000305e-02 1.438669999999999949e-01 2.869999999999999982e-02 -2.612599999999999992e-02 -1.794540000000000024e-01 -1.127390000000000059e-01 7.369599999999999762e-02 -1.552290000000000059e-01 -1.218280000000000057e-01 -7.532800000000000606e-02 -7.469000000000000639e-02 6.648099999999999843e-02 1.584540000000000115e-01 9.367999999999999591e-03 1.310459999999999958e-01 3.002099999999999907e-02 -1.402529999999999888e-01 2.939800000000000052e-02 -9.839100000000000623e-02 -1.741669999999999885e-01 2.455249999999999932e-01 2.756999999999999902e-03 -4.849900000000000044e-02 1.318310000000000037e-01 -1.106929999999999997e-01 1.708300000000000096e-02 -1.729729999999999879e-01 2.557500000000000051e-02 -4.949800000000000033e-02 -6.374599999999999711e-02 -9.550799999999999568e-02 -1.859999999999999848e-02 -1.213250000000000023e-01 -6.279200000000000059e-02 -1.557659999999999878e-01 1.377839999999999898e-01 -2.398059999999999914e-01 -1.184920000000000001e-01 -2.156770000000000076e-01 -1.244200000000000028e-01 -1.948409999999999864e-01 1.011169999999999985e-01 1.775660000000000016e-01 9.289000000000000035e-02 -6.368000000000000396e-03 1.519929999999999892e-01 -4.275500000000000134e-02 -4.154499999999999860e-02 1.408969999999999945e-01 -1.760909999999999975e-01 7.566599999999999715e-02 3.082999999999999977e-02 1.954140000000000044e-01 8.533300000000000607e-02 1.222420000000000034e-01 9.431699999999999806e-02 1.983469999999999955e-01 -1.097579999999999945e-01 -1.103900000000000020e-02 -7.489600000000000424e-02 1.508490000000000109e-01 -2.660600000000000118e-02 -7.257000000000000429e-03 1.286080000000000001e-01 -5.985700000000000048e-02 -4.598599999999999910e-02 1.402069999999999983e-01 6.428399999999999392e-02 2.168199999999999988e-02 2.108799999999999911e-02 -3.465999999999999897e-03 -9.519700000000000384e-02 -4.329199999999999715e-02 -1.578500000000000042e-02 -1.054520000000000041e-01 7.464800000000000602e-02 4.045800000000000091e-02 1.789999999999999870e-04 4.866199999999999692e-02 -9.961499999999999522e-02 1.529790000000000039e-01 -4.789399999999999907e-02 -2.436119999999999952e-01 -5.105900000000000022e-02 2.257099999999999940e-01 8.962399999999999534e-02 2.839099999999999957e-02 4.818499999999999867e-02 6.188500000000000251e-02 8.646900000000000419e-02 7.454900000000000415e-02 3.279100000000000070e-02 -9.506900000000000073e-02 6.107200000000000129e-02 -2.426889999999999881e-01 3.276999999999999965e-03 -2.178339999999999999e-01 -2.344779999999999920e-01 3.716300000000000159e-02 -2.745710000000000095e-01 2.160539999999999961e-01 4.915800000000000031e-02 8.724099999999999910e-02 3.102460000000000218e-01 -3.711829999999999852e-01 1.164800000000000037e-02 -6.021800000000000069e-02 -2.162530000000000008e-01 9.521599999999999508e-02 -2.446369999999999933e-01 -1.419899999999999982e-02 3.020709999999999784e-01 3.921959999999999891e-01 1.110000000000000014e-01 -1.041149999999999992e-01 2.189589999999999870e-01 9.596899999999999875e-02 -1.001709999999999962e-01 -3.675500000000000295e-02 -1.225149999999999989e-01 -1.521089999999999942e-01 -9.029299999999999826e-02 -1.650449999999999973e-01 -8.231099999999999528e-02 3.480260000000000020e-01 2.536939999999999751e-01 -2.016799999999999982e-01 -2.049189999999999900e-01 1.539100000000000017e-02 -5.091199999999999892e-02 -2.598730000000000206e-01 -2.409759999999999958e-01 -1.437990000000000101e-01 -1.551099999999999979e-01 -1.767600000000000005e-01 1.333489999999999953e-01 4.156909999999999772e-01 2.202530000000000043e-01 -3.329920000000000102e-01 2.896020000000000261e-01 1.125810000000000005e-01 9.184399999999999509e-02 2.306670000000000109e-01 -1.541959999999999997e-01 6.917000000000000405e-03 1.874810000000000088e-01 8.856200000000000183e-02 -2.648530000000000051e-01 3.920790000000000108e-01