0.000000000000000000e+00 2.032270000000000021e+00 9.547610000000000596e+00 -1.760000000000000009e+00 5.080680000000000085e+00 9.547610000000000596e+00 -3.520000000000000018e+00 8.129089999999999705e+00 9.547610000000000596e+00 3.520000000000000018e+00 2.032270000000000021e+00 9.547610000000000596e+00 1.760000000000000009e+00 5.080680000000000085e+00 9.547610000000000596e+00 0.000000000000000000e+00 8.129089999999999705e+00 9.547610000000000596e+00 7.040000000000000036e+00 2.032270000000000021e+00 9.547610000000000596e+00 5.280000000000000249e+00 5.080680000000000085e+00 9.547610000000000596e+00 3.520000000000000018e+00 8.129089999999999705e+00 9.547610000000000596e+00 0.000000000000000000e+00 5.080700000000000216e-01 1.683226000000000155e+01 -1.760000000000000009e+00 3.556480000000000086e+00 1.683226000000000155e+01 -3.520000000000000018e+00 6.604890000000000150e+00 1.683226000000000155e+01 3.520000000000000018e+00 5.080700000000000216e-01 1.683226000000000155e+01 1.760000000000000009e+00 3.556480000000000086e+00 1.683226000000000155e+01 0.000000000000000000e+00 6.604890000000000150e+00 1.683226000000000155e+01 7.040000000000000036e+00 5.080700000000000216e-01 1.683226000000000155e+01 5.280000000000000249e+00 3.556480000000000086e+00 1.683226000000000155e+01 3.520000000000000018e+00 6.604890000000000150e+00 1.683226000000000155e+01 0.000000000000000000e+00 2.032270000000000021e+00 1.316816999999999993e+01 -1.760000000000000009e+00 5.080680000000000085e+00 1.316816999999999993e+01 -3.520000000000000018e+00 8.129089999999999705e+00 1.316816999999999993e+01 3.520000000000000018e+00 2.032270000000000021e+00 1.316816999999999993e+01 1.760000000000000009e+00 5.080680000000000085e+00 1.316816999999999993e+01 0.000000000000000000e+00 8.129089999999999705e+00 1.316816999999999993e+01 7.040000000000000036e+00 2.032270000000000021e+00 1.316816999999999993e+01 5.280000000000000249e+00 5.080680000000000085e+00 1.316816999999999993e+01 3.520000000000000018e+00 8.129089999999999705e+00 1.316816999999999993e+01 0.000000000000000000e+00 5.080700000000000216e-01 2.045264999999999844e+01 -1.760000000000000009e+00 3.556480000000000086e+00 2.045264999999999844e+01 -3.520000000000000018e+00 6.604890000000000150e+00 2.045264999999999844e+01 3.520000000000000018e+00 5.080700000000000216e-01 2.045264999999999844e+01 1.760000000000000009e+00 3.556480000000000086e+00 2.045264999999999844e+01 0.000000000000000000e+00 6.604890000000000150e+00 2.045264999999999844e+01 7.040000000000000036e+00 5.080700000000000216e-01 2.045264999999999844e+01 5.280000000000000249e+00 3.556480000000000086e+00 2.045264999999999844e+01 3.520000000000000018e+00 6.604890000000000150e+00 2.045264999999999844e+01 0.000000000000000000e+00 0.000000000000000000e+00 1.135702999999999996e+01 -1.760000000000000009e+00 3.048410000000000064e+00 1.135702999999999996e+01 -3.520000000000000018e+00 6.096820000000000128e+00 1.135702999999999996e+01 3.520000000000000018e+00 0.000000000000000000e+00 1.135702999999999996e+01 1.760000000000000009e+00 3.048410000000000064e+00 1.135702999999999996e+01 0.000000000000000000e+00 6.096820000000000128e+00 1.135702999999999996e+01 7.040000000000000036e+00 0.000000000000000000e+00 1.135702999999999996e+01 5.280000000000000249e+00 3.048410000000000064e+00 1.135702999999999996e+01 3.520000000000000018e+00 6.096820000000000128e+00 1.135702999999999996e+01 1.760000000000000009e+00 1.524199999999999999e+00 1.864233000000000118e+01 0.000000000000000000e+00 4.572610000000000063e+00 1.864233000000000118e+01 -1.760000000000000009e+00 7.621019999999999683e+00 1.864233000000000118e+01 5.280000000000000249e+00 1.524199999999999999e+00 1.864233000000000118e+01 3.520000000000000018e+00 4.572610000000000063e+00 1.864233000000000118e+01 1.760000000000000009e+00 7.621019999999999683e+00 1.864233000000000118e+01 8.800000000000000711e+00 1.524199999999999999e+00 1.864233000000000118e+01 7.040000000000000036e+00 4.572610000000000063e+00 1.864233000000000118e+01 5.280000000000000249e+00 7.621019999999999683e+00 1.864233000000000118e+01
2.089999999999999844e-03 2.033689999999999998e+00 9.545489999999999142e+00 -1.761519999999999975e+00 5.078299999999999592e+00 9.547520000000000451e+00 -3.516389999999999905e+00 8.128220000000000667e+00 9.547109999999999985e+00 3.520890000000000075e+00 2.028970000000000162e+00 9.546300000000000452e+00 1.759319999999999995e+00 5.081389999999999851e+00 9.548669999999999547e+00 -2.799999999999999755e-04 8.126839999999999620e+00 9.545500000000000540e+00 7.041960000000000441e+00 2.032500000000000195e+00 9.549289999999999168e+00 5.281060000000000088e+00 5.080759999999999721e+00 9.548280000000000101e+00 3.520270000000000010e+00 8.130380000000000607e+00 9.547000000000000597e+00 -1.100000000000000039e-04 5.064499999999999558e-01 1.683213999999999899e+01 -1.759300000000000086e+00 3.558790000000000120e+00 1.683023999999999987e+01 -3.518539999999999779e+00 6.605199999999999960e+00 1.683392999999999873e+01 3.521440000000000126e+00 5.067899999999999627e-01 1.683180000000000121e+01 1.760869999999999935e+00 3.557549999999999990e+00 1.683049000000000106e+01 -1.100000000000000066e-03 6.602899999999999991e+00 1.683417000000000030e+01 7.037689999999999557e+00 5.072400000000000242e-01 1.683427000000000007e+01 5.279060000000000308e+00 3.556880000000000042e+00 1.683203999999999922e+01 3.518120000000000136e+00 6.603749999999999787e+00 1.683275000000000077e+01 8.300000000000000086e-04 2.033040000000000180e+00 1.316874999999999929e+01 -1.758869999999999933e+00 5.081039999999999779e+00 1.316821000000000019e+01 -3.520760000000000112e+00 8.132949999999999235e+00 1.316794999999999938e+01 3.518159999999999954e+00 2.029949999999999921e+00 1.316907999999999923e+01 1.759919999999999929e+00 5.080549999999999677e+00 1.316825000000000045e+01 2.109999999999999896e-03 8.132680000000000575e+00 1.316746999999999979e+01 7.038680000000000270e+00 2.033710000000000129e+00 1.317028999999999961e+01 5.282989999999999853e+00 5.078619999999999912e+00 1.316667999999999950e+01 3.520640000000000214e+00 8.128629999999999356e+00 1.316616999999999926e+01 -2.000000000000000042e-03 5.063699999999999868e-01 2.045244999999999891e+01 -1.760569999999999968e+00 3.557440000000000158e+00 2.045160999999999873e+01 -3.519130000000000091e+00 6.604040000000000354e+00 2.045276000000000138e+01 3.519309999999999938e+00 5.095699999999999674e-01 2.045429000000000030e+01 1.759819999999999940e+00 3.556080000000000130e+00 2.045129000000000019e+01 -6.199999999999999999e-04 6.601869999999999905e+00 2.045082999999999984e+01 7.039629999999999832e+00 5.077800000000000091e-01 2.045514000000000010e+01 5.278520000000000323e+00 3.559159999999999879e+00 2.045131999999999906e+01 3.517630000000000035e+00 6.606510000000000105e+00 2.045217999999999847e+01 -5.000000000000000104e-04 2.739999999999999814e-03 1.135800000000000054e+01 8.802149999999999253e+00 3.044680000000000053e+00 1.135556000000000054e+01 -3.519130000000000091e+00 6.098279999999999923e+00 1.135487000000000002e+01 -1.760639999999999983e+00 9.145070000000000476e+00 1.135514000000000046e+01 1.762100000000000000e+00 3.051280000000000214e+00 1.135581999999999958e+01 -5.999999999999999474e-04 6.098580000000000112e+00 1.135731999999999964e+01 7.040259999999999962e+00 1.330000000000000019e-03 1.136012999999999984e+01 5.277529999999999610e+00 3.049690000000000012e+00 1.135814000000000057e+01 3.521520000000000206e+00 6.096289999999999765e+00 1.135577999999999932e+01 1.760999999999999899e+00 1.524110000000000076e+00 1.864417999999999864e+01 -4.060000000000000241e-03 4.570890000000000342e+00 1.864265999999999934e+01 -1.761020000000000030e+00 7.620659999999999989e+00 1.864376999999999995e+01 5.275830000000000020e+00 1.522410000000000041e+00 1.864543000000000106e+01 3.524469999999999992e+00 4.572239999999999860e+00 1.864364000000000132e+01 1.759740000000000082e+00 7.621929999999999872e+00 1.864537999999999940e+01 8.800230000000000885e+00 1.523419999999999996e+00 1.863973999999999975e+01 7.035300000000000331e+00 4.573470000000000368e+00 1.864341999999999899e+01 5.283400000000000318e+00 7.620459999999999567e+00 1.864122000000000057e+01
4.190000000000000148e-03 2.035089999999999844e+00 9.543369999999999465e+00 -1.763039999999999941e+00 5.075919999999999987e+00 9.547430000000000305e+00 -3.512799999999999923e+00 8.127359999999999474e+00 9.546590000000000131e+00 3.521780000000000133e+00 2.025679999999999925e+00 9.544980000000000686e+00 1.758650000000000047e+00 5.082099999999999618e+00 9.549720000000000653e+00 -5.500000000000000331e-04 8.124589999999999534e+00 9.543390000000000484e+00 7.043919999999999959e+00 2.032719999999999860e+00 9.550969999999999516e+00 5.282119999999999926e+00 5.080840000000000245e+00 9.548939999999999984e+00 3.520540000000000003e+00 8.131660000000000110e+00 9.546390000000000597e+00 -2.100000000000000087e-04 5.048300000000000010e-01 1.683201000000000036e+01 -1.758610000000000007e+00 3.561069999999999958e+00 1.682823000000000135e+01 -3.517069999999999919e+00 6.605500000000000149e+00 1.683558999999999983e+01 3.522879999999999789e+00 5.054999999999999494e-01 1.683135000000000048e+01 1.761740000000000084e+00 3.558600000000000207e+00 1.682873000000000019e+01 -2.200000000000000133e-03 6.600900000000000212e+00 1.683608999999999867e+01 7.035370000000000346e+00 5.063900000000000068e-01 1.683627999999999858e+01 5.278120000000000367e+00 3.557259999999999867e+00 1.683182000000000045e+01 3.516239999999999810e+00 6.602599999999999802e+00 1.683324999999999960e+01 1.649999999999999991e-03 2.033830000000000027e+00 1.316933000000000042e+01 -1.757740000000000080e+00 5.081419999999999604e+00 1.316825000000000045e+01 -3.521510000000000140e+00 8.136810000000000542e+00 1.316773000000000060e+01 3.516329999999999956e+00 2.027649999999999952e+00 1.316999000000000031e+01 1.759840000000000071e+00 5.080440000000000289e+00 1.316832999999999920e+01 4.219999999999999793e-03 8.136269999999999669e+00 1.316679000000000066e+01 7.037359999999999616e+00 2.035149999999999793e+00 1.317240999999999929e+01 5.285969999999999835e+00 5.076590000000000380e+00 1.316520000000000046e+01 3.521279999999999966e+00 8.128170000000000783e+00 1.316418999999999961e+01 -3.989999999999999623e-03 5.046800000000000175e-01 2.045224999999999937e+01 -1.761160000000000059e+00 3.558399999999999785e+00 2.045056999999999903e+01 -3.518269999999999786e+00 6.603200000000000180e+00 2.045288000000000039e+01 3.518609999999999793e+00 5.110700000000000243e-01 2.045592999999999861e+01 1.759649999999999936e+00 3.555680000000000174e+00 2.044994000000000156e+01 -1.250000000000000026e-03 6.598860000000000170e+00 2.044901000000000124e+01 7.039250000000000007e+00 5.074899999999999967e-01 2.045760999999999896e+01 5.277050000000000018e+00 3.561830000000000052e+00 2.045000999999999891e+01 3.515270000000000117e+00 6.608120000000000438e+00 2.045172000000000168e+01 -9.799999999999999684e-04 5.470000000000000036e-03 1.135895000000000010e+01 -1.755700000000000038e+00 3.040970000000000173e+00 1.135411000000000037e+01 -3.518260000000000165e+00 6.099739999999999718e+00 1.135272999999999932e+01 -1.761279999999999957e+00 9.144920000000000826e+00 1.135326000000000057e+01 1.764189999999999925e+00 3.054139999999999855e+00 1.135462000000000060e+01 -1.190000000000000085e-03 6.100349999999999717e+00 1.135759999999999970e+01 7.040510000000000268e+00 2.660000000000000038e-03 1.136321000000000048e+01 5.275070000000000370e+00 3.050949999999999829e+00 1.135923000000000016e+01 3.523039999999999949e+00 6.095780000000000420e+00 1.135453000000000046e+01 1.761989999999999945e+00 1.524000000000000021e+00 1.864601000000000042e+01 -8.099999999999999561e-03 4.569160000000000110e+00 1.864296999999999827e+01 -1.762040000000000051e+00 7.620289999999999786e+00 1.864521999999999835e+01 5.271670000000000300e+00 1.520629999999999926e+00 1.864851000000000170e+01 3.528900000000000148e+00 4.571869999999999656e+00 1.864493999999999829e+01 1.759470000000000089e+00 7.622819999999999929e+00 1.864839999999999876e+01 8.800459999999999283e+00 1.522639999999999993e+00 1.863716000000000150e+01 7.030619999999999870e+00 4.574309999999999654e+00 1.864450000000000074e+01 5.286780000000000257e+00 7.619880000000000209e+00 1.864011999999999958e+01
6.289999999999999584e-03 2.036490000000000133e+00 9.541259999999999408e+00 -1.764539999999999997e+00 5.073550000000000004e+00 9.547330000000000538e+00 -3.509230000000000071e+00 8.126500000000000057e+00 9.546070000000000277e+00 3.522670000000000190e+00 2.022409999999999819e+00 9.543670000000000542e+00 1.757970000000000033e+00 5.082810000000000272e+00 9.550760000000000360e+00 -8.199999999999999824e-04 8.122360000000000468e+00 9.541299999999999670e+00 7.045849999999999724e+00 2.032929999999999904e+00 9.552640000000000242e+00 5.283170000000000144e+00 5.080919999999999881e+00 9.549580000000000624e+00 3.520809999999999995e+00 8.132939999999999614e+00 9.545790000000000219e+00 -2.999999999999999737e-04 5.031999999999999806e-01 1.683189000000000135e+01 -1.757940000000000058e+00 3.563330000000000108e+00 1.682622999999999891e+01 -3.515620000000000189e+00 6.605789999999999829e+00 1.683723000000000170e+01 3.524300000000000210e+00 5.041999999999999815e-01 1.683089999999999975e+01 1.762610000000000010e+00 3.559629999999999850e+00 1.682700000000000173e+01 -3.299999999999999982e-03 6.598900000000000432e+00 1.683800000000000097e+01 7.033059999999999867e+00 5.055399999999999894e-01 1.683829000000000065e+01 5.277180000000000426e+00 3.557599999999999874e+00 1.683160000000000167e+01 3.514369999999999994e+00 6.601440000000000197e+00 1.683374999999999844e+01 2.490000000000000026e-03 2.034629999999999939e+00 1.316990999999999978e+01 -1.756610000000000005e+00 5.081800000000000317e+00 1.316829000000000072e+01 -3.522269999999999790e+00 8.140670000000000073e+00 1.316751000000000005e+01 3.514489999999999892e+00 2.025370000000000115e+00 1.317088999999999999e+01 1.759770000000000056e+00 5.080359999999999765e+00 1.316841999999999935e+01 6.309999999999999637e-03 8.139860000000000539e+00 1.316611999999999938e+01 7.036050000000000360e+00 2.036620000000000097e+00 1.317453000000000074e+01 5.288949999999999818e+00 5.074580000000000091e+00 1.316374000000000066e+01 3.521920000000000162e+00 8.127729999999999677e+00 1.316222999999999921e+01 -5.969999999999999613e-03 5.030000000000000027e-01 2.045204999999999984e+01 -1.761749999999999927e+00 3.559340000000000170e+00 2.044952999999999932e+01 -3.517419999999999991e+00 6.602360000000000007e+00 2.045301999999999865e+01 3.517910000000000093e+00 5.125499999999999501e-01 2.045758999999999972e+01 1.759470000000000089e+00 3.555280000000000218e+00 2.044858999999999938e+01 -1.869999999999999917e-03 6.595850000000000435e+00 2.044720999999999833e+01 7.038879999999999804e+00 5.072100000000000497e-01 2.046009000000000100e+01 5.275579999999999714e+00 3.564480000000000093e+00 2.044874000000000080e+01 3.512929999999999886e+00 6.609729999999999883e+00 2.045126000000000133e+01 -1.440000000000000091e-03 8.200000000000000691e-03 1.135984999999999978e+01 -1.753570000000000073e+00 3.037319999999999798e+00 1.135270000000000046e+01 -3.517389999999999795e+00 6.101200000000000401e+00 1.135064000000000028e+01 -1.761889999999999956e+00 9.144780000000000797e+00 1.135139999999999993e+01 1.766259999999999941e+00 3.056960000000000122e+00 1.135344000000000086e+01 -1.770000000000000089e-03 6.102100000000000080e+00 1.135788999999999938e+01 7.040759999999999685e+00 3.989999999999999623e-03 1.136622999999999983e+01 5.272639999999999993e+00 3.052189999999999959e+00 1.136031000000000013e+01 3.524550000000000072e+00 6.095279999999999809e+00 1.135330000000000084e+01 1.762969999999999926e+00 1.523870000000000058e+00 1.864779000000000053e+01 -1.208000000000000046e-02 4.567429999999999879e+00 1.864327000000000112e+01 -1.763039999999999941e+00 7.619930000000000092e+00 1.864665000000000106e+01 5.267570000000000086e+00 1.518869999999999942e+00 1.865156999999999954e+01 3.533269999999999911e+00 4.571509999999999962e+00 1.864620999999999995e+01 1.759190000000000031e+00 7.623689999999999856e+00 1.865138999999999925e+01 8.800670000000000215e+00 1.521870000000000056e+00 1.863460999999999856e+01 7.025999999999999801e+00 4.575129999999999697e+00 1.864554000000000045e+01 5.290110000000000312e+00 7.619299999999999962e+00 1.863903000000000176e+01
8.399999999999999481e-03 2.037889999999999979e+00 9.539139999999999731e+00 -1.766019999999999923e+00 5.071170000000000400e+00 9.547240000000000393e+00 -3.505700000000000038e+00 8.125669999999999504e+00 9.545540000000000802e+00 3.523559999999999803e+00 2.019159999999999844e+00 9.542350000000000776e+00 1.757309999999999928e+00 5.083540000000000170e+00 9.551780000000000825e+00 -1.059999999999999961e-03 8.120160000000000267e+00 9.539220000000000255e+00 7.047760000000000247e+00 2.033139999999999947e+00 9.554309999999999192e+00 5.284229999999999983e+00 5.080989999999999895e+00 9.550200000000000244e+00 3.521079999999999988e+00 8.134219999999999118e+00 9.545199999999999463e+00 -3.699999999999999947e-04 5.015699999999999603e-01 1.683174999999999955e+01 -1.757309999999999928e+00 3.565560000000000063e+00 1.682423999999999964e+01 -3.514159999999999950e+00 6.606049999999999756e+00 1.683883000000000152e+01 3.525689999999999991e+00 5.028899999999999482e-01 1.683044999999999902e+01 1.763479999999999936e+00 3.560639999999999805e+00 1.682531000000000176e+01 -4.380000000000000213e-03 6.596899999999999764e+00 1.683990999999999971e+01 7.030739999999999768e+00 5.046800000000000175e-01 1.684028999999999954e+01 5.276250000000000107e+00 3.557910000000000128e+00 1.683137999999999934e+01 3.512519999999999865e+00 6.600290000000000212e+00 1.683426000000000045e+01 3.330000000000000061e-03 2.035460000000000047e+00 1.317048999999999914e+01 -1.755500000000000060e+00 5.082189999999999763e+00 1.316830000000000034e+01 -3.523019999999999818e+00 8.144519999999999982e+00 1.316728999999999949e+01 3.512659999999999894e+00 2.023120000000000029e+00 1.317178999999999967e+01 1.759700000000000042e+00 5.080309999999999881e+00 1.316849999999999987e+01 8.370000000000000703e-03 8.143440000000000012e+00 1.316545999999999950e+01 7.034749999999999837e+00 2.038100000000000023e+00 1.317662999999999940e+01 5.291909999999999670e+00 5.072630000000000194e+00 1.316228000000000087e+01 3.522559999999999913e+00 8.127309999999999590e+00 1.316028999999999982e+01 -7.939999999999999142e-03 5.013199999999999878e-01 2.045184000000000069e+01 -1.762380000000000058e+00 3.560259999999999980e+00 2.044849999999999923e+01 -3.516570000000000196e+00 6.601530000000000342e+00 2.045317000000000007e+01 3.517189999999999817e+00 5.140099999999999669e-01 2.045927999999999969e+01 1.759300000000000086e+00 3.554899999999999949e+00 2.044725000000000037e+01 -2.500000000000000052e-03 6.592859999999999943e+00 2.044545000000000101e+01 7.038509999999999600e+00 5.069500000000000117e-01 2.046255000000000024e+01 5.274119999999999919e+00 3.567099999999999937e+00 2.044751000000000118e+01 3.510629999999999917e+00 6.611329999999999707e+00 2.045081000000000060e+01 -1.869999999999999917e-03 1.090999999999999956e-02 1.136069999999999958e+01 -1.751460000000000017e+00 3.033729999999999816e+00 1.135134000000000043e+01 -3.516519999999999868e+00 6.102649999999999686e+00 1.134859999999999935e+01 -1.762459999999999916e+00 9.144629999999999370e+00 1.134957999999999956e+01 1.768299999999999983e+00 3.059719999999999995e+00 1.135227000000000075e+01 -2.350000000000000092e-03 6.103839999999999932e+00 1.135816999999999943e+01 7.041000000000000369e+00 5.309999999999999616e-03 1.136916000000000082e+01 5.270249999999999879e+00 3.053380000000000205e+00 1.136137000000000086e+01 3.526050000000000129e+00 6.094789999999999708e+00 1.135210000000000008e+01 1.763929999999999998e+00 1.523719999999999963e+00 1.864951999999999899e+01 -1.598000000000000115e-02 4.565690000000000026e+00 1.864352999999999838e+01 -1.764029999999999987e+00 7.619589999999999641e+00 1.864808000000000021e+01 5.263519999999999754e+00 1.517149999999999999e+00 1.865457999999999927e+01 3.537520000000000220e+00 4.571159999999999890e+00 1.864743999999999957e+01 1.758879999999999999e+00 7.624530000000000030e+00 1.865431999999999846e+01 8.800850000000000506e+00 1.521120000000000028e+00 1.863211000000000084e+01 7.021469999999999878e+00 4.575929999999999609e+00 1.864655000000000129e+01 5.293370000000000353e+00 7.618710000000000093e+00 1.863796999999999926e+01
1.051999999999999984e-02 2.039270000000000138e+00 9.537029999999999674e+00 -1.767479999999999940e+00 5.068810000000000038e+00 9.547150000000000247e+00 -3.502229999999999954e+00 8.124850000000000350e+00 9.544999999999999929e+00 3.524439999999999795e+00 2.015960000000000196e+00 9.541029999999999234e+00 1.756639999999999979e+00 5.084290000000000198e+00 9.552770000000000650e+00 -1.280000000000000105e-03 8.117979999999999308e+00 9.537160000000000082e+00 7.049629999999999619e+00 2.033339999999999925e+00 9.555970000000000297e+00 5.285269999999999690e+00 5.081059999999999910e+00 9.550800000000000622e+00 3.521349999999999980e+00 8.135500000000000398e+00 9.544629999999999725e+00 -4.200000000000000174e-04 4.999399999999999955e-01 1.683161000000000129e+01 -1.756720000000000059e+00 3.567750000000000199e+00 1.682225999999999999e+01 -3.512710000000000221e+00 6.606300000000000061e+00 1.684040999999999855e+01 3.527060000000000084e+00 5.015699999999999603e-01 1.683002000000000109e+01 1.764350000000000085e+00 3.561630000000000074e+00 1.682366999999999990e+01 -5.459999999999999576e-03 6.594899999999999984e+00 1.684181999999999846e+01 7.028410000000000046e+00 5.038099999999999801e-01 1.684227999999999881e+01 5.275319999999999787e+00 3.558180000000000121e+00 1.683116000000000057e+01 3.510689999999999866e+00 6.599129999999999718e+00 1.683477999999999852e+01 4.190000000000000148e-03 2.036319999999999908e+00 1.317107000000000028e+01 -1.754389999999999894e+00 5.082580000000000098e+00 1.316829000000000072e+01 -3.523759999999999781e+00 8.148350000000000648e+00 1.316705999999999932e+01 3.510839999999999961e+00 2.020910000000000206e+00 1.317267999999999972e+01 1.759640000000000093e+00 5.080289999999999750e+00 1.316858000000000040e+01 1.039999999999999952e-02 8.147019999999999484e+00 1.316482000000000063e+01 7.033470000000000333e+00 2.039600000000000080e+00 1.317872000000000021e+01 5.294859999999999900e+00 5.070719999999999672e+00 1.316084999999999994e+01 3.523219999999999796e+00 8.126889999999999503e+00 1.315836999999999968e+01 -9.900000000000000813e-03 4.996499999999999830e-01 2.045163000000000153e+01 -1.763030000000000097e+00 3.561139999999999972e+00 2.044747999999999877e+01 -3.515740000000000087e+00 6.600719999999999921e+00 2.045335999999999999e+01 3.516449999999999854e+00 5.154300000000000548e-01 2.046098999999999890e+01 1.759130000000000082e+00 3.554530000000000189e+00 2.044592000000000098e+01 -3.139999999999999996e-03 6.589889999999999581e+00 2.044371999999999900e+01 7.038149999999999906e+00 5.067199999999999482e-01 2.046499000000000024e+01 5.272669999999999746e+00 3.569679999999999964e+00 2.044634999999999891e+01 3.508379999999999832e+00 6.612919999999999909e+00 2.045037999999999911e+01 -2.249999999999999830e-03 1.361000000000000057e-02 1.136147000000000062e+01 -1.749360000000000026e+00 3.030229999999999979e+00 1.135005999999999915e+01 -3.515649999999999942e+00 6.104079999999999728e+00 1.134664000000000073e+01 -1.762990000000000057e+00 9.144489999999999341e+00 1.134779999999999944e+01 1.770299999999999985e+00 3.062399999999999789e+00 1.135111999999999988e+01 -2.909999999999999826e-03 6.105559999999999654e+00 1.135844999999999949e+01 7.041229999999999656e+00 6.629999999999999609e-03 1.137199000000000026e+01 5.267909999999999648e+00 3.054499999999999993e+00 1.136237999999999992e+01 3.527530000000000054e+00 6.094319999999999737e+00 1.135092000000000034e+01 1.764860000000000095e+00 1.523539999999999894e+00 1.865116000000000085e+01 -1.976999999999999938e-02 4.563959999999999795e+00 1.864375000000000071e+01 -1.764990000000000059e+00 7.619270000000000209e+00 1.864949999999999974e+01 5.259570000000000078e+00 1.515490000000000004e+00 1.865753000000000128e+01 3.541630000000000056e+00 4.570850000000000080e+00 1.864861000000000146e+01 1.758559999999999901e+00 7.625329999999999941e+00 1.865718000000000032e+01 8.801000000000000156e+00 1.520389999999999908e+00 1.862967000000000084e+01 7.017050000000000232e+00 4.576679999999999637e+00 1.864749000000000123e+01 5.296549999999999869e+00 7.618120000000000225e+00 1.863694999999999879e+01
1.264999999999999979e-02 2.040630000000000166e+00 9.534919999999999618e+00 -1.768899999999999917e+00 5.066449999999999676e+00 9.547060000000000102e+00 -3.498819999999999819e+00 8.124060000000000059e+00 9.544449999999999434e+00 3.525329999999999853e+00 2.012799999999999923e+00 9.539709999999999468e+00 1.755989999999999940e+00 5.085049999999999848e+00 9.553729999999999833e+00 -1.469999999999999953e-03 8.115830000000000766e+00 9.535140000000000171e+00 7.051459999999999617e+00 2.033529999999999838e+00 9.557629999999999626e+00 5.286310000000000286e+00 5.081120000000000303e+00 9.551360000000000738e+00 3.521609999999999907e+00 8.136789999999999523e+00 9.544079999999999231e+00 -4.400000000000000157e-04 4.983099999999999752e-01 1.683145999999999987e+01 -1.756189999999999918e+00 3.569900000000000073e+00 1.682030999999999921e+01 -3.511270000000000113e+00 6.606519999999999726e+00 1.684193000000000140e+01 3.528399999999999981e+00 5.002400000000000180e-01 1.682960999999999885e+01 1.765220000000000011e+00 3.562590000000000146e+00 1.682208999999999932e+01 -6.519999999999999754e-03 6.592920000000000336e+00 1.684372000000000114e+01 7.026080000000000325e+00 5.029299999999999882e-01 1.684428000000000125e+01 5.274399999999999977e+00 3.558390000000000164e+00 1.683092999999999861e+01 3.508879999999999999e+00 6.597990000000000244e+00 1.683532999999999902e+01 5.069999999999999854e-03 2.037209999999999965e+00 1.317164999999999964e+01 -1.753300000000000081e+00 5.082970000000000432e+00 1.316825000000000045e+01 -3.524500000000000188e+00 8.152150000000000674e+00 1.316682999999999915e+01 3.509020000000000028e+00 2.018740000000000201e+00 1.317355000000000054e+01 1.759600000000000053e+00 5.080309999999999881e+00 1.316864999999999952e+01 1.239999999999999956e-02 8.150570000000000093e+00 1.316419999999999924e+01 7.032189999999999941e+00 2.041129999999999889e+00 1.318079999999999963e+01 5.297789999999999999e+00 5.068880000000000052e+00 1.315944000000000003e+01 3.523870000000000058e+00 8.126469999999999416e+00 1.315648999999999980e+01 -1.183000000000000024e-02 4.979999999999999982e-01 2.045140999999999920e+01 -1.763719999999999954e+00 3.561990000000000212e+00 2.044645999999999830e+01 -3.514930000000000110e+00 6.599910000000000387e+00 2.045358999999999838e+01 3.515690000000000204e+00 5.168199999999999461e-01 2.046274000000000015e+01 1.758950000000000014e+00 3.554180000000000117e+00 2.044460000000000122e+01 -3.779999999999999940e-03 6.586929999999999730e+00 2.044204999999999828e+01 7.037779999999999703e+00 5.065100000000000158e-01 2.046742000000000061e+01 5.271239999999999704e+00 3.572220000000000173e+00 2.044527000000000072e+01 3.506190000000000140e+00 6.614499999999999602e+00 2.044996000000000080e+01 -2.569999999999999802e-03 1.626999999999999974e-02 1.136214999999999975e+01 -1.747290000000000010e+00 3.026839999999999975e+00 1.134886000000000017e+01 -3.514790000000000081e+00 6.105500000000000149e+00 1.134478000000000009e+01 -1.763449999999999962e+00 9.144349999999999312e+00 1.134606999999999921e+01 1.772250000000000103e+00 3.064989999999999881e+00 1.134999000000000002e+01 -3.459999999999999968e-03 6.107249999999999623e+00 1.135872999999999955e+01 7.041450000000000209e+00 7.929999999999999549e-03 1.137467000000000006e+01 5.265629999999999811e+00 3.055550000000000210e+00 1.136336000000000013e+01 3.528999999999999915e+00 6.093880000000000408e+00 1.134976999999999947e+01 1.765749999999999931e+00 1.523330000000000073e+00 1.865270999999999901e+01 -2.343999999999999903e-02 4.562219999999999942e+00 1.864392000000000138e+01 -1.765930000000000000e+00 7.618970000000000020e+00 1.865090999999999966e+01 5.255720000000000169e+00 1.513889999999999958e+00 1.866041999999999845e+01 3.545570000000000110e+00 4.570560000000000400e+00 1.864970999999999890e+01 1.758189999999999920e+00 7.626079999999999970e+00 1.865994999999999848e+01 8.801099999999999923e+00 1.519689999999999985e+00 1.862728999999999857e+01 7.012769999999999726e+00 4.577390000000000292e+00 1.864836999999999989e+01 5.299619999999999997e+00 7.617510000000000225e+00 1.863597000000000037e+01