2.599999999999999840e-05 -2.622000000000000199e-03 -1.037100000000000001e-02 1.599999999999999928e-05 -2.624000000000000030e-03 -1.037100000000000001e-02 1.900000000000000105e-05 -2.628999999999999827e-03 -1.036800000000000048e-02 5.000000000000000409e-06 -2.625999999999999862e-03 -1.035100000000000083e-02 1.699999999999999987e-05 -2.634000000000000057e-03 -1.034900000000000056e-02 1.200000000000000030e-05 -2.631000000000000092e-03 -1.035499999999999962e-02 -7.999999999999999638e-06 -2.641000000000000118e-03 -1.036899999999999974e-02 -1.000000000000000082e-05 -2.637000000000000021e-03 -1.036300000000000068e-02 -7.999999999999999638e-06 -2.647000000000000047e-03 -1.036499999999999921e-02 -1.000000000000000082e-05 -4.496100000000000096e-02 -1.026099999999999929e-02 -9.000000000000000228e-06 -4.496499999999999803e-02 -1.026299999999999955e-02 -9.000000000000000228e-06 -4.496300000000000296e-02 -1.026499999999999982e-02 1.800000000000000046e-05 -4.494599999999999984e-02 -1.026999999999999962e-02 1.900000000000000105e-05 -4.494700000000000084e-02 -1.026900000000000035e-02 2.500000000000000120e-05 -4.494499999999999884e-02 -1.026700000000000008e-02 1.299999999999999920e-05 -4.495699999999999696e-02 -1.024800000000000016e-02 1.000000000000000082e-05 -4.495099999999999790e-02 -1.025200000000000070e-02 3.999999999999999819e-06 -4.494900000000000284e-02 -1.024800000000000016e-02 2.599999999999999840e-05 4.708500000000000185e-02 1.011199999999999946e-02 1.500000000000000038e-05 4.708400000000000085e-02 1.011300000000000046e-02 1.900000000000000105e-05 4.707900000000000279e-02 1.011100000000000020e-02 6.000000000000000152e-06 4.708099999999999785e-02 1.009299999999999954e-02 1.599999999999999928e-05 4.707299999999999679e-02 1.009099999999999928e-02 1.200000000000000030e-05 4.707800000000000179e-02 1.009600000000000081e-02 -9.000000000000000228e-06 4.706599999999999673e-02 1.011199999999999946e-02 -1.000000000000000082e-05 4.707000000000000073e-02 1.010499999999999940e-02 -9.000000000000000228e-06 4.706099999999999867e-02 1.010899999999999993e-02 -9.000000000000000228e-06 -4.500000000000000283e-05 1.020899999999999933e-02 -9.000000000000000228e-06 -4.699999999999999724e-05 1.021099999999999959e-02 -9.000000000000000228e-06 -4.699999999999999724e-05 1.021299999999999986e-02 1.699999999999999987e-05 -3.000000000000000076e-05 1.021700000000000039e-02 2.000000000000000164e-05 -3.000000000000000076e-05 1.021599999999999939e-02 2.500000000000000120e-05 -2.799999999999999958e-05 1.021400000000000086e-02 1.399999999999999979e-05 -4.100000000000000047e-05 1.019600000000000020e-02 1.200000000000000030e-05 -3.199999999999999855e-05 1.020000000000000073e-02 6.000000000000000152e-06 -3.100000000000000135e-05 1.019499999999999920e-02 -1.099999999999999971e-05 1.462399999999999985e-02 -1.134999999999999941e-03 -1.299999999999999920e-05 1.462699999999999938e-02 -1.136000000000000074e-03 -1.599999999999999928e-05 1.462699999999999938e-02 -1.137999999999999906e-03 -7.999999999999999638e-06 1.463199999999999917e-02 -1.142999999999999919e-03 -1.999999999999999909e-06 1.463199999999999917e-02 -1.147000000000000016e-03 -1.999999999999999909e-06 1.462899999999999964e-02 -1.141000000000000087e-03 -2.599999999999999840e-05 1.461600000000000052e-02 -1.144000000000000052e-03 -3.100000000000000135e-05 1.462100000000000032e-02 -1.141000000000000087e-03 -2.599999999999999840e-05 1.461600000000000052e-02 -1.146000000000000100e-03 -1.500000000000000038e-05 -1.415699999999999945e-02 1.185999999999999988e-03 -1.200000000000000030e-05 -1.415499999999999918e-02 1.183999999999999940e-03 -1.200000000000000030e-05 -1.415699999999999945e-02 1.185999999999999988e-03 -3.000000000000000076e-06 -1.415300000000000065e-02 1.190000000000000085e-03 -6.000000000000000152e-06 -1.414699999999999985e-02 1.193000000000000050e-03 -3.000000000000000076e-06 -1.415199999999999965e-02 1.196000000000000014e-03 -2.699999999999999899e-05 -1.416700000000000077e-02 1.195000000000000099e-03 -2.699999999999999899e-05 -1.416399999999999951e-02 1.195000000000000099e-03 -3.000000000000000076e-05 -1.416199999999999924e-02 1.191000000000000001e-03
7.917000000000000426e-03 -1.300399999999999993e-02 -2.209000000000000026e-03 2.269300000000000136e-02 4.008000000000000278e-03 -6.354000000000000273e-03 -4.817300000000000054e-02 1.673699999999999841e-02 -1.624600000000000002e-02 -1.791999999999999973e-03 3.228899999999999826e-02 -7.242000000000000173e-03 6.045000000000000026e-03 1.082100000000000076e-02 -2.897500000000000075e-02 2.062900000000000150e-02 2.434499999999999859e-02 1.500600000000000024e-02 -3.176099999999999757e-02 -9.237000000000000419e-03 -1.278299999999999922e-02 -5.146000000000000400e-03 -5.264999999999999715e-03 -3.058100000000000054e-02 -2.295000000000000165e-03 -3.056999999999999822e-03 8.321000000000000271e-03 1.925400000000000028e-02 -3.143100000000000060e-02 -1.271000000000000081e-02 -4.029300000000000243e-02 -6.713500000000000023e-02 9.176000000000000129e-03 -5.928000000000000110e-03 -5.048300000000000010e-02 -3.946800000000000308e-02 -2.489799999999999999e-02 -4.071199999999999819e-02 3.598000000000000070e-03 3.060000000000000111e-04 -5.525599999999999956e-02 3.863799999999999873e-02 9.700999999999999554e-03 -2.643399999999999916e-02 -9.277999999999999789e-03 -2.178999999999999947e-03 -3.877200000000000091e-02 -1.260599999999999915e-02 5.381999999999999632e-03 -7.286299999999999721e-02 -8.857000000000000289e-03 1.813000000000000028e-02 -2.951900000000000010e-02 4.218000000000000395e-03 1.068999999999999985e-02 5.720599999999999991e-02 5.380000000000000233e-03 -1.023800000000000057e-02 3.690800000000000330e-02 -1.372300000000000082e-02 4.628000000000000169e-03 1.630300000000000152e-02 3.811999999999999850e-03 5.117000000000000021e-03 6.581399999999999750e-02 -2.880000000000000181e-03 8.803000000000000061e-03 6.525699999999999557e-02 3.749999999999999861e-03 -2.788300000000000153e-02 2.323300000000000018e-02 2.277699999999999864e-02 1.210899999999999997e-02 5.084700000000000331e-02 -6.446999999999999606e-03 -1.569900000000000115e-02 8.082999999999999907e-02 2.353399999999999936e-02 4.036999999999999790e-03 4.328599999999999809e-02 3.365400000000000336e-02 1.584800000000000098e-02 1.031999999999999931e-02 2.795999999999999874e-03 -2.601900000000000046e-02 -2.662000000000000130e-02 1.408500000000000030e-02 -1.275699999999999924e-02 1.036300000000000068e-02 3.286300000000000332e-02 -1.417299999999999983e-02 -2.684399999999999981e-02 3.056400000000000089e-02 1.069999999999999988e-03 1.137400000000000043e-02 1.732600000000000112e-02 -4.655000000000000283e-03 1.474499999999999943e-02 4.146899999999999892e-02 3.524999999999999922e-03 1.919399999999999926e-02 -7.315000000000000321e-03 9.797000000000000153e-03 -3.398500000000000132e-02 6.235000000000000264e-02 4.161000000000000115e-02 -9.279000000000000789e-03 1.757999999999999841e-02 3.014599999999999919e-02 -3.503000000000000037e-03 -5.190399999999999875e-02 -1.541200000000000035e-02 6.896800000000000153e-02 4.586400000000000199e-02 -1.165000000000000020e-03 1.624000000000000010e-03 5.080300000000000094e-02 2.986099999999999866e-02 1.228500000000000078e-02 2.692699999999999955e-02 -2.730600000000000041e-02 -4.034599999999999992e-02 1.320999999999999952e-02 7.823999999999999358e-03 -3.804999999999999789e-03 -2.969999999999999984e-03 -8.422000000000000666e-03 3.867999999999999911e-03 -7.432999999999999330e-02 3.484199999999999797e-02 -2.991500000000000062e-02 -2.426899999999999891e-02 -1.021299999999999986e-02 2.317100000000000062e-02 1.771400000000000058e-02 -1.814599999999999894e-02 -2.934799999999999909e-02 -5.206000000000000211e-02 6.822000000000000286e-02 -9.820999999999999869e-03 -2.547400000000000012e-02 1.405700000000000005e-02 3.788999999999999833e-03 -5.533999999999999857e-03 5.661000000000000060e-02 2.508900000000000019e-02 -3.704299999999999954e-02 -9.138000000000000289e-02 4.984999999999999848e-03 -3.523500000000000243e-02 -1.651999999999999996e-02 -3.672899999999999776e-02 -4.805299999999999849e-02 -2.183399999999999924e-02 5.368999999999999641e-03 3.969299999999999912e-02 7.332600000000000229e-02 -3.441199999999999815e-02 -3.653200000000000197e-02 -5.786299999999999777e-02 -1.600999999999999993e-02 2.361299999999999857e-02
1.565300000000000025e-02 -2.318299999999999875e-02 5.748999999999999770e-03 4.515899999999999775e-02 1.069400000000000038e-02 -2.374999999999999941e-03 -9.570800000000000141e-02 3.568000000000000338e-02 -2.280000000000000082e-02 -3.500000000000000073e-03 6.717299999999999660e-02 -4.460000000000000422e-03 1.206100000000000054e-02 2.437200000000000130e-02 -4.765400000000000191e-02 4.059800000000000214e-02 5.089099999999999874e-02 3.963900000000000062e-02 -6.339300000000000490e-02 -1.589099999999999888e-02 -1.552800000000000014e-02 -1.022699999999999998e-02 -7.983999999999999778e-03 -5.078400000000000275e-02 -4.524000000000000243e-03 -3.518999999999999993e-03 2.656899999999999887e-02 3.816699999999999954e-02 -1.797400000000000039e-02 -1.525600000000000046e-02 -8.002599999999999991e-02 -8.944299999999999473e-02 2.777200000000000155e-02 -1.173300000000000037e-02 -5.602599999999999941e-02 -6.875699999999999867e-02 -4.941799999999999665e-02 -3.647399999999999948e-02 1.713100000000000039e-02 4.659999999999999971e-04 -6.543799999999999617e-02 8.632800000000000196e-02 1.931599999999999984e-02 -7.924000000000000488e-03 -8.571999999999999759e-03 -4.259999999999999898e-03 -3.262899999999999828e-02 -1.511499999999999996e-02 1.080099999999999984e-02 -1.002220000000000055e-01 -7.924999999999999753e-03 3.605200000000000071e-02 -1.409099999999999936e-02 1.828799999999999870e-02 2.111599999999999935e-02 6.709299999999999986e-02 9.690000000000000262e-04 -2.031099999999999919e-02 2.706300000000000025e-02 -3.696300000000000280e-02 9.228999999999999357e-03 -1.425200000000000078e-02 -2.187999999999999841e-03 1.032199999999999958e-02 8.440699999999999592e-02 -1.564799999999999872e-02 1.746699999999999989e-02 8.323200000000000043e-02 -2.458999999999999814e-03 -5.594099999999999767e-02 -8.159999999999999936e-04 3.579100000000000337e-02 2.408400000000000124e-02 5.432300000000000323e-02 -2.276900000000000104e-02 -3.126700000000000312e-02 1.146110000000000045e-01 3.726499999999999951e-02 8.141999999999999932e-03 3.948700000000000127e-02 5.707799999999999679e-02 3.159000000000000002e-02 2.062699999999999950e-02 -4.518999999999999580e-03 -5.210200000000000248e-02 -5.308299999999999824e-02 1.827700000000000158e-02 -2.551000000000000142e-02 2.067300000000000040e-02 5.548700000000000160e-02 -2.848399999999999890e-02 -5.358299999999999869e-02 5.125500000000000195e-02 2.086999999999999880e-03 2.277799999999999964e-02 2.438799999999999996e-02 -9.216000000000000233e-03 2.949299999999999838e-02 7.260900000000000687e-02 6.775999999999999905e-03 3.808899999999999786e-02 -2.445900000000000157e-02 1.994699999999999945e-02 -6.825599999999999723e-02 1.152019999999999988e-01 8.303000000000000658e-02 -1.877500000000000002e-02 2.538299999999999931e-02 5.966699999999999782e-02 -2.134199999999999986e-02 -1.017450000000000021e-01 -3.041400000000000006e-02 1.226970000000000005e-01 9.219199999999999617e-02 -2.275000000000000112e-03 -1.140900000000000074e-02 1.020739999999999981e-01 5.964799999999999963e-02 9.931999999999999856e-03 5.509000000000000008e-02 -5.424899999999999861e-02 -9.481100000000000638e-02 2.746699999999999836e-02 1.563900000000000012e-02 -2.191500000000000045e-02 -4.688999999999999592e-03 -1.605600000000000083e-02 -6.288000000000000186e-03 -1.466320000000000123e-01 6.928099999999999536e-02 -7.417600000000000582e-02 -4.728600000000000164e-02 -2.036100000000000063e-02 3.180000000000000188e-02 3.629799999999999693e-02 -3.613800000000000345e-02 -4.468699999999999756e-02 -1.044410000000000061e-01 1.358189999999999953e-01 -5.433000000000000329e-03 -5.185000000000000026e-02 2.814300000000000135e-02 2.149300000000000169e-02 -1.217700000000000032e-02 1.128630000000000050e-01 6.391499999999999959e-02 -7.484499999999999487e-02 -1.825589999999999991e-01 2.443899999999999892e-02 -7.170600000000000585e-02 -3.311100000000000154e-02 -5.891600000000000309e-02 -9.689499999999999502e-02 -4.321900000000000047e-02 2.463399999999999965e-02 7.766299999999999593e-02 1.461480000000000001e-01 -5.415400000000000075e-02 -7.389800000000000535e-02 -1.152500000000000052e-01 -1.763400000000000037e-02 4.603700000000000153e-02
2.307000000000000023e-02 -3.317799999999999916e-02 1.357900000000000079e-02 6.736000000000000321e-02 1.760199999999999959e-02 1.564999999999999985e-03 -1.424159999999999870e-01 5.410100000000000325e-02 -2.993399999999999880e-02 -5.141999999999999869e-03 1.019079999999999986e-01 -1.853000000000000046e-03 1.803899999999999948e-02 3.789499999999999813e-02 -6.620600000000000096e-02 5.979199999999999793e-02 7.689500000000000501e-02 6.355700000000000238e-02 -9.474499999999999589e-02 -2.253099999999999895e-02 -1.889400000000000107e-02 -1.519700000000000044e-02 -1.077999999999999965e-02 -7.072399999999999520e-02 -6.611999999999999822e-03 -4.076999999999999895e-03 4.426900000000000279e-02 5.656300000000000217e-02 -4.572999999999999808e-03 -1.784600000000000075e-02 -1.189780000000000004e-01 -1.119490000000000068e-01 4.540000000000000285e-02 -1.746999999999999942e-02 -6.152900000000000036e-02 -9.793999999999999928e-02 -7.350299999999999889e-02 -3.216000000000000109e-02 3.039599999999999941e-02 5.280000000000000405e-04 -7.562599999999999878e-02 1.324619999999999964e-01 2.878199999999999856e-02 1.059399999999999925e-02 -8.312999999999999209e-03 -6.086000000000000264e-03 -2.650500000000000078e-02 -1.779700000000000032e-02 1.615300000000000069e-02 -1.267979999999999940e-01 -7.394000000000000399e-03 5.372899999999999898e-02 1.263000000000000017e-03 3.178099999999999675e-02 3.125800000000000106e-02 7.653699999999999393e-02 -3.093999999999999962e-03 -3.012099999999999847e-02 1.766900000000000068e-02 -5.938100000000000322e-02 1.382899999999999928e-02 -4.448599999999999777e-02 -7.953000000000000000e-03 1.572499999999999939e-02 1.028460000000000069e-01 -2.825799999999999840e-02 2.592600000000000113e-02 1.008570000000000022e-01 -8.521000000000000796e-03 -8.400699999999999834e-02 -2.509600000000000025e-02 4.899099999999999983e-02 3.587400000000000311e-02 5.732299999999999895e-02 -3.882300000000000334e-02 -4.675599999999999895e-02 1.481879999999999864e-01 5.124999999999999695e-02 1.231299999999999929e-02 3.586500000000000105e-02 8.024900000000000089e-02 4.725100000000000133e-02 3.095499999999999988e-02 -1.184699999999999989e-02 -7.803200000000000414e-02 -7.933099999999999874e-02 2.288400000000000156e-02 -3.821200000000000291e-02 3.084200000000000136e-02 7.782100000000000128e-02 -4.284600000000000214e-02 -8.007499999999999341e-02 7.179099999999999371e-02 3.145999999999999925e-03 3.395299999999999707e-02 3.143699999999999967e-02 -1.362999999999999975e-02 4.429400000000000004e-02 1.036289999999999989e-01 9.740999999999999659e-03 5.649400000000000255e-02 -4.144599999999999673e-02 3.036200000000000010e-02 -1.026399999999999951e-01 1.683050000000000102e-01 1.240290000000000004e-01 -2.859199999999999936e-02 3.361399999999999805e-02 8.838500000000000523e-02 -3.893400000000000333e-02 -1.502280000000000004e-01 -4.500200000000000033e-02 1.755549999999999888e-01 1.374690000000000079e-01 -3.335999999999999990e-03 -2.435199999999999865e-02 1.522419999999999884e-01 8.912499999999999589e-02 7.507999999999999917e-03 8.315300000000000469e-02 -8.062999999999999334e-02 -1.484370000000000134e-01 4.153699999999999753e-02 2.335100000000000023e-02 -3.957900000000000307e-02 -6.327000000000000159e-03 -2.288400000000000156e-02 -1.587999999999999828e-02 -2.174889999999999879e-01 1.030680000000000068e-01 -1.178239999999999982e-01 -7.003700000000000203e-02 -3.043200000000000072e-02 4.041299999999999754e-02 5.451199999999999796e-02 -5.387800000000000228e-02 -6.000699999999999784e-02 -1.555140000000000133e-01 2.024309999999999998e-01 -1.087999999999999991e-03 -7.763599999999999668e-02 4.216199999999999809e-02 3.891499999999999820e-02 -1.874599999999999878e-02 1.683890000000000109e-01 1.021159999999999984e-01 -1.119809999999999972e-01 -2.729190000000000227e-01 4.399000000000000132e-02 -1.078650000000000025e-01 -4.959899999999999726e-02 -8.046399999999999386e-02 -1.450110000000000010e-01 -6.395800000000000096e-02 4.343700000000000339e-02 1.148630000000000068e-01 2.179969999999999963e-01 -7.323300000000000642e-02 -1.105669999999999986e-01 -1.719289999999999985e-01 -1.901500000000000065e-02 6.832799999999999985e-02
2.999999999999999889e-02 -4.274900000000000228e-02 2.148800000000000016e-02 8.909200000000000452e-02 2.453299999999999925e-02 5.414000000000000409e-03 -1.879659999999999942e-01 7.189900000000000457e-02 -3.760299999999999754e-02 -6.867999999999999973e-03 1.363320000000000087e-01 6.269999999999999532e-04 2.418299999999999964e-02 5.108599999999999947e-02 -8.442700000000000204e-02 7.813699999999999812e-02 1.023939999999999989e-01 8.647900000000000031e-02 -1.254230000000000067e-01 -2.906699999999999909e-02 -2.277699999999999864e-02 -2.013699999999999865e-02 -1.358200000000000032e-02 -9.022900000000000365e-02 -8.583000000000000351e-03 -4.837000000000000154e-03 6.139599999999999919e-02 7.411299999999999832e-02 8.746000000000000302e-03 -2.058300000000000060e-02 -1.567369999999999874e-01 -1.345310000000000117e-01 6.217999999999999916e-02 -2.305499999999999911e-02 -6.692099999999999438e-02 -1.268009999999999970e-01 -9.695399999999999852e-02 -2.788900000000000060e-02 4.317900000000000210e-02 2.509999999999999753e-04 -8.572200000000000653e-02 1.766159999999999952e-01 3.797799999999999787e-02 2.895500000000000157e-02 -8.399999999999999481e-03 -7.503000000000000121e-03 -2.043000000000000024e-02 -2.075400000000000161e-02 2.147800000000000056e-02 -1.523899999999999977e-01 -7.413999999999999584e-03 7.102600000000000580e-02 1.657700000000000146e-02 4.433600000000000041e-02 4.100600000000000078e-02 8.553600000000000092e-02 -7.072000000000000161e-03 -3.971399999999999930e-02 8.597999999999999740e-03 -8.063299999999999634e-02 1.844099999999999906e-02 -7.426699999999999968e-02 -1.335700000000000082e-02 2.122399999999999981e-02 1.211070000000000063e-01 -4.070900000000000213e-02 3.436000000000000165e-02 1.178489999999999954e-01 -1.447700000000000028e-02 -1.118510000000000060e-01 -4.938499999999999834e-02 6.242400000000000032e-02 4.761499999999999760e-02 5.971900000000000125e-02 -5.473299999999999693e-02 -6.229200000000000015e-02 1.813929999999999987e-01 6.543899999999999717e-02 1.647099999999999953e-02 3.248299999999999799e-02 1.027799999999999964e-01 6.267000000000000348e-02 4.132500000000000062e-02 -1.901999999999999871e-02 -1.034140000000000059e-01 -1.051310000000000022e-01 2.765400000000000150e-02 -5.073699999999999738e-02 4.076400000000000162e-02 9.961100000000000509e-02 -5.709000000000000186e-02 -1.062120000000000009e-01 9.197099999999999720e-02 4.031999999999999994e-03 4.488400000000000029e-02 3.843200000000000088e-02 -1.789299999999999918e-02 5.895899999999999752e-02 1.340629999999999877e-01 1.244299999999999920e-02 7.426399999999999668e-02 -5.818999999999999867e-02 4.102800000000000197e-02 -1.368280000000000052e-01 2.212409999999999932e-01 1.642720000000000014e-01 -3.867299999999999904e-02 4.234700000000000270e-02 1.160029999999999950e-01 -5.597900000000000098e-02 -1.969110000000000027e-01 -5.902700000000000308e-02 2.270149999999999946e-01 1.812469999999999914e-01 -4.447999999999999697e-03 -3.721800000000000108e-02 2.007700000000000040e-01 1.179609999999999964e-01 5.270999999999999644e-03 1.108490000000000031e-01 -1.062990000000000046e-01 -2.008369999999999878e-01 5.526500000000000162e-02 3.103799999999999962e-02 -5.682000000000000245e-02 -7.884999999999999648e-03 -2.870400000000000035e-02 -2.475099999999999870e-02 -2.861870000000000247e-01 1.359559999999999935e-01 -1.604679999999999995e-01 -9.228799999999999504e-02 -4.036100000000000104e-02 4.891600000000000115e-02 7.219799999999999829e-02 -7.132199999999999651e-02 -7.512699999999999934e-02 -2.047059999999999991e-01 2.672550000000000203e-01 3.288999999999999823e-03 -1.024739999999999956e-01 5.608099999999999891e-02 5.562799999999999689e-02 -2.501000000000000098e-02 2.227840000000000098e-01 1.392349999999999977e-01 -1.479520000000000002e-01 -3.617659999999999765e-01 6.350600000000000689e-02 -1.431890000000000107e-01 -6.597400000000000486e-02 -1.012640000000000068e-01 -1.918199999999999905e-01 -8.390999999999999848e-02 6.175499999999999740e-02 1.509739999999999971e-01 2.885619999999999852e-01 -9.144900000000000251e-02 -1.461000000000000076e-01 -2.273959999999999870e-01 -2.017000000000000043e-02 9.028200000000000114e-02
3.625099999999999850e-02 -5.193899999999999906e-02 2.935000000000000109e-02 1.103510000000000046e-01 3.170900000000000107e-02 9.306999999999999301e-03 -2.321380000000000110e-01 8.894699999999999829e-02 -4.562200000000000283e-02 -8.545000000000000512e-03 1.702680000000000027e-01 2.980000000000000010e-03 3.036600000000000063e-02 6.396899999999999809e-02 -1.022320000000000034e-01 9.549799999999999955e-02 1.271480000000000110e-01 1.084569999999999979e-01 -1.553219999999999879e-01 -3.536399999999999960e-02 -2.728600000000000123e-02 -2.496599999999999861e-02 -1.642800000000000163e-02 -1.090639999999999943e-01 -1.034700000000000029e-02 -5.845000000000000369e-03 7.775999999999999579e-02 9.075400000000000134e-02 2.182100000000000012e-02 -2.333899999999999864e-02 -1.931620000000000004e-01 -1.571529999999999871e-01 7.780499999999999916e-02 -2.870899999999999841e-02 -7.212399999999999367e-02 -1.552000000000000046e-01 -1.196139999999999981e-01 -2.341700000000000031e-02 5.550999999999999684e-02 -2.380000000000000117e-04 -9.586899999999999589e-02 2.185439999999999883e-01 4.691800000000000137e-02 4.717199999999999865e-02 -9.235999999999999419e-03 -8.585999999999999882e-03 -1.437699999999999916e-02 -2.410100000000000089e-02 2.664300000000000002e-02 -1.769040000000000057e-01 -7.741999999999999750e-03 8.796099999999999752e-02 3.184200000000000225e-02 5.596700000000000286e-02 5.025999999999999912e-02 9.383800000000000474e-02 -1.078699999999999971e-02 -4.894300000000000039e-02 7.399999999999999623e-05 -1.006380000000000052e-01 2.309100000000000041e-02 -1.035459999999999992e-01 -1.842900000000000094e-02 2.704099999999999906e-02 1.391030000000000044e-01 -5.289200000000000151e-02 4.258800000000000086e-02 1.342649999999999955e-01 -2.029100000000000001e-02 -1.393379999999999896e-01 -7.380799999999999861e-02 7.589999999999999525e-02 5.917599999999999943e-02 6.142399999999999943e-02 -7.045200000000000073e-02 -7.784099999999999353e-02 2.139439999999999953e-01 7.971899999999999820e-02 2.064200000000000063e-02 2.949099999999999985e-02 1.245600000000000041e-01 7.793400000000000327e-02 5.165899999999999659e-02 -2.612899999999999945e-02 -1.281039999999999957e-01 -1.303149999999999864e-01 3.278799999999999770e-02 -6.320499999999999730e-02 5.036399999999999905e-02 1.206229999999999941e-01 -7.105200000000000404e-02 -1.316100000000000048e-01 1.114160000000000011e-01 4.883000000000000188e-03 5.528399999999999981e-02 4.533199999999999730e-02 -2.187599999999999961e-02 7.352599999999999414e-02 1.640540000000000054e-01 1.469699999999999999e-02 9.125500000000000278e-02 -7.475800000000000500e-02 5.180099999999999982e-02 -1.706699999999999884e-01 2.733900000000000219e-01 2.035829999999999862e-01 -4.899599999999999789e-02 5.134899999999999881e-02 1.423049999999999871e-01 -7.252899999999999625e-02 -2.413990000000000025e-01 -7.248400000000000676e-02 2.767850000000000033e-01 2.231460000000000110e-01 -5.532999999999999724e-03 -4.984700000000000242e-02 2.472270000000000023e-01 1.460019999999999929e-01 3.027999999999999876e-03 1.379410000000000081e-01 -1.310369999999999868e-01 -2.515580000000000038e-01 6.855100000000000082e-02 3.857000000000000012e-02 -7.340900000000000203e-02 -9.407999999999999696e-03 -3.354599999999999943e-02 -3.298899999999999749e-02 -3.521540000000000226e-01 1.677579999999999905e-01 -2.017259999999999887e-01 -1.138770000000000060e-01 -5.006700000000000039e-02 5.727200000000000346e-02 8.922299999999999676e-02 -8.816400000000000625e-02 -8.988200000000000356e-02 -2.516410000000000036e-01 3.300489999999999813e-01 7.564999999999999676e-03 -1.261329999999999951e-01 6.970500000000000307e-02 7.171900000000000497e-02 -3.101900000000000143e-02 2.755049999999999999e-01 1.751780000000000004e-01 -1.825589999999999991e-01 -4.483050000000000090e-01 8.267299999999999649e-02 -1.773879999999999901e-01 -8.195299999999999807e-02 -1.211020000000000013e-01 -2.369870000000000032e-01 -1.029380000000000017e-01 7.930199999999999749e-02 1.858200000000000129e-01 3.570650000000000213e-01 -1.086560000000000026e-01 -1.801790000000000058e-01 -2.813579999999999970e-01 -2.121899999999999828e-02 1.117439999999999961e-01
4.174499999999999739e-02 -6.066200000000000064e-02 3.715100000000000346e-02 1.310169999999999946e-01 3.926299999999999929e-02 1.330899999999999965e-02 -2.747350000000000070e-01 1.050880000000000009e-01 -5.383600000000000191e-02 -1.024800000000000016e-02 2.036229999999999984e-01 5.244999999999999662e-03 3.654700000000000309e-02 7.631899999999999795e-02 -1.194859999999999950e-01 1.118510000000000060e-01 1.510839999999999961e-01 1.294230000000000103e-01 -1.842810000000000004e-01 -4.136900000000000299e-02 -3.253700000000000342e-02 -2.956500000000000100e-02 -1.930400000000000171e-02 -1.270499999999999963e-01 -1.189899999999999985e-02 -7.084000000000000019e-03 9.318600000000000494e-02 1.062280000000000030e-01 3.470299999999999774e-02 -2.597700000000000009e-02 -2.280709999999999960e-01 -1.798649999999999971e-01 9.226600000000000079e-02 -3.438499999999999890e-02 -7.706300000000000650e-02 -1.829459999999999975e-01 -1.414080000000000059e-01 -1.879799999999999874e-02 6.737600000000000533e-02 -9.030000000000000483e-04 -1.060880000000000017e-01 2.580020000000000091e-01 5.548600000000000060e-02 6.526500000000000357e-02 -1.098700000000000024e-02 -9.147000000000000616e-03 -8.300999999999999351e-03 -2.789000000000000160e-02 3.154900000000000065e-02 -2.001070000000000071e-01 -8.302999999999999617e-03 1.044520000000000032e-01 4.696299999999999780e-02 6.653399999999999592e-02 5.906399999999999845e-02 1.013199999999999934e-01 -1.420899999999999941e-02 -5.779600000000000015e-02 -7.788999999999999917e-03 -1.192219999999999946e-01 2.775999999999999995e-02 -1.323040000000000049e-01 -2.315800000000000150e-02 3.318800000000000222e-02 1.568589999999999984e-01 -6.477900000000000325e-02 5.052700000000000247e-02 1.499020000000000075e-01 -2.596700000000000050e-02 -1.662230000000000096e-01 -9.833200000000000274e-02 8.933399999999999674e-02 7.051200000000000523e-02 6.226799999999999696e-02 -8.596399999999999875e-02 -9.333900000000000530e-02 2.456119999999999970e-01 9.400699999999999334e-02 2.476899999999999935e-02 2.710100000000000009e-02 1.454809999999999992e-01 9.294199999999999684e-02 6.207000000000000017e-02 -3.323799999999999671e-02 -1.518839999999999912e-01 -1.548160000000000092e-01 3.821900000000000297e-02 -7.547900000000000442e-02 5.956899999999999695e-02 1.406060000000000088e-01 -8.463199999999999890e-02 -1.561649999999999983e-01 1.297629999999999895e-01 5.762999999999999894e-03 6.501500000000000334e-02 5.205300000000000205e-02 -2.560700000000000129e-02 8.802400000000000502e-02 1.934950000000000003e-01 1.656900000000000039e-02 1.073810000000000042e-01 -9.122199999999999753e-02 6.253699999999999537e-02 -2.038349999999999884e-01 3.241859999999999742e-01 2.416939999999999922e-01 -5.963899999999999757e-02 6.049800000000000316e-02 1.671729999999999883e-01 -8.854900000000000271e-02 -2.833479999999999888e-01 -8.533300000000000607e-02 3.246519999999999961e-01 2.628159999999999941e-01 -6.555000000000000063e-03 -6.217400000000000010e-02 2.911900000000000044e-01 1.730269999999999864e-01 7.460000000000000268e-04 1.641970000000000096e-01 -1.546879999999999922e-01 -3.002179999999999849e-01 8.128299999999999415e-02 4.586400000000000199e-02 -8.926699999999999913e-02 -1.093700000000000054e-02 -3.743200000000000000e-02 -4.062700000000000339e-02 -4.148850000000000038e-01 1.982949999999999990e-01 -2.412380000000000080e-01 -1.346360000000000057e-01 -5.948699999999999821e-02 6.536200000000000343e-02 1.054760000000000003e-01 -1.043049999999999949e-01 -1.041350000000000053e-01 -2.958740000000000259e-01 3.903349999999999875e-01 1.158499999999999981e-02 -1.483460000000000056e-01 8.286899999999999822e-02 8.713500000000000412e-02 -3.665600000000000108e-02 3.261140000000000150e-01 2.096899999999999875e-01 -2.154540000000000066e-01 -5.317899999999999849e-01 1.012279999999999985e-01 -2.100150000000000072e-01 -9.733300000000000285e-02 -1.397500000000000131e-01 -2.800839999999999996e-01 -1.208719999999999933e-01 9.590300000000000213e-02 2.192089999999999872e-01 4.229970000000000119e-01 -1.247790000000000010e-01 -2.124550000000000050e-01 -3.334810000000000274e-01 -2.214700000000000002e-02 1.325580000000000092e-01