 vasp.6.1.1 19Jun20 (build Dec 21 2021 08:45:49) complex                        
  
 executed on             LinuxIFC date 2023.10.04  09:18:34
 running on   40 total cores
 distrk:  each k-point on   40 cores,    1 groups
 distr:  one band on NCORE=   1 cores,   40 groups


--------------------------------------------------------------------------------------------------------


 INCAR:
 POTCAR:   PAW_PBE Te 08Apr2002                   
 POTCAR:   PAW_PBE Mo 08Apr2002                   
 -----------------------------------------------------------------------------
|                                                                             |
|           W    W    AA    RRRRR   N    N  II  N    N   GGGG   !!!           |
|           W    W   A  A   R    R  NN   N  II  NN   N  G    G  !!!           |
|           W    W  A    A  R    R  N N  N  II  N N  N  G       !!!           |
|           W WW W  AAAAAA  RRRRR   N  N N  II  N  N N  G  GGG   !            |
|           WW  WW  A    A  R   R   N   NN  II  N   NN  G    G                |
|           W    W  A    A  R    R  N    N  II  N    N   GGGG   !!!           |
|                                                                             |
|     For optimal performance we recommend to set                             |
|       NCORE = 4 - approx SQRT(number of cores).                             |
|     NCORE specifies how many cores store one orbital (NPAR=cpu/NCORE).      |
|     This setting can greatly improve the performance of VASP for DFT.       |
|     The default, NCORE=1 might be grossly inefficient on modern             |
|     multi-core architectures or massively parallel machines. Do your        |
|     own testing!!!!                                                         |
|     Unfortunately you need to use the default for GW and RPA                |
|     calculations (for HF NCORE is supported but not extensively tested      |
|     yet).                                                                   |
|                                                                             |
 -----------------------------------------------------------------------------

 POTCAR:   PAW_PBE Te 08Apr2002                   
   VRHFIN =Te: s2p4                                                                                 
   LEXCH  = PE                                                                                      
   EATOM  =   223.2721 eV,   16.4100 Ry                                                             
                                                                                                    
   TITEL  = PAW_PBE Te 08Apr2002                                                                    
   LULTRA =        F    use ultrasoft PP ?                                                          
   IUNSCR =        1    unscreen: 0-lin 1-nonlin 2-no                                               
   RPACOR =    2.200    partial core radius                                                         
   POMASS =  127.600; ZVAL   =    6.000    mass and valenz                                          
   RCORE  =    2.300    outmost cutoff radius                                                       
   RWIGS  =    2.900; RWIGS  =    1.535    wigner-seitz radius (au A)                               
   ENMAX  =  174.982; ENMIN  =  131.236 eV                                                          
   ICORE  =        3    local potential                                                             
   LCOR   =        T    correct aug charges                                                         
   LPAW   =        T    paw PP                                                                      
   EAUG   =  368.792                                                                                
   DEXC   =    -.169                                                                                
   RMAX   =    3.486    core radius for proj-oper                                                   
   RAUG   =    1.300    factor for augmentation sphere                                              
   RDEP   =    2.397    radius for radial grids                                                     
   QCUT   =   -3.586; QGAM   =    7.172    optimization parameters                                  
                                                                                                    
   Description                                                                                      
     l     E      TYP  RCUT    TYP  RCUT                                                            
     0   .000     23  2.300                                                                         
     0   .000     23  2.300                                                                         
     1   .000     23  2.300                                                                         
     1   .000     23  2.300                                                                         
     2   .000     23  2.300                                                                         
     3  -.100     23  2.300                                                                         
  local pseudopotential read in
  partial core-charges read in
  atomic valenz-charges read in
  non local Contribution for L=           0  read in
    real space projection operators read in
  non local Contribution for L=           0  read in
    real space projection operators read in
  non local Contribution for L=           1  read in
    real space projection operators read in
  non local Contribution for L=           1  read in
    real space projection operators read in
  non local Contribution for L=           2  read in
    real space projection operators read in
    PAW grid and wavefunctions read in
 
   number of l-projection  operators is LMAX  =           5
   number of lm-projection operators is LMMAX =          13
 
 POTCAR:   PAW_PBE Mo 08Apr2002                   
   VRHFIN =Mo: 4p5s4d                                                                               
   LEXCH  = PE                                                                                      
   EATOM  =   217.5180 eV,   15.9871 Ry                                                             
                                                                                                    
   TITEL  = PAW_PBE Mo 08Apr2002                                                                    
   LULTRA =        F    use ultrasoft PP ?                                                          
   IUNSCR =        1    unscreen: 0-lin 1-nonlin 2-no                                               
   RPACOR =    2.200    partial core radius                                                         
   POMASS =   95.940; ZVAL   =    6.000    mass and valenz                                          
   RCORE  =    2.750    outmost cutoff radius                                                       
   RWIGS  =    2.750; RWIGS  =    1.455    wigner-seitz radius (au A)                               
   ENMAX  =  224.584; ENMIN  =  168.438 eV                                                          
   RCLOC  =    2.111    cutoff for local pot                                                        
   LCOR   =        T    correct aug charges                                                         
   LPAW   =        T    paw PP                                                                      
   EAUG   =  345.278                                                                                
   DEXC   =    -.088                                                                                
   RMAX   =    3.077    core radius for proj-oper                                                   
   RAUG   =    1.300    factor for augmentation sphere                                              
   RDEP   =    2.815    radius for radial grids                                                     
   QCUT   =   -4.063; QGAM   =    8.126    optimization parameters                                  
                                                                                                    
   Description                                                                                      
     l     E      TYP  RCUT    TYP  RCUT                                                            
     2   .000     23  2.500                                                                         
     2   .000     23  2.500                                                                         
     0   .000     23  2.600                                                                         
     0  1.000     23  2.600                                                                         
     1   .400     23  2.750                                                                         
     1  2.000     23  2.750                                                                         
     3   .000      7   .000                                                                         
  local pseudopotential read in
  partial core-charges read in
  atomic valenz-charges read in
  non local Contribution for L=           2  read in
    real space projection operators read in
  non local Contribution for L=           2  read in
    real space projection operators read in
  non local Contribution for L=           0  read in
    real space projection operators read in
  non local Contribution for L=           0  read in
    real space projection operators read in
  non local Contribution for L=           1  read in
    real space projection operators read in
  non local Contribution for L=           1  read in
    real space projection operators read in
    PAW grid and wavefunctions read in
 
   number of l-projection  operators is LMAX  =           6
   number of lm-projection operators is LMMAX =          18
 
 -----------------------------------------------------------------------------
|                                                                             |
|               ----> ADVICE to this user running VASP <----                  |
|                                                                             |
|     You have a (more or less) 'large supercell' and for larger cells it     |
|     might be more efficient to use real-space projection operators.         |
|     Therefore, try LREAL= Auto in the INCAR file.                           |
|     Mind: If you want to do very accurate calculations, keep the            |
|     reciprocal projection scheme (i.e. LREAL=.FALSE.).                      |
|                                                                             |
 -----------------------------------------------------------------------------

 PAW_PBE Te 08Apr2002                   :
 energy of atom  1       EATOM= -223.2721
 kinetic energy error for atom=    0.0006 (will be added to EATOM!!)
 PAW_PBE Mo 08Apr2002                   :
 energy of atom  2       EATOM= -217.5180
 kinetic energy error for atom=    0.0009 (will be added to EATOM!!)
 
 
 POSCAR: Te Mo
  positions in cartesian coordinates
  No initial velocities read in
 exchange correlation table for  LEXCH =        8
   RHO(1)=    0.500       N(1)  =     2000
   RHO(2)=  100.500       N(2)  =     4000
 


--------------------------------------------------------------------------------------------------------


 ion  position               nearest neighbor table
   1  0.222  0.111  0.683-  41 2.63  40 2.69  37 2.69   2 3.41   3 3.42   7 3.47   4 3.48   9 3.51
                             5 3.52  19 3.53
   2  0.222  0.444  0.683-  42 2.63  41 2.69  38 2.69   1 3.41   3 3.41   8 3.47   5 3.48   7 3.51
                             6 3.52  20 3.54
   3  0.223  0.778  0.683-  40 2.63  42 2.69  39 2.69   2 3.41   1 3.42   6 3.47   9 3.48   8 3.51
                             4 3.51  21 3.53
   4  0.556  0.111  0.683-  44 2.63  43 2.69  40 2.70   6 3.41   5 3.41   1 3.48   7 3.48   3 3.51
                             8 3.52  22 3.53
   5  0.556  0.445  0.683-  45 2.63  44 2.69  41 2.70   4 3.41   6 3.42   8 3.47   2 3.48   9 3.51
                             1 3.52  23 3.54
   6  0.555  0.778  0.683-  43 2.63  42 2.69  45 2.69   4 3.41   5 3.42   3 3.47   9 3.47   2 3.52
                             7 3.52  24 3.54
   7  0.890  0.111  0.683-  38 2.63  37 2.69  43 2.70   9 3.41   8 3.42   1 3.47   4 3.48   2 3.51
                             6 3.52  25 3.53
   8  0.889  0.445  0.683-  39 2.64  38 2.70  44 2.70   9 3.42   7 3.42   5 3.47   2 3.47   3 3.51
                             4 3.52  26 3.55
   9  0.889  0.778  0.683-  37 2.63  39 2.69  45 2.70   7 3.41   8 3.42   6 3.47   3 3.48   5 3.51
                             1 3.51  27 3.54
  10  0.111  1.000  0.438-  46 2.63  48 2.69  54 2.70  11 3.41  12 3.42  16 3.47  13 3.48  18 3.51
                            14 3.52  28 3.54
  11  0.112  0.333  0.438-  47 2.63  46 2.68  52 2.70  10 3.41  12 3.42  14 3.47  17 3.48  15 3.51
                            16 3.52  29 3.53
  12  0.111  0.667  0.438-  48 2.63  47 2.69  53 2.69  10 3.42  11 3.42  18 3.47  15 3.48  17 3.52
                            13 3.52  30 3.54
  13  0.445  0.000  0.438-  49 2.62  51 2.68  48 2.70  15 3.42  14 3.42  16 3.47  10 3.48  17 3.51
                            12 3.52  31 3.53
  14  0.445  0.333  0.438-  50 2.62  49 2.69  46 2.70  15 3.41  13 3.42  17 3.47  11 3.47  18 3.52
                            10 3.52  32 3.54
  15  0.445  0.666  0.438-  51 2.64  50 2.68  47 2.70  14 3.41  13 3.42  18 3.48  12 3.48  11 3.51
                            16 3.52  33 3.54
  16  0.778  1.000  0.438-  52 2.63  54 2.69  51 2.69  17 3.41  18 3.42  13 3.47  10 3.47  11 3.52
                            15 3.52  34 3.53
  17  0.778  0.333  0.438-  53 2.62  52 2.69  49 2.69  18 3.41  16 3.41  14 3.47  11 3.48  13 3.51
                            12 3.52  35 3.54
  18  0.778  0.667  0.438-  54 2.63  53 2.69  50 2.70  17 3.41  16 3.42  12 3.47  15 3.48  10 3.51
                            14 3.52  36 3.54
  19  0.222  0.111  0.562-  40 2.61  37 2.69  41 2.70  20 3.41  21 3.42  25 3.47  22 3.47  23 3.51
                            27 3.51   1 3.53
  20  0.222  0.444  0.562-  41 2.62  38 2.69  42 2.70  19 3.41  21 3.42  26 3.47  23 3.48  25 3.51
                            24 3.52   2 3.54
  21  0.222  0.778  0.562-  42 2.62  39 2.69  40 2.71  19 3.42  20 3.42  27 3.47  24 3.47  22 3.51
                            26 3.52   3 3.53
  22  0.555  0.111  0.562-  43 2.60  40 2.68  44 2.70  24 3.41  23 3.42  19 3.47  25 3.48  21 3.51
                            26 3.52   4 3.53
  23  0.555  0.444  0.562-  44 2.61  41 2.69  45 2.70  24 3.41  22 3.42  26 3.48  20 3.48  19 3.51
                            27 3.52   5 3.54
  24  0.555  0.778  0.562-  45 2.61  42 2.70  43 2.71  22 3.41  23 3.41  21 3.47  27 3.48  20 3.52
                            25 3.52   6 3.54
  25  0.889  0.112  0.562-  37 2.61  43 2.69  38 2.70  26 3.41  27 3.42  19 3.47  22 3.48  20 3.51
                            24 3.52   7 3.53
  26  0.889  0.444  0.562-  38 2.62  44 2.69  39 2.71  27 3.41  25 3.41  20 3.47  23 3.48  21 3.52
                            22 3.52   8 3.55
  27  0.890  0.778  0.562-  39 2.60  45 2.70  37 2.71  26 3.41  25 3.42  21 3.47  24 3.48  19 3.51
                            23 3.52   9 3.54
  28  0.111  1.000  0.317-  48 2.61  54 2.70  46 2.71  30 3.42  29 3.42  34 3.47  31 3.48  36 3.51
                            32 3.52  10 3.54
  29  0.111  0.333  0.317-  46 2.61  52 2.69  47 2.71  30 3.41  28 3.42  35 3.47  32 3.49  34 3.50
                            33 3.51  11 3.53
  30  0.111  0.666  0.317-  47 2.62  53 2.70  48 2.71  29 3.41  28 3.42  36 3.47  33 3.48  35 3.51
                            31 3.53  12 3.54
  31  0.445  0.001  0.317-  51 2.61  48 2.69  49 2.70  32 3.41  33 3.43  28 3.48  34 3.48  35 3.51
                            30 3.53  13 3.53
  32  0.445  0.333  0.317-  49 2.61  46 2.71  50 2.71  31 3.41  33 3.41  35 3.47  29 3.49  36 3.52
                            28 3.52  14 3.54
  33  0.444  0.666  0.317-  50 2.61  47 2.69  51 2.71  32 3.41  31 3.43  36 3.47  30 3.48  29 3.51
                            34 3.53  15 3.54
  34  0.778  0.001  0.317-  54 2.61  51 2.70  52 2.70  35 3.41  36 3.41  28 3.47  31 3.48  29 3.50
                            33 3.53  16 3.53
  35  0.778  0.333  0.317-  52 2.61  49 2.70  53 2.71  34 3.41  36 3.42  29 3.47  32 3.47  30 3.51
                            31 3.51  17 3.54
  36  0.778  0.667  0.317-  53 2.62  54 2.70  50 2.70  34 3.41  35 3.42  30 3.47  33 3.47  28 3.51
                            32 3.52  18 3.54
  37  1.000  1.000  0.622-  25 2.61   9 2.63   7 2.69  19 2.69   1 2.69  27 2.71  39 3.41  38 3.41
                            40 3.47  43 3.48
  38  0.000  0.333  0.622-  26 2.62   7 2.63   2 2.69  20 2.69  25 2.70   8 2.70  37 3.41  39 3.43
                            41 3.47  44 3.48
  39  0.000  0.668  0.622-  27 2.60   8 2.64   9 2.69   3 2.69  21 2.69  26 2.71  37 3.41  38 3.43
                            45 3.47  42 3.48
  40  0.333  0.000  0.622-  19 2.61   3 2.63  22 2.68   1 2.69   4 2.70  21 2.71  41 3.41  42 3.43
                            43 3.47  37 3.47
  41  0.333  0.333  0.622-  20 2.62   1 2.63   2 2.69  23 2.69  19 2.70   5 2.70  42 3.41  40 3.41
                            38 3.47  44 3.48
  42  0.333  0.666  0.622-  21 2.62   2 2.63   3 2.69   6 2.69  24 2.70  20 2.70  41 3.41  40 3.43
                            45 3.47  39 3.48
  43  0.667  0.000  0.622-  22 2.60   6 2.63   4 2.69  25 2.69   7 2.70  24 2.71  44 3.41  45 3.43
                            40 3.47  37 3.48
  44  0.667  0.334  0.622-  23 2.61   4 2.63  26 2.69   5 2.69   8 2.70  22 2.70  45 3.41  43 3.41
                            38 3.48  41 3.48
  45  0.666  0.666  0.622-  24 2.61   5 2.63   6 2.69  23 2.70   9 2.70  27 2.70  44 3.41  43 3.43
                            42 3.47  39 3.47
  46  0.222  0.222  0.378-  29 2.61  10 2.63  11 2.68  14 2.70  28 2.71  32 2.71  47 3.41  48 3.42
                            52 3.47  49 3.48
  47  0.222  0.556  0.378-  30 2.62  11 2.63  33 2.69  12 2.69  15 2.70  29 2.71  46 3.41  48 3.42
                            50 3.47  53 3.47
  48  0.222  0.889  0.378-  28 2.61  12 2.63  10 2.69  31 2.69  13 2.70  30 2.71  47 3.42  46 3.42
                            51 3.48  54 3.48
  49  0.555  0.221  0.378-  32 2.61  13 2.62  14 2.69  17 2.69  31 2.70  35 2.70  51 3.41  50 3.42
                            52 3.47  46 3.48
  50  0.555  0.555  0.378-  33 2.61  14 2.62  15 2.68  18 2.70  36 2.70  32 2.71  49 3.42  51 3.42
                            47 3.47  53 3.48
  51  0.556  0.889  0.378-  31 2.61  15 2.64  13 2.68  16 2.69  34 2.70  33 2.71  49 3.41  50 3.42
                            54 3.47  48 3.48
  52  0.889  0.222  0.378-  35 2.61  16 2.63  29 2.69  17 2.69  11 2.70  34 2.70  53 3.41  54 3.42
                            46 3.47  49 3.47
  53  0.889  0.555  0.378-  36 2.62  17 2.62  18 2.69  12 2.69  30 2.70  35 2.71  52 3.41  54 3.42
                            47 3.47  50 3.48
  54  0.888  0.888  0.378-  34 2.61  18 2.63  16 2.69  36 2.70  28 2.70  10 2.70  52 3.42  53 3.42
                            51 3.47  48 3.48
 

IMPORTANT INFORMATION: All symmetrisations will be switched off!
NOSYMM: (Re-)initialisation of all symmetry stuff for point group C_1.


----------------------------------------------------------------------------------------

                                     Primitive cell                                     

  volume of cell :    2741.1936

  direct lattice vectors                    reciprocal lattice vectors
    10.424881809  0.000000000  0.000000000     0.095924349  0.052422650  0.000046988
    -4.913886366  8.991558925  0.000000000     0.000000000  0.111215420 -0.003294960
    -0.487812870  0.866400654 29.243784497     0.000000000  0.000000000  0.034195301

  length of vectors
    10.424881809 10.246678053 29.260682549     0.109314305  0.111264219  0.034195301

  position of ions in fractional coordinates (direct lattice)
     0.222250539  0.111220331  0.682759487
     0.221877047  0.443994112  0.682793240
     0.222549796  0.777514116  0.682673221
     0.555573440  0.111067907  0.682796749
     0.556295275  0.444664842  0.682962090
     0.555428445  0.777963688  0.682720899
     0.889691726  0.111165287  0.682821243
     0.889220602  0.445137791  0.682996375
     0.888672990  0.778246914  0.682893012
     0.110996633  0.999929336  0.438214731
     0.111545616  0.333124895  0.438023746
     0.111029478  0.666644720  0.438146266
     0.445252841  0.000032056  0.437947944
     0.444813643  0.333383539  0.438160262
     0.444619753  0.666120194  0.438161472
     0.777755084  0.999991648  0.438102555
     0.777775371  0.333236151  0.438079246
     0.778251034  0.666570922  0.438157315
     0.222298571  0.111412027  0.562024523
     0.221720781  0.444328952  0.561882066
     0.222300808  0.778042138  0.561862536
     0.555133804  0.110643294  0.562171664
     0.555302118  0.444396813  0.561956935
     0.555445964  0.777708140  0.561907215
     0.889437588  0.111824791  0.562079742
     0.888708133  0.444484562  0.561843793
     0.889627146  0.777780506  0.561810914
     0.111179451  0.999936808  0.317239983
     0.110537196  0.333299524  0.317234365
     0.110682867  0.666327462  0.317026818
     0.444888558  0.000666562  0.317378393
     0.445414558  0.333403941  0.317163339
     0.444223345  0.665882957  0.317351128
     0.778479872  0.000694706  0.317294444
     0.778058926  0.333231192  0.317087174
     0.778188362  0.667289435  0.317261869
     0.999968819  0.999944544  0.622366001
     0.000110921  0.332978207  0.622376368
     0.000202334  0.667709143  0.622301889
     0.333289623  0.000207089  0.622221882
     0.333303724  0.333325490  0.622346177
     0.333194363  0.665886431  0.622391394
     0.666585295  0.000409588  0.622230967
     0.666880659  0.333504695  0.622252401
     0.666166909  0.665793462  0.622278677
     0.221529483  0.222176224  0.377581187
     0.222280307  0.555608565  0.377656941
     0.222092471  0.888898784  0.377599756
     0.555309811  0.221488175  0.377811455
     0.555194987  0.555052822  0.377873938
     0.555546172  0.888883064  0.377649049
     0.888990426  0.222477102  0.377590534
     0.888756515  0.554862816  0.377742858
     0.887836846  0.888386737  0.377647493

  ion indices of the primitive-cell ions
   primitive index   ion index
                 1           1
                 2           2
                 3           3
                 4           4
                 5           5
                 6           6
                 7           7
                 8           8
                 9           9
                10          10
                11          11
                12          12
                13          13
                14          14
                15          15
                16          16
                17          17
                18          18
                19          19
                20          20
                21          21
                22          22
                23          23
                24          24
                25          25
                26          26
                27          27
                28          28
                29          29
                30          30
                31          31
                32          32
                33          33
                34          34
                35          35
                36          36
                37          37
                38          38
                39          39
                40          40
                41          41
                42          42
                43          43
                44          44
                45          45
                46          46
                47          47
                48          48
                49          49
                50          50
                51          51
                52          52
                53          53
                54          54

----------------------------------------------------------------------------------------

 
 

Automatic generation of k-mesh.
 generate k-points for:    3    3    1
Space group operators:
 irot       det(A)        alpha          n_x          n_y          n_z        tau_x        tau_y        tau_z
    1     1.000000     0.000000     1.000000     0.000000     0.000000     0.000000     0.000000     0.000000
 
 Subroutine IBZKPT returns following result:
 ===========================================
 
 Found      5 irreducible k-points:
 
 Following reciprocal coordinates:
            Coordinates               Weight
  0.000000  0.000000  0.000000      1.000000
  0.333333 -0.000000 -0.000000      2.000000
  0.000000  0.333333 -0.000000      2.000000
  0.333333  0.333333 -0.000000      2.000000
 -0.333333  0.333333 -0.000000      2.000000
 
 Following cartesian coordinates:
            Coordinates               Weight
  0.000000  0.000000  0.000000      1.000000
  0.031975  0.017474  0.000016      2.000000
  0.000000  0.037072 -0.001098      2.000000
  0.031975  0.054546 -0.001083      2.000000
 -0.031975  0.019598 -0.001114      2.000000
 


--------------------------------------------------------------------------------------------------------




 Dimension of arrays:
   k-points           NKPTS =      5   k-points in BZ     NKDIM =      5   number of bands    NBANDS=    200
   number of dos      NEDOS =    301   number of ions     NIONS =     54
   non local maximal  LDIM  =      6   non local SUM 2l+1 LMDIM =     18
   total plane-waves  NPLWV = ******
   max r-space proj   IRMAX =      1   max aug-charges    IRDMAX=  33773
   dimension x,y,z NGX =    80 NGY =   80 NGZ =  224
   dimension x,y,z NGXF=   160 NGYF=  160 NGZF=  448
   support grid    NGXF=   160 NGYF=  160 NGZF=  448
   ions per type =              36  18
   NGX,Y,Z   is equivalent  to a cutoff of  12.76, 12.98, 12.73 a.u.
   NGXF,Y,Z  is equivalent  to a cutoff of  25.52, 25.96, 25.45 a.u.

 SYSTEM =  dpgen_md                                
 POSCAR =  Te Mo                                   

 Startparameter for this run:
   NWRITE =      2    write-flag & timer
   PREC   = a         normal or accurate (medium, high low for compatibility)
   ISTART =      0    job   : 0-new  1-cont  2-samecut
   ICHARG =      2    charge: 1-file 2-atom 10-const
   ISPIN  =      1    spin polarized calculation?
   LNONCOLLINEAR =      F non collinear calculations
   LSORBIT =      F    spin-orbit coupling
   INIWAV =      1    electr: 0-lowe 1-rand  2-diag
   LASPH  =      F    aspherical Exc in radial PAW
   METAGGA=      F    non-selfconsistent MetaGGA calc.

 Electronic Relaxation 1
   ENCUT  =  550.0 eV  40.42 Ry    6.36 a.u.  19.93 19.59 55.95*2*pi/ulx,y,z
   ENINI  =  550.0     initial cutoff
   ENAUG  =  368.8 eV  augmentation charge cutoff
   NELM   =    100;   NELMIN=  6; NELMDL= -5     # of ELM steps 
   EDIFF  = 0.1E-05   stopping-criterion for ELM
   LREAL  =      F    real-space projection
   NLSPLINE    = F    spline interpolate recip. space projectors
   LCOMPAT=      F    compatible to vasp.4.4
   GGA_COMPAT  = T    GGA compatible to vasp.4.4-vasp.4.6
   LMAXPAW     = -100 max onsite density
   LMAXMIX     =    2 max onsite mixed and CHGCAR
   VOSKOWN=      0    Vosko Wilk Nusair interpolation
   ROPT   =    0.00000   0.00000
 Ionic relaxation
   EDIFFG = 0.1E-04   stopping-criterion for IOM
   NSW    =     10    number of steps for IOM
   NBLOCK =      1;   KBLOCK =      1    inner block; outer block 
   IBRION =      0    ionic relax: 0-MD 1-quasi-New 2-CG
   NFREE  =      0    steps in history (QN), initial steepest desc. (CG)
   ISIF   =      2    stress and relaxation
   IWAVPR =     11    prediction:  0-non 1-charg 2-wave 3-comb
   ISYM   =      0    0-nonsym 1-usesym 2-fastsym
   LCORR  =      T    Harris-Foulkes like correction to forces

   POTIM  = 2.0000    time-step for ionic-motion
   TEIN   =  100.0    initial temperature
   TEBEG  =  100.0;   TEEND  = 100.0 temperature during run
   SMASS  =   0.04    Nose mass-parameter (am)
   estimated Nose-frequenzy (Omega)   =  0.79E+14 period in steps = 0.40E+02 mass=   0.327E-28a.u.
   SCALEE = 1.0000    scale energy and forces
   NPACO  =    256;   APACO  = 16.0  distance and # of slots for P.C.
   PSTRESS=    0.0 pullay stress

  Mass of Ions in am
   POMASS = 127.60 95.94
  Ionic Valenz
   ZVAL   =   6.00  6.00
  Atomic Wigner-Seitz radii
   RWIGS  =  -1.00 -1.00
  virtual crystal weights 
   VCA    =   1.00  1.00
   NELECT =     324.0000    total number of electrons
   NUPDOWN=      -1.0000    fix difference up-down

 DOS related values:
   EMIN   =  10.00;   EMAX   =-10.00  energy-range for DOS
   EFERMI =   0.00
   ISMEAR =     0;   SIGMA  =   0.10  broadening in eV -4-tet -1-fermi 0-gaus

 Electronic relaxation 2 (details)
   IALGO  =     68    algorithm
   LDIAG  =      T    sub-space diagonalisation (order eigenvalues)
   LSUBROT=      F    optimize rotation matrix (better conditioning)
   TURBO    =      0    0=normal 1=particle mesh
   IRESTART =      0    0=no restart 2=restart with 2 vectors
   NREBOOT  =      0    no. of reboots
   NMIN     =      0    reboot dimension
   EREF     =   0.00    reference energy to select bands
   IMIX   =      4    mixing-type and parameters
     AMIX     =   0.40;   BMIX     =  1.00
     AMIX_MAG =   1.60;   BMIX_MAG =  1.00
     AMIN     =   0.10
     WC   =   100.;   INIMIX=   1;  MIXPRE=   1;  MAXMIX= -45

 Intra band minimization:
   WEIMIN = 0.0010     energy-eigenvalue tresh-hold
   EBREAK =  0.13E-08  absolut break condition
   DEPER  =   0.30     relativ break condition  

   TIME   =   0.40     timestep for ELM

  volume/ion in A,a.u.               =      50.76       342.56
  Fermi-wavevector in a.u.,A,eV,Ry     =   0.803421  1.518246  8.782364  0.645486
  Thomas-Fermi vector in A             =   1.911285
 
 Write flags
   LWAVE        =      F    write WAVECAR
   LDOWNSAMPLE  =      F    k-point downsampling of WAVECAR
   LCHARG       =      F    write CHGCAR
   LVTOT        =      F    write LOCPOT, total local potential
   LVHAR        =      F    write LOCPOT, Hartree potential only
   LELF         =      F    write electronic localiz. function (ELF)
   LORBIT       =      0    0 simple, 1 ext, 2 COOP (PROOUT), +10 PAW based schemes


 Dipole corrections
   LMONO  =      F    monopole corrections only (constant potential shift)
   LDIPOL =      F    correct potential (dipole corrections)
   IDIPOL =      0    1-x, 2-y, 3-z, 4-all directions 
   EPSILON=  1.0000000 bulk dielectric constant

 Exchange correlation treatment:
   GGA     =    --    GGA type
   LEXCH   =     8    internal setting for exchange type
   VOSKOWN=      0    Vosko Wilk Nusair interpolation
   LHFCALC =     F    Hartree Fock is set to
   LHFONE  =     F    Hartree Fock one center treatment
   AEXX    =    0.0000 exact exchange contribution

 Linear response parameters
   LEPSILON=     F    determine dielectric tensor
   LRPA    =     F    only Hartree local field effects (RPA)
   LNABLA  =     F    use nabla operator in PAW spheres
   LVEL    =     F    velocity operator in full k-point grid
   LINTERFAST=   F  fast interpolation
   KINTER  =     0    interpolate to denser k-point grid
   CSHIFT  =0.1000    complex shift for real part using Kramers Kronig
   OMEGAMAX=  -1.0    maximum frequency
   DEG_THRESHOLD= 0.2000000E-02 threshold for treating states as degnerate
   RTIME   =   -0.100 relaxation time in fs
  (WPLASMAI=    0.000 imaginary part of plasma frequency in eV, 0.658/RTIME)
   DFIELD  = 0.0000000 0.0000000 0.0000000 field for delta impulse in time
 
 Orbital magnetization related:
   ORBITALMAG=     F  switch on orbital magnetization
   LCHIMAG   =     F  perturbation theory with respect to B field
   DQ        =  0.001000  dq finite difference perturbation B field
   LLRAUG    =     F  two centre corrections for induced B field



--------------------------------------------------------------------------------------------------------


 molecular dynamics for ions
   using nose mass (canonical ensemble)
 charge density and potential will be updated during run
 non-spin polarized calculation
 RMM-DIIS sequential band-by-band and
  variant of blocked Davidson during initial phase
 perform sub-space diagonalisation
    before iterative eigenvector-optimisation
 modified Broyden-mixing scheme, WC =      100.0
 initial mixing is a Kerker type mixing with AMIX =  0.4000 and BMIX =      1.0000
 Hartree-type preconditioning will be used
 using additional bands           38
 reciprocal scheme for non local part
 use partial core corrections
 calculate Harris-corrections to forces 
   (improved forces if not selfconsistent)
 use gradient corrections 
 use of overlap-Matrix (Vanderbilt PP)
 Gauss-broadening in eV      SIGMA  =   0.10


--------------------------------------------------------------------------------------------------------


  energy-cutoff  :      550.00
  volume of cell :     2741.19
      direct lattice vectors                 reciprocal lattice vectors
    10.424881809  0.000000000  0.000000000     0.095924349  0.052422650  0.000046988
    -4.913886366  8.991558925  0.000000000     0.000000000  0.111215420 -0.003294960
    -0.487812870  0.866400654 29.243784497     0.000000000  0.000000000  0.034195301

  length of vectors
    10.424881809 10.246678053 29.260682549     0.109314305  0.111264219  0.034195301


 
 k-points in units of 2pi/SCALE and weight: read from INCAR                         
   0.00000000  0.00000000  0.00000000       0.111
   0.03197478  0.01747422  0.00001566       0.222
   0.00000000  0.03707181 -0.00109832       0.222
   0.03197478  0.05454602 -0.00108266       0.222
  -0.03197478  0.01959759 -0.00111398       0.222
 
 k-points in reciprocal lattice and weights: read from INCAR                         
   0.00000000  0.00000000  0.00000000       0.111
   0.33333333 -0.00000000 -0.00000000       0.222
   0.00000000  0.33333333 -0.00000000       0.222
   0.33333333  0.33333333 -0.00000000       0.222
  -0.33333333  0.33333333 -0.00000000       0.222
 
 position of ions in fractional coordinates (direct lattice) 
   0.22225054  0.11122033  0.68275949
   0.22187705  0.44399411  0.68279324
   0.22254980  0.77751412  0.68267322
   0.55557344  0.11106791  0.68279675
   0.55629527  0.44466484  0.68296209
   0.55542844  0.77796369  0.68272090
   0.88969173  0.11116529  0.68282124
   0.88922060  0.44513779  0.68299638
   0.88867299  0.77824691  0.68289301
   0.11099663  0.99992934  0.43821473
   0.11154562  0.33312489  0.43802375
   0.11102948  0.66664472  0.43814627
   0.44525284  0.00003206  0.43794794
   0.44481364  0.33338354  0.43816026
   0.44461975  0.66612019  0.43816147
   0.77775508  0.99999165  0.43810255
   0.77777537  0.33323615  0.43807925
   0.77825103  0.66657092  0.43815731
   0.22229857  0.11141203  0.56202452
   0.22172078  0.44432895  0.56188207
   0.22230081  0.77804214  0.56186254
   0.55513380  0.11064329  0.56217166
   0.55530212  0.44439681  0.56195693
   0.55544596  0.77770814  0.56190721
   0.88943759  0.11182479  0.56207974
   0.88870813  0.44448456  0.56184379
   0.88962715  0.77778051  0.56181091
   0.11117945  0.99993681  0.31723998
   0.11053720  0.33329952  0.31723436
   0.11068287  0.66632746  0.31702682
   0.44488856  0.00066656  0.31737839
   0.44541456  0.33340394  0.31716334
   0.44422335  0.66588296  0.31735113
   0.77847987  0.00069471  0.31729444
   0.77805893  0.33323119  0.31708717
   0.77818836  0.66728944  0.31726187
   0.99996882  0.99994454  0.62236600
   0.00011092  0.33297821  0.62237637
   0.00020233  0.66770914  0.62230189
   0.33328962  0.00020709  0.62222188
   0.33330372  0.33332549  0.62234618
   0.33319436  0.66588643  0.62239139
   0.66658530  0.00040959  0.62223097
   0.66688066  0.33350470  0.62225240
   0.66616691  0.66579346  0.62227868
   0.22152948  0.22217622  0.37758119
   0.22228031  0.55560856  0.37765694
   0.22209247  0.88889878  0.37759976
   0.55530981  0.22148817  0.37781146
   0.55519499  0.55505282  0.37787394
   0.55554617  0.88888306  0.37764905
   0.88899043  0.22247710  0.37759053
   0.88875651  0.55486282  0.37774286
   0.88783685  0.88838674  0.37764749
 
 position of ions in cartesian coordinates  (Angst):
   1.43735267  1.59158743 19.96647131
  -0.20176995  4.58377173 19.96745835
  -1.83357747  7.58253251 19.96394857
   4.91293534  1.59024918 19.96756099
   3.28112229  4.58994893 19.97239618
   1.63441069  7.58661618 19.96534285
   8.39558851  1.59114600 19.96827728
   6.74948874  4.59423118 19.97339882
   5.10696999  7.58931194 19.97037609
  -3.97017914  9.37059308 12.81505714
  -0.68776164  3.37481618 12.80947205
  -2.33208060  6.37378549 12.81305498
   4.42791408  0.37972662 12.80725529
   2.78518062  3.37726007 12.81346427
   1.14812863  6.36908236 12.81349967
   2.98044744  9.37105616 12.81177669
   6.25703104  3.37586463 12.81109507
   4.62398250  6.37313150 12.81337810
   1.49580749  1.48870622 16.43572403
  -0.14606235  4.48202495 16.43155805
  -1.77983478  7.48260980 16.43098692
   4.96928115  1.48192160 16.44002699
   3.33111369  4.48269999 16.43374749
   1.69478353  7.47964535 16.43229350
   8.44859768  1.49246546 16.43733886
   6.80645599  4.48339096 16.43043881
   5.17827423  7.48021259 16.42947728
  -3.90929696  9.26584766  9.27729769
  -0.64020979  3.27173437  9.27713340
  -2.27505138  6.26599488  9.27106393
   4.47981396  0.28097028  9.28134534
   2.85036868  3.27261171  9.27505635
   1.20409473  6.26227907  9.28054799
   7.95736663  0.28115060  9.27889033
   6.31903293  3.27099244  9.27282897
   4.67877282  6.27484817  9.27793773
   5.20734474  9.53027860 18.20033721
  -1.93866393  3.53322046 18.20064037
  -3.58250442  6.54290887 18.19846233
   3.16995947  0.54095550 18.19612262
   1.53313988  3.53631692 18.19975750
  -0.10218894  6.52659740 18.20107980
   6.64352798  0.54278415 18.19638831
   5.00980514  3.53784701 18.19701510
   3.36952233  6.52566380 18.19778352
   1.03348099  2.32484720 11.04190286
  -0.59717734  5.32298937 11.04411820
  -2.23685787  8.31973847 11.04244588
   4.51637013  2.31886007 11.04863677
   2.87604385  5.31818038 11.05046401
   1.23941075  8.31963983 11.04388742
   7.99019940  2.32756066 11.04217621
   6.35438097  5.31635836 11.04663072
   4.70594141  8.31517573 11.04384190
 


--------------------------------------------------------------------------------------------------------


 k-point   1 :   0.0000 0.0000 0.0000  plane waves:   80217
 k-point   2 :   0.3333-0.0000-0.0000  plane waves:   80359
 k-point   3 :   0.0000 0.3333-0.0000  plane waves:   80248
 k-point   4 :   0.3333 0.3333-0.0000  plane waves:   80259
 k-point   5 :  -0.3333 0.3333-0.0000  plane waves:   80284

 maximum and minimum number of plane-waves per node :     80359    80217

 maximum number of plane-waves:     80359
 maximum index in each direction: 
   IXMAX=   20   IYMAX=   19   IZMAX=   55
   IXMIN=  -20   IYMIN=  -19   IZMIN=  -55


 serial   3D FFT for wavefunctions
 parallel 3D FFT for charge:
    minimum data exchange during FFTs selected (reduces bandwidth)


 total amount of memory used by VASP MPI-rank0   337442. kBytes
=======================================================================

   base      :      30000. kBytes
   nonl-proj :     185149. kBytes
   fftplans  :      15437. kBytes
   grid      :      73553. kBytes
   one-center:        839. kBytes
   wavefun   :      32464. kBytes
 
     INWAV:  cpu time    0.0000: real time    0.0000
 Broyden mixing: mesh for mixing (old mesh)
   NGX = 39   NGY = 39   NGZ =111
  (NGX  =160   NGY  =160   NGZ  =448)
  gives a total of 168831 points

 initial charge density was supplied:
 charge density of overlapping atoms calculated
 number of electron     324.0000000 magnetization 
 keeping initial charge density in first step


--------------------------------------------------------------------------------------------------------


 Maximum index for augmentation-charges         1141 (set IRDMAX)


--------------------------------------------------------------------------------------------------------


 First call to EWALD:  gamma=   0.127
 Maximum number of real-space cells 4x 4x 2
 Maximum number of reciprocal cells 2x 2x 5

    FEWALD:  cpu time    0.0025: real time    0.0027


--------------------------------------- Iteration      1(   1)  ---------------------------------------


    POTLOK:  cpu time    0.2701: real time    0.2899
    SETDIJ:  cpu time    0.0210: real time    0.0470
     EDDAV:  cpu time   50.9917: real time   51.2056
       DOS:  cpu time    0.0054: real time    0.0208
    --------------------------------------------
      LOOP:  cpu time   51.2882: real time   51.5634

 eigenvalue-minimisations  :  2000
 total energy-change (2. order) : 0.2157753E+04  (-0.1170537E+05)
 number of electron     324.0000000 magnetization 
 augmentation part      324.0000000 magnetization 

 Free energy of the ion-electron system (eV)
  ---------------------------------------------------
  alpha Z        PSCENC =       261.80791396
  Ewald energy   TEWEN  =     60069.94552484
  -Hartree energ DENC   =    -71809.24369295
  -exchange      EXHF   =         0.00000000
  -V(xc)+E(xc)   XCENC  =     -2094.01883277
  PAW double counting   =      7476.04436201    -4809.59211051
  entropy T*S    EENTRO =        -0.10990966
  eigenvalues    EBANDS =      1109.83690297
  atomic energy  EATOM  =     11953.08265402
  Solvation  Ediel_sol  =         0.00000000
  ---------------------------------------------------
  free energy    TOTEN  =      2157.75281193 eV

  energy without entropy =     2157.86272158  energy(sigma->0) =     2157.80776675


--------------------------------------------------------------------------------------------------------




--------------------------------------- Iteration      1(   2)  ---------------------------------------


     EDDAV:  cpu time   71.5267: real time   71.6869
       DOS:  cpu time    0.0006: real time    0.0006
    --------------------------------------------
      LOOP:  cpu time   71.5272: real time   71.6875

 eigenvalue-minimisations  :  2960
 total energy-change (2. order) :-0.2251553E+04  (-0.2171863E+04)
 number of electron     324.0000000 magnetization 
 augmentation part      324.0000000 magnetization 

 Free energy of the ion-electron system (eV)
  ---------------------------------------------------
  alpha Z        PSCENC =       261.80791396
  Ewald energy   TEWEN  =     60069.94552484
  -Hartree energ DENC   =    -71809.24369295
  -exchange      EXHF   =         0.00000000
  -V(xc)+E(xc)   XCENC  =     -2094.01883277
  PAW double counting   =      7476.04436201    -4809.59211051
  entropy T*S    EENTRO =        -0.00185477
  eigenvalues    EBANDS =     -1141.82439171
  atomic energy  EATOM  =     11953.08265402
  Solvation  Ediel_sol  =         0.00000000
  ---------------------------------------------------
  free energy    TOTEN  =       -93.80042787 eV

  energy without entropy =      -93.79857311  energy(sigma->0) =      -93.79950049


--------------------------------------------------------------------------------------------------------




--------------------------------------- Iteration      1(   3)  ---------------------------------------


     EDDAV:  cpu time   64.1383: real time   64.3022
       DOS:  cpu time    0.0004: real time    0.0004
    --------------------------------------------
      LOOP:  cpu time   64.1387: real time   64.3026

 eigenvalue-minimisations  :  2560
 total energy-change (2. order) :-0.2282053E+03  (-0.2247791E+03)
 number of electron     324.0000000 magnetization 
 augmentation part      324.0000000 magnetization 

 Free energy of the ion-electron system (eV)
  ---------------------------------------------------
  alpha Z        PSCENC =       261.80791396
  Ewald energy   TEWEN  =     60069.94552484
  -Hartree energ DENC   =    -71809.24369295
  -exchange      EXHF   =         0.00000000
  -V(xc)+E(xc)   XCENC  =     -2094.01883277
  PAW double counting   =      7476.04436201    -4809.59211051
  entropy T*S    EENTRO =        -0.00000000
  eigenvalues    EBANDS =     -1370.03153449
  atomic energy  EATOM  =     11953.08265402
  Solvation  Ediel_sol  =         0.00000000
  ---------------------------------------------------
  free energy    TOTEN  =      -322.00571588 eV

  energy without entropy =     -322.00571588  energy(sigma->0) =     -322.00571588


--------------------------------------------------------------------------------------------------------




--------------------------------------- Iteration      1(   4)  ---------------------------------------


     EDDAV:  cpu time   73.8602: real time   74.0236
       DOS:  cpu time    0.0004: real time    0.0004
    --------------------------------------------
      LOOP:  cpu time   73.8606: real time   74.0240

 eigenvalue-minimisations  :  3040
 total energy-change (2. order) :-0.1042354E+02  (-0.1034818E+02)
 number of electron     324.0000000 magnetization 
 augmentation part      324.0000000 magnetization 

 Free energy of the ion-electron system (eV)
  ---------------------------------------------------
  alpha Z        PSCENC =       261.80791396
  Ewald energy   TEWEN  =     60069.94552484
  -Hartree energ DENC   =    -71809.24369295
  -exchange      EXHF   =         0.00000000
  -V(xc)+E(xc)   XCENC  =     -2094.01883277
  PAW double counting   =      7476.04436201    -4809.59211051
  entropy T*S    EENTRO =        -0.00000000
  eigenvalues    EBANDS =     -1380.45507256
  atomic energy  EATOM  =     11953.08265402
  Solvation  Ediel_sol  =         0.00000000
  ---------------------------------------------------
  free energy    TOTEN  =      -332.42925395 eV

  energy without entropy =     -332.42925395  energy(sigma->0) =     -332.42925395


--------------------------------------------------------------------------------------------------------




--------------------------------------- Iteration      1(   5)  ---------------------------------------


     EDDAV:  cpu time   72.0397: real time   72.2109
       DOS:  cpu time    0.0004: real time    0.0004
    CHARGE:  cpu time    1.8723: real time    1.8801
    MIXING:  cpu time    0.0148: real time    0.0194
    --------------------------------------------
      LOOP:  cpu time   73.9273: real time   74.1108

 eigenvalue-minimisations  :  2960
 total energy-change (2. order) :-0.3089828E+00  (-0.3084686E+00)
 number of electron     323.9999990 magnetization 
 augmentation part      -24.7251431 magnetization 

 Broyden mixing:
  rms(total) = 0.17884E+01    rms(broyden)= 0.17884E+01
  rms(prec ) = 0.18918E+01
  weight for this iteration     100.00

 Free energy of the ion-electron system (eV)
  ---------------------------------------------------
  alpha Z        PSCENC =       261.80791396
  Ewald energy   TEWEN  =     60069.94552484
  -Hartree energ DENC   =    -71809.24369295
  -exchange      EXHF   =         0.00000000
  -V(xc)+E(xc)   XCENC  =     -2094.01883277
  PAW double counting   =      7476.04436201    -4809.59211051
  entropy T*S    EENTRO =        -0.00000000
  eigenvalues    EBANDS =     -1380.76405540
  atomic energy  EATOM  =     11953.08265402
  Solvation  Ediel_sol  =         0.00000000
  ---------------------------------------------------
  free energy    TOTEN  =      -332.73823679 eV

  energy without entropy =     -332.73823679  energy(sigma->0) =     -332.73823679


--------------------------------------------------------------------------------------------------------




--------------------------------------- Iteration      1(   6)  ---------------------------------------


    POTLOK:  cpu time    0.2254: real time    0.2256
    SETDIJ:  cpu time    0.0106: real time    0.0106
    EDDIAG:  cpu time    4.6594: real time    4.6859
  RMM-DIIS:  cpu time   40.0049: real time   40.0854
    ORTHCH:  cpu time    0.2103: real time    0.2107
       DOS:  cpu time    0.0010: real time    0.0010
    CHARGE:  cpu time    1.8202: real time    1.8218
    MIXING:  cpu time    0.0095: real time    0.0509
    --------------------------------------------
      LOOP:  cpu time   46.9411: real time   47.0918

 eigenvalue-minimisations  :  2089
 total energy-change (2. order) : 0.8606262E+01  (-0.3205741E+01)
 number of electron     323.9999990 magnetization 
 augmentation part      -20.7393436 magnetization 

 Broyden mixing:
  rms(total) = 0.69783E+00    rms(broyden)= 0.69783E+00
  rms(prec ) = 0.77993E+00
  weight for this iteration     100.00

 eigenvalues of (default mixing * dielectric matrix)
  average eigenvalue GAMMA=   1.2499
  1.2499

 Free energy of the ion-electron system (eV)
  ---------------------------------------------------
  alpha Z        PSCENC =       261.80791396
  Ewald energy   TEWEN  =     60069.94552484
  -Hartree energ DENC   =    -71811.79361530
  -exchange      EXHF   =         0.00000000
  -V(xc)+E(xc)   XCENC  =     -2087.66426485
  PAW double counting   =      7808.39853847    -5154.64610934
  entropy T*S    EENTRO =        -0.00000000
  eigenvalues    EBANDS =     -1363.26261627
  atomic energy  EATOM  =     11953.08265402
  Solvation  Ediel_sol  =         0.00000000
  ---------------------------------------------------
  free energy    TOTEN  =      -324.13197447 eV

  energy without entropy =     -324.13197447  energy(sigma->0) =     -324.13197447


--------------------------------------------------------------------------------------------------------




--------------------------------------- Iteration      1(   7)  ---------------------------------------


    POTLOK:  cpu time    0.2221: real time    0.2224
    SETDIJ:  cpu time    0.0103: real time    0.0103
    EDDIAG:  cpu time    4.5802: real time    4.5875
  RMM-DIIS:  cpu time   37.5142: real time   37.6052
    ORTHCH:  cpu time    0.2118: real time    0.2120
       DOS:  cpu time    0.0006: real time    0.0006
    CHARGE:  cpu time    1.8666: real time    1.8730
    MIXING:  cpu time    0.0063: real time    0.0063
    --------------------------------------------
      LOOP:  cpu time   44.4120: real time   44.5174

 eigenvalue-minimisations  :  2002
 total energy-change (2. order) : 0.2566823E+01  (-0.8893134E+00)
 number of electron     323.9999990 magnetization 
 augmentation part      -21.6929574 magnetization 

 Broyden mixing:
  rms(total) = 0.40538E+00    rms(broyden)= 0.40538E+00
  rms(prec ) = 0.42847E+00
  weight for this iteration     100.00

 eigenvalues of (default mixing * dielectric matrix)
  average eigenvalue GAMMA=   1.5067
  0.8017  2.2116

 Free energy of the ion-electron system (eV)
  ---------------------------------------------------
  alpha Z        PSCENC =       261.80791396
  Ewald energy   TEWEN  =     60069.94552484
  -Hartree energ DENC   =    -71897.44413955
  -exchange      EXHF   =         0.00000000
  -V(xc)+E(xc)   XCENC  =     -2085.04970203
  PAW double counting   =      8189.71681268    -5543.45777661
  entropy T*S    EENTRO =        -0.00000000
  eigenvalues    EBANDS =     -1270.16643881
  atomic energy  EATOM  =     11953.08265402
  Solvation  Ediel_sol  =         0.00000000
  ---------------------------------------------------
  free energy    TOTEN  =      -321.56515150 eV

  energy without entropy =     -321.56515150  energy(sigma->0) =     -321.56515150


--------------------------------------------------------------------------------------------------------




--------------------------------------- Iteration      1(   8)  ---------------------------------------


    POTLOK:  cpu time    0.2215: real time    0.2217
    SETDIJ:  cpu time    0.0103: real time    0.0103
    EDDIAG:  cpu time    4.5701: real time    4.5825
  RMM-DIIS:  cpu time   38.2144: real time   38.2763
    ORTHCH:  cpu time    0.2058: real time    0.2061
       DOS:  cpu time    0.0008: real time    0.0008
    CHARGE:  cpu time    1.8286: real time    1.8310
    MIXING:  cpu time    0.0097: real time    0.0097
    --------------------------------------------
      LOOP:  cpu time   45.0612: real time   45.1385

 eigenvalue-minimisations  :  2006
 total energy-change (2. order) : 0.3237565E+00  (-0.4736531E+00)
 number of electron     323.9999990 magnetization 
 augmentation part      -21.2466322 magnetization 

 Broyden mixing:
  rms(total) = 0.94964E-01    rms(broyden)= 0.94964E-01
  rms(prec ) = 0.10668E+00
  weight for this iteration     100.00

 eigenvalues of (default mixing * dielectric matrix)
  average eigenvalue GAMMA=   1.3817
  2.1577  1.1878  0.7997

 Free energy of the ion-electron system (eV)
  ---------------------------------------------------
  alpha Z        PSCENC =       261.80791396
  Ewald energy   TEWEN  =     60069.94552484
  -Hartree energ DENC   =    -71945.71233384
  -exchange      EXHF   =         0.00000000
  -V(xc)+E(xc)   XCENC  =     -2081.43097624
  PAW double counting   =      8511.14849250    -5871.14222302
  entropy T*S    EENTRO =        -0.00000000
  eigenvalues    EBANDS =     -1218.94044722
  atomic energy  EATOM  =     11953.08265402
  Solvation  Ediel_sol  =         0.00000000
  ---------------------------------------------------
  free energy    TOTEN  =      -321.24139499 eV

  energy without entropy =     -321.24139499  energy(sigma->0) =     -321.24139499


--------------------------------------------------------------------------------------------------------




--------------------------------------- Iteration      1(   9)  ---------------------------------------


    POTLOK:  cpu time    0.2261: real time    0.2264
    SETDIJ:  cpu time    0.0103: real time    0.0103
    EDDIAG:  cpu time    4.7971: real time    4.8042
  RMM-DIIS:  cpu time   43.7957: real time   43.8736
    ORTHCH:  cpu time    0.2152: real time    0.2165
       DOS:  cpu time    0.0004: real time    0.0004
    CHARGE:  cpu time    1.8647: real time    1.8670
    MIXING:  cpu time    0.0066: real time    0.0066
    --------------------------------------------
      LOOP:  cpu time   50.9161: real time   51.0050

 eigenvalue-minimisations  :  2281
 total energy-change (2. order) :-0.7033559E-01  (-0.1080899E+00)
 number of electron     323.9999990 magnetization 
 augmentation part      -20.9925788 magnetization 

 Broyden mixing:
  rms(total) = 0.98627E-01    rms(broyden)= 0.98627E-01
  rms(prec ) = 0.11028E+00
  weight for this iteration     100.00

 eigenvalues of (default mixing * dielectric matrix)
  average eigenvalue GAMMA=   1.3312
  2.0560  2.0560  0.7716  0.4411

 Free energy of the ion-electron system (eV)
  ---------------------------------------------------
  alpha Z        PSCENC =       261.80791396
  Ewald energy   TEWEN  =     60069.94552484
  -Hartree energ DENC   =    -71949.49138775
  -exchange      EXHF   =         0.00000000
  -V(xc)+E(xc)   XCENC  =     -2081.07833959
  PAW double counting   =      8530.60050314    -5890.83175390
  entropy T*S    EENTRO =        -0.00000000
  eigenvalues    EBANDS =     -1215.34684531
  atomic energy  EATOM  =     11953.08265402
  Solvation  Ediel_sol  =         0.00000000
  ---------------------------------------------------
  free energy    TOTEN  =      -321.31173058 eV

  energy without entropy =     -321.31173058  energy(sigma->0) =     -321.31173058


--------------------------------------------------------------------------------------------------------




--------------------------------------- Iteration      1(  10)  ---------------------------------------


    POTLOK:  cpu time    0.2229: real time    0.2233
    SETDIJ:  cpu time    0.0137: real time    0.0137
    EDDIAG:  cpu time    4.7691: real time    4.7816
  RMM-DIIS:  cpu time   42.9114: real time   43.0313
    ORTHCH:  cpu time    0.2160: real time    0.2162
       DOS:  cpu time    0.0004: real time    0.0004
    CHARGE:  cpu time    1.8598: real time    1.8646
    MIXING:  cpu time    0.0067: real time    0.0067
    --------------------------------------------
      LOOP:  cpu time   49.9999: real time   50.1378

 eigenvalue-minimisations  :  2257
 total energy-change (2. order) : 0.1720552E-01  (-0.2224655E-01)
 number of electron     323.9999990 magnetization 
 augmentation part      -20.9918488 magnetization 

 Broyden mixing:
  rms(total) = 0.45100E-01    rms(broyden)= 0.45100E-01
  rms(prec ) = 0.52445E-01
  weight for this iteration     100.00

 eigenvalues of (default mixing * dielectric matrix)
  average eigenvalue GAMMA=   1.3388
  2.3537  2.1393  0.8977  0.8977  0.4057

 Free energy of the ion-electron system (eV)
  ---------------------------------------------------
  alpha Z        PSCENC =       261.80791396
  Ewald energy   TEWEN  =     60069.94552484
  -Hartree energ DENC   =    -71956.59679756
  -exchange      EXHF   =         0.00000000
  -V(xc)+E(xc)   XCENC  =     -2080.85502068
  PAW double counting   =      8557.01956022    -5917.30852054
  entropy T*S    EENTRO =        -0.00000000
  eigenvalues    EBANDS =     -1208.38983933
  atomic energy  EATOM  =     11953.08265402
  Solvation  Ediel_sol  =         0.00000000
  ---------------------------------------------------
  free energy    TOTEN  =      -321.29452507 eV

  energy without entropy =     -321.29452507  energy(sigma->0) =     -321.29452507


--------------------------------------------------------------------------------------------------------




--------------------------------------- Iteration      1(  11)  ---------------------------------------


    POTLOK:  cpu time    0.2219: real time    0.2221
    SETDIJ:  cpu time    0.0106: real time    0.0106
    EDDIAG:  cpu time    4.7236: real time    4.7342
  RMM-DIIS:  cpu time   42.8536: real time   42.9653
    ORTHCH:  cpu time    0.2202: real time    0.2204
       DOS:  cpu time    0.0004: real time    0.0004
    CHARGE:  cpu time    1.8810: real time    1.8871
    MIXING:  cpu time    0.0104: real time    0.0104
    --------------------------------------------
      LOOP:  cpu time   49.9216: real time   50.0504

 eigenvalue-minimisations  :  2227
 total energy-change (2. order) : 0.3038463E-02  (-0.9312533E-02)
 number of electron     323.9999990 magnetization 
 augmentation part      -21.1848561 magnetization 

 Broyden mixing:
  rms(total) = 0.22937E-01    rms(broyden)= 0.22937E-01
  rms(prec ) = 0.26796E-01
  weight for this iteration     100.00

 eigenvalues of (default mixing * dielectric matrix)
  average eigenvalue GAMMA=   1.2519
  2.4998  1.9339  1.2856  0.7707  0.6169  0.4046

 Free energy of the ion-electron system (eV)
  ---------------------------------------------------
  alpha Z        PSCENC =       261.80791396
  Ewald energy   TEWEN  =     60069.94552484
  -Hartree energ DENC   =    -71968.89132459
  -exchange      EXHF   =         0.00000000
  -V(xc)+E(xc)   XCENC  =     -2080.67837069
  PAW double counting   =      8589.98557480    -5950.41320962
  entropy T*S    EENTRO =        -0.00000000
  eigenvalues    EBANDS =     -1196.13024933
  atomic energy  EATOM  =     11953.08265402
  Solvation  Ediel_sol  =         0.00000000
  ---------------------------------------------------
  free energy    TOTEN  =      -321.29148660 eV

  energy without entropy =     -321.29148660  energy(sigma->0) =     -321.29148660


--------------------------------------------------------------------------------------------------------




--------------------------------------- Iteration      1(  12)  ---------------------------------------


    POTLOK:  cpu time    0.2253: real time    0.2255
    SETDIJ:  cpu time    0.0119: real time    0.0120
    EDDIAG:  cpu time    4.7600: real time    4.7678
  RMM-DIIS:  cpu time   48.7952: real time   48.8816
    ORTHCH:  cpu time    0.2339: real time    0.2342
       DOS:  cpu time    0.0004: real time    0.0004
    CHARGE:  cpu time    1.8744: real time    1.8764
    MIXING:  cpu time    0.0067: real time    0.0067
    --------------------------------------------
      LOOP:  cpu time   55.9079: real time   56.0046

 eigenvalue-minimisations  :  2555
 total energy-change (2. order) :-0.4924366E-03  (-0.2024801E-02)
 number of electron     323.9999990 magnetization 
 augmentation part      -21.1799084 magnetization 

 Broyden mixing:
  rms(total) = 0.15903E-01    rms(broyden)= 0.15903E-01
  rms(prec ) = 0.18986E-01
  weight for this iteration     100.00

 eigenvalues of (default mixing * dielectric matrix)
  average eigenvalue GAMMA=   1.2927
  2.4078  2.0797  2.0797  0.8315  0.8315  0.4291  0.3898

 Free energy of the ion-electron system (eV)
  ---------------------------------------------------
  alpha Z        PSCENC =       261.80791396
  Ewald energy   TEWEN  =     60069.94552484
  -Hartree energ DENC   =    -71971.92681903
  -exchange      EXHF   =         0.00000000
  -V(xc)+E(xc)   XCENC  =     -2080.61598426
  PAW double counting   =      8592.81524833    -5953.24061022
  entropy T*S    EENTRO =        -0.00000000
  eigenvalues    EBANDS =     -1193.15990669
  atomic energy  EATOM  =     11953.08265402
  Solvation  Ediel_sol  =         0.00000000
  ---------------------------------------------------
  free energy    TOTEN  =      -321.29197904 eV

  energy without entropy =     -321.29197904  energy(sigma->0) =     -321.29197904


--------------------------------------------------------------------------------------------------------




--------------------------------------- Iteration      1(  13)  ---------------------------------------


    POTLOK:  cpu time    0.2326: real time    0.2328
    SETDIJ:  cpu time    0.0104: real time    0.0104
    EDDIAG:  cpu time    4.7134: real time    4.7249
  RMM-DIIS:  cpu time   44.3129: real time   44.3957
    ORTHCH:  cpu time    0.2049: real time    0.2051
       DOS:  cpu time    0.0004: real time    0.0004
    CHARGE:  cpu time    1.7732: real time    1.7773
    MIXING:  cpu time    0.0143: real time    0.0143
    --------------------------------------------
      LOOP:  cpu time   51.2620: real time   51.3609

 eigenvalue-minimisations  :  2308
 total energy-change (2. order) :-0.5175426E-03  (-0.1329084E-02)
 number of electron     323.9999990 magnetization 
 augmentation part      -21.0996742 magnetization 

 Broyden mixing:
  rms(total) = 0.11963E-01    rms(broyden)= 0.11963E-01
  rms(prec ) = 0.14573E-01
  weight for this iteration     100.00

 eigenvalues of (default mixing * dielectric matrix)
  average eigenvalue GAMMA=   1.3878
  2.9636  2.5965  1.5455  1.5455  0.8140  0.8140  0.4373  0.3864

 Free energy of the ion-electron system (eV)
  ---------------------------------------------------
  alpha Z        PSCENC =       261.80791396
  Ewald energy   TEWEN  =     60069.94552484
  -Hartree energ DENC   =    -71975.62785812
  -exchange      EXHF   =         0.00000000
  -V(xc)+E(xc)   XCENC  =     -2080.55652847
  PAW double counting   =      8589.25723865    -5949.60403224
  entropy T*S    EENTRO =        -0.00000000
  eigenvalues    EBANDS =     -1189.59740922
  atomic energy  EATOM  =     11953.08265402
  Solvation  Ediel_sol  =         0.00000000
  ---------------------------------------------------
  free energy    TOTEN  =      -321.29249658 eV

  energy without entropy =     -321.29249658  energy(sigma->0) =     -321.29249658


--------------------------------------------------------------------------------------------------------




--------------------------------------- Iteration      1(  14)  ---------------------------------------


    POTLOK:  cpu time    0.2253: real time    0.2255
    SETDIJ:  cpu time    0.0099: real time    0.0099
    EDDIAG:  cpu time    4.7812: real time    4.7875
  RMM-DIIS:  cpu time   38.8565: real time   38.9333
    ORTHCH:  cpu time    0.2214: real time    0.2216
       DOS:  cpu time    0.0004: real time    0.0004
    CHARGE:  cpu time    1.8761: real time    1.8783
    MIXING:  cpu time    0.0069: real time    0.0069
    --------------------------------------------
      LOOP:  cpu time   45.9776: real time   46.0635

 eigenvalue-minimisations  :  2023
 total energy-change (2. order) :-0.2073815E-03  (-0.3974873E-03)
 number of electron     323.9999990 magnetization 
 augmentation part      -21.1393921 magnetization 

 Broyden mixing:
  rms(total) = 0.49270E-02    rms(broyden)= 0.49270E-02
  rms(prec ) = 0.63670E-02
  weight for this iteration     100.00

 eigenvalues of (default mixing * dielectric matrix)
  average eigenvalue GAMMA=   1.3370
  3.0608  2.5015  1.6738  1.6738  0.8021  0.8021  0.6956  0.4371  0.3864

 Free energy of the ion-electron system (eV)
  ---------------------------------------------------
  alpha Z        PSCENC =       261.80791396
  Ewald energy   TEWEN  =     60069.94552484
  -Hartree energ DENC   =    -71982.71952341
  -exchange      EXHF   =         0.00000000
  -V(xc)+E(xc)   XCENC  =     -2080.55077164
  PAW double counting   =      8590.58728158    -5950.84568847
  entropy T*S    EENTRO =        -0.00000000
  eigenvalues    EBANDS =     -1182.60009485
  atomic energy  EATOM  =     11953.08265402
  Solvation  Ediel_sol  =         0.00000000
  ---------------------------------------------------
  free energy    TOTEN  =      -321.29270397 eV

  energy without entropy =     -321.29270397  energy(sigma->0) =     -321.29270397


--------------------------------------------------------------------------------------------------------




--------------------------------------- Iteration      1(  15)  ---------------------------------------


    POTLOK:  cpu time    0.2298: real time    0.2300
    SETDIJ:  cpu time    0.0104: real time    0.0104
    EDDIAG:  cpu time    4.5893: real time    4.5952
  RMM-DIIS:  cpu time   49.4588: real time   49.5515
    ORTHCH:  cpu time    0.2166: real time    0.2168
       DOS:  cpu time    0.0007: real time    0.0007
    CHARGE:  cpu time    1.8620: real time    1.8682
    MIXING:  cpu time    0.0071: real time    0.0071
    --------------------------------------------
      LOOP:  cpu time   56.3748: real time   56.4800

 eigenvalue-minimisations  :  2559
 total energy-change (2. order) :-0.7694696E-03  (-0.1665874E-03)
 number of electron     323.9999990 magnetization 
 augmentation part      -21.1441926 magnetization 

 Broyden mixing:
  rms(total) = 0.47592E-02    rms(broyden)= 0.47592E-02
  rms(prec ) = 0.58877E-02
  weight for this iteration     100.00

 eigenvalues of (default mixing * dielectric matrix)
  average eigenvalue GAMMA=   1.3250
  3.2059  2.3351  1.9230  1.9230  0.9870  0.7920  0.7920  0.3873  0.4305  0.4741

 Free energy of the ion-electron system (eV)
  ---------------------------------------------------
  alpha Z        PSCENC =       261.80791396
  Ewald energy   TEWEN  =     60069.94552484
  -Hartree energ DENC   =    -71984.32648956
  -exchange      EXHF   =         0.00000000
  -V(xc)+E(xc)   XCENC  =     -2080.53707046
  PAW double counting   =      8590.35598696    -5950.62998933
  entropy T*S    EENTRO =        -0.00000000
  eigenvalues    EBANDS =     -1180.99200386
  atomic energy  EATOM  =     11953.08265402
  Solvation  Ediel_sol  =         0.00000000
  ---------------------------------------------------
  free energy    TOTEN  =      -321.29347343 eV

  energy without entropy =     -321.29347343  energy(sigma->0) =     -321.29347343


--------------------------------------------------------------------------------------------------------




--------------------------------------- Iteration      1(  16)  ---------------------------------------


    POTLOK:  cpu time    0.2262: real time    0.2267
    SETDIJ:  cpu time    0.0186: real time    0.0186
    EDDIAG:  cpu time    4.6778: real time    4.6896
  RMM-DIIS:  cpu time   40.7148: real time   40.7956
    ORTHCH:  cpu time    0.2261: real time    0.2264
       DOS:  cpu time    0.0004: real time    0.0004
    CHARGE:  cpu time    1.8271: real time    1.8291
    MIXING:  cpu time    0.0074: real time    0.0074
    --------------------------------------------
      LOOP:  cpu time   47.6983: real time   47.7935

 eigenvalue-minimisations  :  2131
 total energy-change (2. order) :-0.1133414E-02  (-0.6538984E-04)
 number of electron     323.9999990 magnetization 
 augmentation part      -21.1308079 magnetization 

 Broyden mixing:
  rms(total) = 0.20442E-02    rms(broyden)= 0.20442E-02
  rms(prec ) = 0.29841E-02
  weight for this iteration     100.00

 eigenvalues of (default mixing * dielectric matrix)
  average eigenvalue GAMMA=   1.4676
  4.4461  2.4849  2.4849  1.5159  1.5159  0.8601  0.7977  0.7977  0.4394  0.3874
  0.4139

 Free energy of the ion-electron system (eV)
  ---------------------------------------------------
  alpha Z        PSCENC =       261.80791396
  Ewald energy   TEWEN  =     60069.94552484
  -Hartree energ DENC   =    -71986.86598295
  -exchange      EXHF   =         0.00000000
  -V(xc)+E(xc)   XCENC  =     -2080.51313269
  PAW double counting   =      8589.16154513    -5949.45897519
  entropy T*S    EENTRO =        -0.00000000
  eigenvalues    EBANDS =     -1178.45415398
  atomic energy  EATOM  =     11953.08265402
  Solvation  Ediel_sol  =         0.00000000
  ---------------------------------------------------
  free energy    TOTEN  =      -321.29460685 eV

  energy without entropy =     -321.29460685  energy(sigma->0) =     -321.29460685


--------------------------------------------------------------------------------------------------------




--------------------------------------- Iteration      1(  17)  ---------------------------------------


    POTLOK:  cpu time    0.2279: real time    0.2284
    SETDIJ:  cpu time    0.0104: real time    0.0104
    EDDIAG:  cpu time    4.6423: real time    4.6534
  RMM-DIIS:  cpu time   43.8499: real time   43.9616
    ORTHCH:  cpu time    0.2088: real time    0.2090
       DOS:  cpu time    0.0004: real time    0.0004
    CHARGE:  cpu time    1.8885: real time    1.8945
    MIXING:  cpu time    0.0074: real time    0.0074
    --------------------------------------------
      LOOP:  cpu time   50.8354: real time   50.9651

 eigenvalue-minimisations  :  2251
 total energy-change (2. order) :-0.1342946E-02  (-0.5370219E-04)
 number of electron     323.9999990 magnetization 
 augmentation part      -21.1221902 magnetization 

 Broyden mixing:
  rms(total) = 0.30363E-02    rms(broyden)= 0.30363E-02
  rms(prec ) = 0.34292E-02
  weight for this iteration     100.00

 eigenvalues of (default mixing * dielectric matrix)
  average eigenvalue GAMMA=   1.4526
  4.8232  2.5853  2.3984  1.6245  1.6245  0.9068  0.7784  0.7784  0.6790  0.4367
  0.3869  0.4088

 Free energy of the ion-electron system (eV)
  ---------------------------------------------------
  alpha Z        PSCENC =       261.80791396
  Ewald energy   TEWEN  =     60069.94552484
  -Hartree energ DENC   =    -71990.30650458
  -exchange      EXHF   =         0.00000000
  -V(xc)+E(xc)   XCENC  =     -2080.49759143
  PAW double counting   =      8587.72299240    -5948.01784507
  entropy T*S    EENTRO =        -0.00000000
  eigenvalues    EBANDS =     -1175.03309394
  atomic energy  EATOM  =     11953.08265402
  Solvation  Ediel_sol  =         0.00000000
  ---------------------------------------------------
  free energy    TOTEN  =      -321.29594979 eV

  energy without entropy =     -321.29594979  energy(sigma->0) =     -321.29594979


--------------------------------------------------------------------------------------------------------




--------------------------------------- Iteration      1(  18)  ---------------------------------------


    POTLOK:  cpu time    0.2311: real time    0.2313
    SETDIJ:  cpu time    0.0104: real time    0.0104
    EDDIAG:  cpu time    4.7235: real time    4.7297
  RMM-DIIS:  cpu time   41.8736: real time   41.9659
    ORTHCH:  cpu time    0.2128: real time    0.2130
       DOS:  cpu time    0.0006: real time    0.0006
    CHARGE:  cpu time    1.9119: real time    1.9139
    MIXING:  cpu time    0.0075: real time    0.0075
    --------------------------------------------
      LOOP:  cpu time   48.9714: real time   49.0724

 eigenvalue-minimisations  :  2195
 total energy-change (2. order) :-0.2512122E-03  (-0.1041084E-04)
 number of electron     323.9999990 magnetization 
 augmentation part      -21.1259163 magnetization 

 Broyden mixing:
  rms(total) = 0.17144E-02    rms(broyden)= 0.17144E-02
  rms(prec ) = 0.19797E-02
  weight for this iteration     100.00

 eigenvalues of (default mixing * dielectric matrix)
  average eigenvalue GAMMA=   1.4585
  5.1855  2.7699  2.0228  2.0228  1.7749  1.0335  0.8588  0.7966  0.7966  0.4745
  0.4375  0.3875  0.3994

 Free energy of the ion-electron system (eV)
  ---------------------------------------------------
  alpha Z        PSCENC =       261.80791396
  Ewald energy   TEWEN  =     60069.94552484
  -Hartree energ DENC   =    -71990.83313393
  -exchange      EXHF   =         0.00000000
  -V(xc)+E(xc)   XCENC  =     -2080.50062990
  PAW double counting   =      8587.81560026    -5948.10435519
  entropy T*S    EENTRO =        -0.00000000
  eigenvalues    EBANDS =     -1174.50977507
  atomic energy  EATOM  =     11953.08265402
  Solvation  Ediel_sol  =         0.00000000
  ---------------------------------------------------
  free energy    TOTEN  =      -321.29620101 eV

  energy without entropy =     -321.29620101  energy(sigma->0) =     -321.29620101


--------------------------------------------------------------------------------------------------------




--------------------------------------- Iteration      1(  19)  ---------------------------------------


    POTLOK:  cpu time    0.2309: real time    0.2323
    SETDIJ:  cpu time    0.0105: real time    0.0105
    EDDIAG:  cpu time    4.6391: real time    4.6470
  RMM-DIIS:  cpu time   41.7746: real time   41.8622
    ORTHCH:  cpu time    0.2047: real time    0.2049
       DOS:  cpu time    0.0044: real time    0.0044
    CHARGE:  cpu time    1.8801: real time    1.8822
    MIXING:  cpu time    0.0076: real time    0.0076
    --------------------------------------------
      LOOP:  cpu time   48.7519: real time   48.8511

 eigenvalue-minimisations  :  2186
 total energy-change (2. order) :-0.3165278E-03  (-0.9667961E-05)
 number of electron     323.9999990 magnetization 
 augmentation part      -21.1319118 magnetization 

 Broyden mixing:
  rms(total) = 0.62492E-03    rms(broyden)= 0.62491E-03
  rms(prec ) = 0.80516E-03
  weight for this iteration     100.00

 eigenvalues of (default mixing * dielectric matrix)
  average eigenvalue GAMMA=   1.5778
  6.6278  2.9972  2.3191  1.9913  1.9913  1.0656  1.0656  0.8003  0.8003  0.7799
  0.4411  0.4311  0.3895  0.3895

 Free energy of the ion-electron system (eV)
  ---------------------------------------------------
  alpha Z        PSCENC =       261.80791396
  Ewald energy   TEWEN  =     60069.94552484
  -Hartree energ DENC   =    -71991.29972966
  -exchange      EXHF   =         0.00000000
  -V(xc)+E(xc)   XCENC  =     -2080.50379744
  PAW double counting   =      8588.08376626    -5948.36679882
  entropy T*S    EENTRO =        -0.00000000
  eigenvalues    EBANDS =     -1174.04605070
  atomic energy  EATOM  =     11953.08265402
  Solvation  Ediel_sol  =         0.00000000
  ---------------------------------------------------
  free energy    TOTEN  =      -321.29651753 eV

  energy without entropy =     -321.29651753  energy(sigma->0) =     -321.29651753


--------------------------------------------------------------------------------------------------------




--------------------------------------- Iteration      1(  20)  ---------------------------------------


    POTLOK:  cpu time    0.2304: real time    0.2307
    SETDIJ:  cpu time    0.0102: real time    0.0102
    EDDIAG:  cpu time    4.6850: real time    4.6952
  RMM-DIIS:  cpu time   39.2482: real time   39.3345
    ORTHCH:  cpu time    0.2047: real time    0.2049
       DOS:  cpu time    0.0005: real time    0.0005
    CHARGE:  cpu time    1.8472: real time    1.8492
    MIXING:  cpu time    0.0077: real time    0.0077
    --------------------------------------------
      LOOP:  cpu time   46.2339: real time   46.3327

 eigenvalue-minimisations  :  2052
 total energy-change (2. order) :-0.2952706E-03  (-0.3354062E-05)
 number of electron     323.9999990 magnetization 
 augmentation part      -21.1317121 magnetization 

 Broyden mixing:
  rms(total) = 0.28802E-03    rms(broyden)= 0.28801E-03
  rms(prec ) = 0.40044E-03
  weight for this iteration     100.00

 eigenvalues of (default mixing * dielectric matrix)
  average eigenvalue GAMMA=   1.5879
  6.6457  3.1089  2.4411  2.0597  2.0597  1.2957  1.2957  0.7946  0.7946  0.8370
  0.8370  0.4396  0.4299  0.3885  0.3912

 Free energy of the ion-electron system (eV)
  ---------------------------------------------------
  alpha Z        PSCENC =       261.80791396
  Ewald energy   TEWEN  =     60069.94552484
  -Hartree energ DENC   =    -71991.88454483
  -exchange      EXHF   =         0.00000000
  -V(xc)+E(xc)   XCENC  =     -2080.50164239
  PAW double counting   =      8588.24570481    -5948.52867612
  entropy T*S    EENTRO =        -0.00000000
  eigenvalues    EBANDS =     -1173.46374708
  atomic energy  EATOM  =     11953.08265402
  Solvation  Ediel_sol  =         0.00000000
  ---------------------------------------------------
  free energy    TOTEN  =      -321.29681280 eV

  energy without entropy =     -321.29681280  energy(sigma->0) =     -321.29681280


--------------------------------------------------------------------------------------------------------




--------------------------------------- Iteration      1(  21)  ---------------------------------------


    POTLOK:  cpu time    0.2282: real time    0.2284
    SETDIJ:  cpu time    0.0106: real time    0.0106
    EDDIAG:  cpu time    4.7378: real time    4.7500
  RMM-DIIS:  cpu time   36.3664: real time   36.4366
    ORTHCH:  cpu time    0.2115: real time    0.2117
       DOS:  cpu time    0.0007: real time    0.0007
    CHARGE:  cpu time    1.8132: real time    1.8189
    MIXING:  cpu time    0.0089: real time    0.0089
    --------------------------------------------
      LOOP:  cpu time   43.3773: real time   43.4658

 eigenvalue-minimisations  :  1814
 total energy-change (2. order) :-0.9322859E-04  (-0.1036761E-05)
 number of electron     323.9999990 magnetization 
 augmentation part      -21.1304603 magnetization 

 Broyden mixing:
  rms(total) = 0.34255E-03    rms(broyden)= 0.34255E-03
  rms(prec ) = 0.41523E-03
  weight for this iteration     100.00

 eigenvalues of (default mixing * dielectric matrix)
  average eigenvalue GAMMA=   1.5921
  6.8731  3.3300  2.5527  2.1942  2.1942  1.5801  1.1838  0.8691  0.8691  0.8040
  0.8040  0.5703  0.4394  0.4293  0.3884  0.3915

 Free energy of the ion-electron system (eV)
  ---------------------------------------------------
  alpha Z        PSCENC =       261.80791396
  Ewald energy   TEWEN  =     60069.94552484
  -Hartree energ DENC   =    -71992.03093258
  -exchange      EXHF   =         0.00000000
  -V(xc)+E(xc)   XCENC  =     -2080.50104395
  PAW double counting   =      8588.29094154    -5948.57546320
  entropy T*S    EENTRO =        -0.00000000
  eigenvalues    EBANDS =     -1173.31650067
  atomic energy  EATOM  =     11953.08265402
  Solvation  Ediel_sol  =         0.00000000
  ---------------------------------------------------
  free energy    TOTEN  =      -321.29690603 eV

  energy without entropy =     -321.29690603  energy(sigma->0) =     -321.29690603


--------------------------------------------------------------------------------------------------------




[...]
 -0.000  -0.000   0.000   0.000  -0.000   0.011  -0.000  -0.000
 -0.000   0.000   0.000   0.000  -0.000  -0.000   0.011   0.000
  0.000   0.000  -0.000  -0.000   0.000  -0.000   0.000   0.011
 -0.001   0.000  -0.001  -0.000   0.001  -0.000   0.000   0.000
 -0.000  -0.000  -0.017   0.002  -0.000  -0.000  -0.000   0.000
 -0.009  -0.000  -0.000  -0.021   0.000   0.000  -0.000   0.000
  0.000   0.000  -0.000  -0.001  -0.016   0.000   0.000  -0.000
 -0.000  -0.000  -0.001   0.000  -0.001   0.000  -0.000   0.000
 total augmentation occupancy for first ion, spin component:           1
  1.932   0.239   0.003   0.198  -0.006  -0.009   0.049  -0.000   0.003  -0.002   0.007   0.001  -0.001
  0.239   1.460   0.017  -0.961   0.010  -0.012   0.394   0.007  -0.006  -0.000  -0.025  -0.003  -0.004
  0.003   0.017   1.352  -0.020   0.010  -0.511   0.008  -0.010   0.006  -0.125   0.001  -0.004  -0.047
  0.198  -0.961  -0.020   1.516   0.009   0.009  -0.560   0.003  -0.006   0.004  -0.039  -0.001   0.005
 -0.006   0.010   0.010   0.009   1.334  -0.010   0.004  -0.491  -0.043  -0.003  -0.001  -0.118  -0.001
 -0.009  -0.012  -0.511   0.009  -0.010   0.341  -0.001  -0.005   0.002   0.042   0.002   0.002   0.011
  0.049   0.394   0.008  -0.560   0.004  -0.001   0.312  -0.003   0.000  -0.003   0.050   0.000   0.000
 -0.000   0.007  -0.010   0.003  -0.491  -0.005  -0.003   0.329   0.005   0.002  -0.001   0.041   0.002
  0.003  -0.006   0.006  -0.006  -0.043   0.002   0.000   0.005   0.023  -0.000   0.000  -0.001   0.000
 -0.002  -0.000  -0.125   0.004  -0.003   0.042  -0.003   0.002  -0.000   0.021  -0.001  -0.000   0.000
  0.007  -0.025   0.001  -0.039  -0.001   0.002   0.050  -0.001   0.000  -0.001   0.022   0.000   0.001
  0.001  -0.003  -0.004  -0.001  -0.118   0.002   0.000   0.041  -0.001  -0.000   0.000   0.020   0.000
 -0.001  -0.004  -0.047   0.005  -0.001   0.011   0.000   0.002   0.000   0.000   0.001   0.000   0.022


------------------------ aborting loop because EDIFF is reached ----------------------------------------


    CHARGE:  cpu time    1.3405: real time    1.3418
    FORLOC:  cpu time    0.0713: real time    0.0714
    FORNL :  cpu time   12.5877: real time   12.6100
    STRESS:  cpu time   67.0430: real time   67.2017
    FORCOR:  cpu time    0.2691: real time    0.2693
    FORHAR:  cpu time    0.1065: real time    0.1066
    MIXING:  cpu time    0.0066: real time    0.0067
    OFIELD:  cpu time    0.0000: real time    0.0000

  Number of pair interactions contributing to vdW energy:  284760
  Edisp (eV):  -19.76707
    FORVDW:  cpu time    0.0305: real time    0.0305

  FORCE on cell =-STRESS in cart. coord.  units (eV):
  Direction    XX          YY          ZZ          XY          YZ          ZX
  --------------------------------------------------------------------------------------
  Alpha Z   261.80791   261.80791   261.80791
  Ewald   69147.50424 69209.78776-78471.42943   -43.38916   -41.92323    42.43568
  Hartree 71461.00608 71476.00165-71118.14497   -10.53009    -0.51038     5.47623
  E(xc)   -1366.83516 -1367.58486 -1387.58909     0.93570     2.52916    -1.47231
  Local  ************************144499.50762    51.62661    41.16477   -45.52859
  n-local  3585.67307  3589.13155  3782.83053     1.24385   -18.64003     9.92421
  augment  -760.00479  -759.71885  -803.25414    -1.34509     3.36952    -1.48830
  Kinetic  3318.62370  3321.82071  3298.51065   -13.43727    -5.90125     7.84626
  Fock        0.00000     0.00000     0.00000     0.00000     0.00000     0.00000
  vdW       -13.77721   -13.27898   -10.79632     0.03887     1.68553    -0.04217
  -------------------------------------------------------------------------------------
  Total      35.43987    46.12308    51.44276   -14.85658   -18.22591    17.15101
  in kB      20.71395    26.95810    30.06735    -8.68340   -10.65271    10.02445
  external pressure =       25.91 kB  Pullay stress =        0.00 kB

  kinetic pressure (ideal gas correction) =      0.35 kB
  total pressure  =     26.27 kB
  Total+kin.    20.939      27.158      30.708      -8.684     -10.781       9.968

 VOLUME and BASIS-vectors are now :
 -----------------------------------------------------------------------------
  energy-cutoff  :      550.00
  volume of cell :     2741.19
      direct lattice vectors                 reciprocal lattice vectors
    10.424881809  0.000000000  0.000000000     0.095924349  0.052422650  0.000046988
    -4.913886366  8.991558925  0.000000000     0.000000000  0.111215420 -0.003294960
    -0.487812870  0.866400654 29.243784497     0.000000000  0.000000000  0.034195301

  length of vectors
    10.424881809 10.246678053 29.260682549     0.109314305  0.111264219  0.034195301


 FORCES acting on ions
    electron-ion (+dipol)            ewald-force                    non-local-force                 convergence-correction
 -----------------------------------------------------------------------------------------------
   -.132E+01 0.287E+01 -.851E+03   0.138E+01 -.282E+01 0.856E+03   0.303E+00 -.554E+00 -.479E+01   -.133E-03 -.741E-03 0.126E-02
   0.921E+00 -.159E+01 -.852E+03   -.924E+00 0.177E+01 0.857E+03   0.196E+00 -.378E+00 -.486E+01   -.620E-03 0.580E-03 0.108E-02
   -.125E+00 0.505E+00 -.849E+03   0.116E+00 -.376E+00 0.855E+03   0.236E+00 -.452E+00 -.459E+01   -.271E-03 -.443E-03 0.391E-03
   0.269E+01 0.269E+01 -.852E+03   -.275E+01 -.255E+01 0.858E+03   0.522E-02 -.685E+00 -.462E+01   0.170E-03 0.153E-03 0.722E-03
   0.182E+01 0.207E+01 -.853E+03   -.187E+01 -.200E+01 0.858E+03   0.219E+00 -.621E+00 -.461E+01   0.728E-03 0.198E-03 0.106E-02
   0.751E+00 0.143E+01 -.850E+03   -.806E+00 -.127E+01 0.856E+03   0.291E+00 -.654E+00 -.439E+01   -.151E-03 0.778E-04 0.770E-03
   0.141E+01 0.570E+01 -.852E+03   -.144E+01 -.554E+01 0.857E+03   0.913E-01 -.125E+01 -.446E+01   -.670E-04 -.181E-03 0.784E-03
   -.439E+00 0.717E+00 -.849E+03   0.411E+00 -.586E+00 0.854E+03   0.275E+00 -.678E+00 -.460E+01   -.100E-03 0.408E-03 0.282E-03
   0.709E+00 -.155E+01 -.852E+03   -.748E+00 0.169E+01 0.857E+03   0.214E+00 -.327E+00 -.452E+01   0.405E-03 -.983E-04 0.404E-03
   -.437E+00 0.609E+00 0.107E+03   0.438E+00 -.545E+00 -.102E+03   0.131E+00 -.564E+00 -.475E+01   0.520E-03 0.670E-03 0.416E-03
   -.809E+00 0.239E+01 0.107E+03   0.858E+00 -.228E+01 -.101E+03   0.918E-01 -.897E+00 -.444E+01   0.648E-03 0.338E-03 -.269E-04
   0.541E+00 0.946E+00 0.104E+03   -.594E+00 -.886E+00 -.990E+02   0.146E+00 -.562E+00 -.486E+01   0.747E-03 0.642E-04 0.449E-03
   0.266E+01 0.570E+00 0.107E+03   -.270E+01 -.566E+00 -.101E+03   -.228E-01 -.328E+00 -.460E+01   -.339E-04 0.135E-03 -.145E-03
   0.292E+01 0.263E+01 0.106E+03   -.294E+01 -.265E+01 -.101E+03   -.250E-01 -.459E+00 -.474E+01   -.258E-03 -.444E-03 -.124E-03
   0.208E+01 0.243E+01 0.107E+03   -.210E+01 -.238E+01 -.101E+03   0.400E-01 -.584E+00 -.472E+01   -.517E-03 -.148E-03 -.624E-04
   0.184E+01 0.286E+01 0.107E+03   -.185E+01 -.279E+01 -.101E+03   -.114E+00 -.801E+00 -.440E+01   -.482E-03 0.294E-04 0.524E-03
   0.270E+01 0.216E+00 0.106E+03   -.277E+01 -.183E+00 -.101E+03   -.135E+00 -.315E+00 -.462E+01   -.390E-03 -.403E-03 0.465E-03
   -.332E+00 0.226E+01 0.107E+03   0.290E+00 -.225E+01 -.101E+03   0.332E+00 -.555E+00 -.428E+01   -.244E-03 -.247E-03 0.100E-02
   0.235E+01 -.243E+01 -.108E+03   -.218E+01 0.245E+01 0.103E+03   -.513E+00 0.405E+00 0.455E+01   -.155E-03 -.534E-03 -.959E-03
   0.154E+01 -.124E+01 -.110E+03   -.137E+01 0.124E+01 0.104E+03   -.361E+00 0.283E+00 0.491E+01   -.544E-03 0.448E-03 -.859E-03
   0.138E+00 0.101E+01 -.108E+03   0.530E-02 -.104E+01 0.102E+03   -.223E+00 0.230E+00 0.493E+01   -.241E-03 -.410E-03 -.412E-04
   0.250E+01 -.251E+01 -.105E+03   -.236E+01 0.253E+01 0.998E+02   -.556E+00 0.531E+00 0.456E+01   0.666E-04 0.204E-03 -.378E-03
   0.472E+01 0.750E+00 -.106E+03   -.463E+01 -.839E+00 0.101E+03   -.575E+00 0.297E+00 0.488E+01   0.525E-03 0.321E-04 -.666E-03
   0.331E+01 0.152E+01 -.108E+03   -.324E+01 -.157E+01 0.102E+03   -.416E+00 0.239E+00 0.486E+01   -.307E-03 -.839E-04 -.403E-03
   0.166E+01 -.248E+01 -.106E+03   -.147E+01 0.251E+01 0.100E+03   -.629E+00 0.421E+00 0.475E+01   0.765E-04 0.104E-03 -.308E-03
   -.418E+00 0.102E+00 -.108E+03   0.593E+00 -.155E+00 0.103E+03   -.371E+00 0.228E+00 0.507E+01   -.292E-05 0.310E-03 0.151E-03
   0.809E+00 -.323E+01 -.105E+03   -.663E+00 0.321E+01 0.998E+02   -.386E+00 0.641E+00 0.475E+01   0.561E-03 -.747E-04 0.100E-03
   0.308E+00 -.480E+00 0.851E+03   -.177E+00 0.405E+00 -.857E+03   -.303E+00 0.277E+00 0.467E+01   0.516E-03 0.607E-03 -.853E-03
   0.241E+01 -.185E+01 0.852E+03   -.226E+01 0.186E+01 -.857E+03   -.626E+00 0.255E+00 0.457E+01   0.453E-03 0.362E-03 -.427E-03
   0.309E+00 0.394E+00 0.849E+03   -.186E+00 -.445E+00 -.855E+03   -.309E+00 0.118E+00 0.452E+01   0.868E-03 0.233E-04 -.828E-03
   0.173E+01 -.245E+00 0.851E+03   -.157E+01 0.105E+00 -.857E+03   -.565E+00 0.474E+00 0.463E+01   0.663E-04 0.712E-04 -.384E-03
   0.389E+01 -.232E+01 0.852E+03   -.377E+01 0.224E+01 -.858E+03   -.661E+00 0.636E+00 0.457E+01   -.227E-03 -.311E-03 -.324E-03
   0.736E+00 -.656E+00 0.850E+03   -.634E+00 0.599E+00 -.856E+03   -.207E+00 0.350E+00 0.479E+01   -.416E-03 -.759E-04 -.431E-03
   0.488E+01 0.112E+01 0.852E+03   -.480E+01 -.122E+01 -.858E+03   -.790E+00 0.254E+00 0.456E+01   -.593E-03 0.707E-04 -.114E-02
   0.132E+01 -.897E+00 0.854E+03   -.120E+01 0.817E+00 -.859E+03   -.467E+00 0.395E+00 0.500E+01   -.209E-03 -.508E-03 -.954E-03
   0.364E+01 -.300E+00 0.853E+03   -.359E+01 0.205E+00 -.859E+03   -.509E+00 0.420E+00 0.447E+01   -.433E-03 -.178E-03 -.149E-02
   -.261E+01 0.247E+00 -.478E+03   0.272E+01 -.278E+00 0.478E+03   0.365E-01 -.501E-01 0.145E+00   -.227E-05 -.528E-03 0.977E-04
   -.280E+01 -.419E+01 -.478E+03   0.291E+01 0.443E+01 0.478E+03   0.180E-01 0.606E+00 -.277E+00   -.478E-03 0.417E-03 -.143E-03
   -.538E+01 0.156E+00 -.479E+03   0.552E+01 -.962E-01 0.479E+03   0.136E+00 0.253E-01 -.187E+00   0.129E-03 -.670E-04 0.769E-04
   -.194E+01 -.917E+00 -.477E+03   0.213E+01 0.100E+01 0.477E+03   0.407E-01 0.819E-01 0.398E+00   0.898E-05 -.554E-03 0.716E-04
   -.279E+01 -.205E+01 -.481E+03   0.297E+01 0.219E+01 0.481E+03   -.448E-01 0.130E+00 -.141E+00   -.132E-04 0.112E-03 -.193E-03
   -.123E+01 0.145E+01 -.482E+03   0.129E+01 -.146E+01 0.482E+03   -.198E+00 0.150E-01 -.312E+00   -.576E-03 0.178E-03 -.204E-04
   -.413E+01 -.110E+01 -.479E+03   0.438E+01 0.127E+01 0.479E+03   0.408E+00 0.274E+00 0.793E-01   -.318E-04 0.110E-03 0.179E-03
   -.209E+01 -.698E-02 -.479E+03   0.218E+01 0.216E-01 0.479E+03   0.130E+00 0.292E+00 -.144E+00   0.486E-03 0.235E-03 0.310E-04
   0.174E+00 -.114E+00 -.480E+03   -.124E+00 0.134E+00 0.480E+03   -.178E+00 0.153E+00 -.184E+00   0.396E-03 0.147E-03 0.134E-03
   -.467E+01 -.128E+01 0.480E+03   0.494E+01 0.139E+01 -.480E+03   0.131E+00 0.206E-01 0.942E-01   0.302E-03 0.456E-03 0.821E-04
   -.309E+01 -.235E+01 0.478E+03   0.320E+01 0.259E+01 -.478E+03   -.320E-01 0.352E+00 -.157E+00   0.503E-03 0.896E-05 -.115E-03
   -.264E+01 -.173E+01 0.479E+03   0.277E+01 0.185E+01 -.479E+03   -.601E-01 0.190E+00 0.300E-01   0.625E-03 0.383E-03 -.708E-04
   -.336E+01 -.549E-01 0.478E+03   0.367E+01 0.771E-01 -.478E+03   0.241E+00 -.283E+00 -.153E+00   -.371E-03 -.404E-03 -.152E-05
   0.860E+00 0.724E+00 0.483E+03   -.808E+00 -.760E+00 -.483E+03   -.256E+00 -.939E-01 -.172E+00   -.878E-03 -.497E-03 -.143E-03
   -.347E+01 0.702E+00 0.478E+03   0.375E+01 -.658E+00 -.478E+03   0.396E+00 0.300E-01 -.332E+00   -.574E-03 -.114E-03 -.191E-03
   -.190E+01 -.269E+01 0.481E+03   0.203E+01 0.289E+01 -.482E+03   0.315E+00 0.370E+00 -.328E+00   0.317E-04 0.167E-03 -.235E-03
   -.378E+01 0.204E+01 0.476E+03   0.393E+01 -.212E+01 -.476E+03   0.185E+00 -.997E-01 -.209E+00   0.307E-03 -.386E-03 0.205E-04
   -.381E+01 -.771E+00 0.479E+03   0.406E+01 0.828E+00 -.479E+03   0.168E+00 0.123E+00 -.134E+00   -.583E-04 0.366E-03 -.633E-04
 -----------------------------------------------------------------------------------------------
   0.476E+01 0.208E+01 -.203E+00   -.355E-14 0.111E-15 -.341E-12   -.476E+01 -.207E+01 0.205E+00   -.239E-03 0.342E-04 -.142E-02
 
 
 POSITION                                       TOTAL-FORCE (eV/Angst)
 -----------------------------------------------------------------------------------
      1.40812      1.58763     19.98984         0.338790     -0.485509      0.574190
     -0.21954      4.56073     20.01007         0.178257     -0.208904      0.526275
     -1.85443      7.58350     19.96755         0.212032     -0.309469      0.839166
      4.90946      1.58392     19.99108        -0.052771     -0.532138      0.679101
      3.27071      4.59365     19.99803         0.159325     -0.529705      0.715202
      1.63549      7.58618     19.96746         0.227783     -0.486715      1.002857
      8.37160      1.62199     19.99018         0.055568     -1.060365      0.828773
      6.72299      4.59172     19.97001         0.225985     -0.531259      0.819762
      5.10486      7.57595     19.97942         0.166623     -0.178980      0.849316
      0.94234      0.38470     12.81852         0.104199     -0.516288      0.789965
     -0.70307      3.37939     12.80793         0.107586     -0.806525      1.092688
     -2.33109      6.37619     12.84278         0.068742     -0.519734      0.684731
      4.42381      0.37991     12.81828        -0.082028     -0.343077      0.924175
      2.78948      3.38412     12.82689        -0.070956     -0.487162      0.731291
      1.15141      6.36704     12.82414         0.001553     -0.548776      0.811535
      7.91014      0.38386     12.81174        -0.140794     -0.745251      1.105226
      6.28553      3.35818     12.82623        -0.215599     -0.313749      0.843494
      4.59965      6.37869     12.80767         0.251175     -0.556725      1.197169
      1.49080      1.50427     16.43259        -0.334870      0.450074     -0.941581
     -0.15143      4.49131     16.42735        -0.178539      0.305504     -0.556755
     -1.78784      7.48818     16.41218        -0.066308      0.231093     -0.557574
      4.97767      1.46932     16.40877        -0.390796      0.563571     -0.842381
      3.35622      4.49597     16.40340        -0.457932      0.235222     -0.501575
      1.71027      7.48299     16.41515        -0.328617      0.208834     -0.591418
      8.44694      1.47174     16.40487        -0.417266      0.459463     -0.681446
      6.80330      4.49076     16.40913        -0.184726      0.202208     -0.414023
      5.16987      7.45967     16.40371        -0.222886      0.634059     -0.678876
      0.99486      0.28820      9.26669        -0.177952      0.193919     -0.743026
     -0.63257      3.27848      9.26639        -0.468275      0.259568     -0.821493
     -2.28208      6.29370      9.28893        -0.189505      0.064920     -0.877439
      4.48868      0.29252      9.26838        -0.395892      0.329734     -0.733931
      2.86269      3.26686      9.25703        -0.526688      0.536027     -0.779015
      1.17953      6.27462      9.26914        -0.115292      0.282038     -0.617960
      7.97717      0.28182      9.26622        -0.695939      0.140198     -0.793516
      6.32607      3.28474      9.22778        -0.347877      0.306540     -0.276704
      4.69973      6.27582      9.26531        -0.442733      0.312237     -0.867473
      5.20227      9.52742     18.18969         0.166208     -0.091757      0.262945
      8.48275      3.49764     18.21257         0.128807      0.890183     -0.528679
      6.84338      6.53415     18.20261         0.318281      0.057308     -0.214002
     -1.73924      9.52756     18.17412         0.219515      0.152514      0.636355
      1.54609      3.53888     18.21727         0.132422      0.254853     -0.190987
     -0.08701      6.52551     18.22124        -0.146564     -0.001289     -0.372496
      1.71902      9.51382     18.19207         0.684620      0.425750      0.178492
      5.00329      3.50981     18.20473         0.243429      0.323655     -0.184984
      3.40188      6.52172     18.20653        -0.144524      0.178763     -0.198007
      1.04651      2.32802     11.03616         0.401967      0.109271      0.142476
     -0.59409      5.29776     11.05962         0.086438      0.600598     -0.300018
     -2.22101      8.31454     11.04816         0.062197      0.308874      0.026784
      4.51963      2.34887     11.05241         0.551733     -0.287336     -0.139645
      2.90516      5.33170     11.04568        -0.237753     -0.122354     -0.384154
      1.22693      8.32111     11.06566         0.683876      0.060104     -0.479787
      7.98219      2.30084     11.05103         0.456507      0.583150     -0.594700
      6.35655      5.32822     11.06363         0.370992     -0.189319     -0.196158
      4.71625      8.31148     11.04976         0.425883      0.193771     -0.201337
 -----------------------------------------------------------------------------------
    total drift:                               -0.002591      0.001613      0.000827


--------------------------------------------------------------------------------------------------------



  FREE ENERGIE OF THE ION-ELECTRON SYSTEM (eV)
  ---------------------------------------------------
  free  energy   TOTEN  =      -341.37351665 eV

  energy  without entropy=     -341.37351665  energy(sigma->0) =     -341.37351665
 
 d Force = 0.5846933E-01[ 0.545E-01, 0.625E-01]  d Energy = 0.5836608E-01 0.103E-03
 d Force = 0.3494574E+02[ 0.349E+02, 0.350E+02]  d Ewald  = 0.3494575E+02-0.478E-05


--------------------------------------------------------------------------------------------------------


    POTLOK:  cpu time    0.2396: real time    0.2398


--------------------------------------------------------------------------------------------------------


           RANDOM_SEED =         137195104              324                0
   IONSTEP:  cpu time    0.0001: real time    0.0001

  ENERGY OF THE ELECTRON-ION-THERMOSTAT SYSTEM (eV)
  ---------------------------------------------------
% ion-electron   TOTEN  =      -341.373517  see above
  kinetic energy EKIN   =         0.925902
  kin. lattice  EKIN_LAT=         0.000000  (temperature  135.15 K)
  nose potential ES     =         0.047423
  nose kinetic   EPS    =         0.012418
  ---------------------------------------------------
  total energy   ETOTAL =      -340.387774 eV

  maximum distance moved by ions :      0.50E-03


 mean value of Nose-termostat <S>:     1.053 mean value of <T> :   135.152
 mean temperature <T/S>/<1/S>  :   135.152

    WAVPRE:  cpu time    0.0871: real time    0.0904
    FEWALD:  cpu time    0.0013: real time    0.0013
    ORTHCH:  cpu time    7.4919: real time    7.5076
    POTLOK:  cpu time    0.2400: real time    0.2402
    EDDIAG:  cpu time    3.2564: real time    3.2646
     LOOP+:  cpu time  498.0827: real time  499.2147
    4ORBIT:  cpu time    0.0000: real time    0.0000

 total amount of memory used by VASP MPI-rank0   337442. kBytes
=======================================================================

   base      :      30000. kBytes
   nonl-proj :     185149. kBytes
   fftplans  :      15437. kBytes
   grid      :      73553. kBytes
   one-center:        839. kBytes
   wavefun   :      32464. kBytes
 
  
  
 General timing and accounting informations for this job:
 ========================================================
  
                  Total CPU time used (sec):     5841.128
                            User time (sec):     5826.774
                          System time (sec):       14.354
                         Elapsed time (sec):     5855.806
  
                   Maximum memory used (kb):      746320.
                   Average memory used (kb):           0.
  
                          Minor page faults:       434345
                          Major page faults:            0
                 Voluntary context switches:        14539
