 vasp.6.1.1 19Jun20 (build Dec 21 2021 08:45:49) complex                        
  
 executed on             LinuxIFC date 2023.09.30  10:37:14
 running on   40 total cores
 distrk:  each k-point on   40 cores,    1 groups
 distr:  one band on NCORE=   1 cores,   40 groups


--------------------------------------------------------------------------------------------------------


 INCAR:
 POTCAR:   PAW_PBE Te 08Apr2002                   
 POTCAR:   PAW_PBE Mo 08Apr2002                   
 -----------------------------------------------------------------------------
|                                                                             |
|           W    W    AA    RRRRR   N    N  II  N    N   GGGG   !!!           |
|           W    W   A  A   R    R  NN   N  II  NN   N  G    G  !!!           |
|           W    W  A    A  R    R  N N  N  II  N N  N  G       !!!           |
|           W WW W  AAAAAA  RRRRR   N  N N  II  N  N N  G  GGG   !            |
|           WW  WW  A    A  R   R   N   NN  II  N   NN  G    G                |
|           W    W  A    A  R    R  N    N  II  N    N   GGGG   !!!           |
|                                                                             |
|     For optimal performance we recommend to set                             |
|       NCORE = 4 - approx SQRT(number of cores).                             |
|     NCORE specifies how many cores store one orbital (NPAR=cpu/NCORE).      |
|     This setting can greatly improve the performance of VASP for DFT.       |
|     The default, NCORE=1 might be grossly inefficient on modern             |
|     multi-core architectures or massively parallel machines. Do your        |
|     own testing!!!!                                                         |
|     Unfortunately you need to use the default for GW and RPA                |
|     calculations (for HF NCORE is supported but not extensively tested      |
|     yet).                                                                   |
|                                                                             |
 -----------------------------------------------------------------------------

 POTCAR:   PAW_PBE Te 08Apr2002                   
   VRHFIN =Te: s2p4                                                                                 
   LEXCH  = PE                                                                                      
   EATOM  =   223.2721 eV,   16.4100 Ry                                                             
                                                                                                    
   TITEL  = PAW_PBE Te 08Apr2002                                                                    
   LULTRA =        F    use ultrasoft PP ?                                                          
   IUNSCR =        1    unscreen: 0-lin 1-nonlin 2-no                                               
   RPACOR =    2.200    partial core radius                                                         
   POMASS =  127.600; ZVAL   =    6.000    mass and valenz                                          
   RCORE  =    2.300    outmost cutoff radius                                                       
   RWIGS  =    2.900; RWIGS  =    1.535    wigner-seitz radius (au A)                               
   ENMAX  =  174.982; ENMIN  =  131.236 eV                                                          
   ICORE  =        3    local potential                                                             
   LCOR   =        T    correct aug charges                                                         
   LPAW   =        T    paw PP                                                                      
   EAUG   =  368.792                                                                                
   DEXC   =    -.169                                                                                
   RMAX   =    3.486    core radius for proj-oper                                                   
   RAUG   =    1.300    factor for augmentation sphere                                              
   RDEP   =    2.397    radius for radial grids                                                     
   QCUT   =   -3.586; QGAM   =    7.172    optimization parameters                                  
                                                                                                    
   Description                                                                                      
     l     E      TYP  RCUT    TYP  RCUT                                                            
     0   .000     23  2.300                                                                         
     0   .000     23  2.300                                                                         
     1   .000     23  2.300                                                                         
     1   .000     23  2.300                                                                         
     2   .000     23  2.300                                                                         
     3  -.100     23  2.300                                                                         
  local pseudopotential read in
  partial core-charges read in
  atomic valenz-charges read in
  non local Contribution for L=           0  read in
    real space projection operators read in
  non local Contribution for L=           0  read in
    real space projection operators read in
  non local Contribution for L=           1  read in
    real space projection operators read in
  non local Contribution for L=           1  read in
    real space projection operators read in
  non local Contribution for L=           2  read in
    real space projection operators read in
    PAW grid and wavefunctions read in
 
   number of l-projection  operators is LMAX  =           5
   number of lm-projection operators is LMMAX =          13
 
 POTCAR:   PAW_PBE Mo 08Apr2002                   
   VRHFIN =Mo: 4p5s4d                                                                               
   LEXCH  = PE                                                                                      
   EATOM  =   217.5180 eV,   15.9871 Ry                                                             
                                                                                                    
   TITEL  = PAW_PBE Mo 08Apr2002                                                                    
   LULTRA =        F    use ultrasoft PP ?                                                          
   IUNSCR =        1    unscreen: 0-lin 1-nonlin 2-no                                               
   RPACOR =    2.200    partial core radius                                                         
   POMASS =   95.940; ZVAL   =    6.000    mass and valenz                                          
   RCORE  =    2.750    outmost cutoff radius                                                       
   RWIGS  =    2.750; RWIGS  =    1.455    wigner-seitz radius (au A)                               
   ENMAX  =  224.584; ENMIN  =  168.438 eV                                                          
   RCLOC  =    2.111    cutoff for local pot                                                        
   LCOR   =        T    correct aug charges                                                         
   LPAW   =        T    paw PP                                                                      
   EAUG   =  345.278                                                                                
   DEXC   =    -.088                                                                                
   RMAX   =    3.077    core radius for proj-oper                                                   
   RAUG   =    1.300    factor for augmentation sphere                                              
   RDEP   =    2.815    radius for radial grids                                                     
   QCUT   =   -4.063; QGAM   =    8.126    optimization parameters                                  
                                                                                                    
   Description                                                                                      
     l     E      TYP  RCUT    TYP  RCUT                                                            
     2   .000     23  2.500                                                                         
     2   .000     23  2.500                                                                         
     0   .000     23  2.600                                                                         
     0  1.000     23  2.600                                                                         
     1   .400     23  2.750                                                                         
     1  2.000     23  2.750                                                                         
     3   .000      7   .000                                                                         
  local pseudopotential read in
  partial core-charges read in
  atomic valenz-charges read in
  non local Contribution for L=           2  read in
    real space projection operators read in
  non local Contribution for L=           2  read in
    real space projection operators read in
  non local Contribution for L=           0  read in
    real space projection operators read in
  non local Contribution for L=           0  read in
    real space projection operators read in
  non local Contribution for L=           1  read in
    real space projection operators read in
  non local Contribution for L=           1  read in
    real space projection operators read in
    PAW grid and wavefunctions read in
 
   number of l-projection  operators is LMAX  =           6
   number of lm-projection operators is LMMAX =          18
 
 -----------------------------------------------------------------------------
|                                                                             |
|               ----> ADVICE to this user running VASP <----                  |
|                                                                             |
|     You have a (more or less) 'large supercell' and for larger cells it     |
|     might be more efficient to use real-space projection operators.         |
|     Therefore, try LREAL= Auto in the INCAR file.                           |
|     Mind: If you want to do very accurate calculations, keep the            |
|     reciprocal projection scheme (i.e. LREAL=.FALSE.).                      |
|                                                                             |
 -----------------------------------------------------------------------------

 PAW_PBE Te 08Apr2002                   :
 energy of atom  1       EATOM= -223.2721
 kinetic energy error for atom=    0.0006 (will be added to EATOM!!)
 PAW_PBE Mo 08Apr2002                   :
 energy of atom  2       EATOM= -217.5180
 kinetic energy error for atom=    0.0009 (will be added to EATOM!!)
 
 
 POSCAR: Te Mo
  positions in cartesian coordinates
  No initial velocities read in
 exchange correlation table for  LEXCH =        8
   RHO(1)=    0.500       N(1)  =     2000
   RHO(2)=  100.500       N(2)  =     4000
 


--------------------------------------------------------------------------------------------------------


 ion  position               nearest neighbor table
   1  0.223  0.111  0.683-  37 2.70  40 2.75  41 2.79   4 3.50   7 3.50   2 3.58   3 3.59   9 3.61
                             5 3.62  19 3.63
   2  0.223  0.444  0.683-  38 2.70  41 2.73  42 2.80   5 3.50   8 3.51   1 3.58   3 3.59   7 3.61
                             6 3.61  20 3.62
   3  0.222  0.778  0.683-  39 2.70  42 2.75  40 2.81   6 3.50   9 3.50   1 3.59   2 3.59   4 3.61
                             8 3.61  21 3.64
   4  0.555  0.111  0.683-  40 2.68  43 2.75  44 2.80   1 3.50   7 3.51   6 3.59   5 3.59   3 3.61
                             8 3.61  22 3.63
   5  0.556  0.445  0.683-  41 2.70  44 2.74  45 2.79   8 3.50   2 3.50   4 3.59   6 3.59   9 3.61
                             1 3.62  23 3.62
   6  0.556  0.778  0.683-  42 2.70  45 2.75  43 2.79   3 3.50   9 3.50   4 3.59   5 3.59   2 3.61
                             7 3.62  24 3.63
   7  0.890  0.112  0.683-  43 2.70  37 2.74  38 2.80   1 3.50   4 3.51   8 3.59   9 3.59   2 3.61
                             6 3.62  25 3.63
   8  0.889  0.444  0.683-  44 2.69  38 2.74  39 2.80   5 3.50   2 3.51   7 3.59   9 3.59   4 3.61
                             3 3.61  26 3.63
   9  0.889  0.778  0.683-  45 2.68  39 2.75  37 2.80   6 3.50   3 3.50   8 3.59   7 3.59   5 3.61
                             1 3.61  27 3.63
  10  0.111  0.111  0.438-  52 2.69  46 2.74  47 2.79  16 3.50  13 3.50  12 3.59  11 3.59  18 3.61
                            28 3.62  14 3.62
  11  0.111  0.445  0.438-  53 2.70  47 2.75  48 2.80  17 3.49  14 3.51  12 3.58  10 3.59  15 3.61
                            16 3.61  29 3.63
  12  0.111  0.777  0.438-  54 2.69  48 2.75  46 2.81  18 3.50  15 3.50  11 3.58  10 3.59  17 3.60
                            13 3.61  30 3.63
  13  0.444  0.111  0.438-  46 2.69  49 2.74  50 2.80  10 3.50  16 3.51  15 3.59  14 3.59  12 3.61
                            17 3.62  31 3.63
  14  0.445  0.445  0.438-  47 2.70  50 2.75  51 2.80  11 3.51  17 3.51  15 3.59  13 3.59  18 3.61
                            10 3.62  32 3.63
  15  0.444  0.778  0.438-  48 2.69  51 2.75  49 2.80  12 3.50  18 3.51  13 3.59  14 3.59  16 3.61
                            11 3.61  33 3.63
  16  0.778  0.111  0.438-  49 2.69  52 2.74  53 2.80  10 3.50  13 3.51  18 3.59  17 3.59  15 3.61
                            11 3.61  34 3.63
  17  0.779  0.445  0.438-  50 2.69  53 2.74  54 2.79  11 3.49  14 3.51  18 3.59  16 3.59  12 3.60
                            35 3.62  13 3.62
  18  0.778  0.778  0.438-  51 2.69  54 2.74  52 2.80  12 3.50  15 3.51  17 3.59  16 3.59  14 3.61
                            10 3.61  36 3.63
  19  0.222  0.111  0.562-  40 2.71  41 2.75  37 2.78  25 3.50  22 3.50  21 3.59  20 3.59  27 3.61
                            23 3.61   1 3.63
  20  0.222  0.445  0.562-  41 2.71  42 2.74  38 2.78  23 3.50  26 3.51  21 3.59  19 3.59  24 3.61
                            25 3.61   2 3.62
  21  0.223  0.778  0.562-  42 2.70  40 2.75  39 2.78  24 3.50  27 3.50  19 3.59  20 3.59  22 3.61
                            26 3.61   3 3.64
  22  0.556  0.111  0.562-  43 2.71  44 2.75  40 2.77  25 3.50  19 3.50  24 3.59  23 3.59  21 3.61
                            26 3.61   4 3.63
  23  0.556  0.444  0.562-  44 2.71  45 2.75  41 2.79  26 3.50  20 3.50  22 3.59  24 3.59  27 3.61
                            19 3.61   5 3.62
  24  0.556  0.778  0.562-  45 2.71  43 2.74  42 2.78  21 3.50  27 3.51  22 3.59  23 3.59  25 3.61
                            20 3.61   6 3.63
  25  0.889  0.111  0.562-  37 2.71  38 2.75  43 2.78  22 3.50  19 3.50  26 3.59  27 3.60  24 3.61
                            20 3.61   7 3.63
  26  0.889  0.445  0.562-  38 2.70  39 2.74  44 2.78  23 3.50  20 3.51  27 3.58  25 3.59  22 3.61
                            21 3.61   8 3.63
  27  0.889  0.777  0.562-  39 2.70  37 2.75  45 2.78  21 3.50  24 3.51  26 3.58  25 3.60  23 3.61
                            19 3.61   9 3.63
  28  0.111  0.111  0.317-  46 2.70  47 2.74  52 2.78  31 3.50  34 3.50  30 3.59  29 3.59  36 3.61
                            10 3.62  32 3.62
  29  0.111  0.444  0.317-  47 2.71  48 2.75  53 2.78  35 3.50  32 3.51  30 3.59  28 3.59  33 3.61
                            34 3.61  11 3.63
  30  0.112  0.778  0.317-  48 2.71  46 2.75  54 2.79  33 3.49  36 3.51  29 3.59  28 3.59  31 3.61
                            35 3.61  12 3.63
  31  0.444  0.111  0.317-  49 2.71  50 2.75  46 2.78  28 3.50  34 3.51  32 3.59  33 3.59  30 3.61
                            35 3.62  13 3.63
  32  0.445  0.445  0.317-  50 2.71  51 2.75  47 2.79  35 3.50  29 3.51  31 3.59  33 3.59  36 3.61
                            28 3.62  14 3.63
  33  0.444  0.778  0.317-  51 2.71  49 2.75  48 2.77  30 3.49  36 3.51  31 3.59  32 3.59  34 3.61
                            29 3.61  15 3.63
  34  0.778  0.111  0.317-  52 2.70  53 2.75  49 2.78  28 3.50  31 3.51  36 3.58  35 3.60  33 3.61
                            29 3.61  16 3.63
  35  0.778  0.445  0.317-  53 2.70  54 2.74  50 2.78  29 3.50  32 3.50  36 3.59  34 3.60  30 3.61
                            31 3.62  17 3.62
  36  0.778  0.778  0.317-  54 2.72  52 2.75  51 2.77  33 3.51  30 3.51  34 3.58  35 3.59  32 3.61
                            28 3.61  18 3.63
  37  1.000  1.000  0.622-   1 2.70  25 2.71   7 2.74  27 2.75  19 2.78   9 2.80
  38  1.000  0.333  0.622-   2 2.70  26 2.70   8 2.74  25 2.75  20 2.78   7 2.80
  39  0.000  0.667  0.622-  27 2.70   3 2.70  26 2.74   9 2.75  21 2.78   8 2.80
  40  0.334  0.000  0.622-   4 2.68  19 2.71   1 2.75  21 2.75  22 2.77   3 2.81
  41  0.333  0.333  0.622-   5 2.70  20 2.71   2 2.73  19 2.75  23 2.79   1 2.79
  42  0.333  0.666  0.622-   6 2.70  21 2.70  20 2.74   3 2.75  24 2.78   2 2.80
  43  0.667  1.000  0.622-   7 2.70  22 2.71  24 2.74   4 2.75  25 2.78   6 2.79
  44  0.667  0.333  0.622-   8 2.69  23 2.71   5 2.74  22 2.75  26 2.78   4 2.80
  45  0.667  0.667  0.623-   9 2.68  24 2.71   6 2.75  23 2.75  27 2.78   5 2.79
  46  0.222  0.000  0.378-  13 2.69  28 2.70  10 2.74  30 2.75  31 2.78  12 2.81
  47  0.222  0.333  0.378-  14 2.70  29 2.71  28 2.74  11 2.75  32 2.79  10 2.79
  48  0.223  0.667  0.378-  15 2.69  30 2.71  12 2.75  29 2.75  33 2.77  11 2.80
  49  0.556  0.001  0.378-  16 2.69  31 2.71  13 2.74  33 2.75  34 2.78  15 2.80
  50  0.556  0.334  0.378-  17 2.69  32 2.71  14 2.75  31 2.75  35 2.78  13 2.80
  51  0.556  0.667  0.378-  18 2.69  33 2.71  32 2.75  15 2.75  36 2.77  14 2.80
  52  0.888  0.000  0.378-  10 2.69  34 2.70  16 2.74  36 2.75  28 2.78  18 2.80
  53  0.889  0.334  0.377-  11 2.70  35 2.70  17 2.74  34 2.75  29 2.78  16 2.80
  54  0.889  0.666  0.378-  12 2.69  36 2.72  35 2.74  18 2.74  17 2.79  30 2.79
 

IMPORTANT INFORMATION: All symmetrisations will be switched off!
NOSYMM: (Re-)initialisation of all symmetry stuff for point group C_1.


----------------------------------------------------------------------------------------

                                     Primitive cell                                     

  volume of cell :    2974.1400

  direct lattice vectors                    reciprocal lattice vectors
    10.507946538  0.000000000  0.000000000     0.095166072  0.052235261  0.003486120
    -5.180734767  9.438646893  0.000000000     0.000000000  0.105947390  0.001945580
    -0.796229109 -0.550671446 29.987055239     0.000000000  0.000000000  0.033347723

  length of vectors
    10.507946538 10.766989733 30.002678243     0.108615178  0.105965252  0.033347723

  position of ions in fractional coordinates (direct lattice)
     0.222553087  0.111188639  0.682838161
     0.222872431  0.444287004  0.682644744
     0.222341560  0.777690903  0.683013195
     0.555284799  0.111008281  0.682709629
     0.556269720  0.444660519  0.682639579
     0.555630179  0.778106861  0.682772288
     0.889540413  0.111597953  0.682972027
     0.888752773  0.444356927  0.682806377
     0.888889957  0.777782224  0.682785627
     0.110813702  0.111162611  0.437830833
     0.110657690  0.444925928  0.438269801
     0.110538051  0.777483125  0.438200068
     0.443920929  0.111063918  0.438057659
     0.444719999  0.445244799  0.438102857
     0.444121290  0.778179791  0.438185661
     0.777769320  0.111098328  0.438104621
     0.778552698  0.445032073  0.437925460
     0.777707052  0.777614988  0.438131893
     0.222074833  0.110946910  0.561855156
     0.222402756  0.444515281  0.561849911
     0.222631528  0.777949418  0.561824846
     0.555703256  0.111092664  0.561876462
     0.555545032  0.444353382  0.561904699
     0.555641977  0.777802736  0.561949014
     0.888855721  0.111077904  0.561875584
     0.888867652  0.444640057  0.561939221
     0.888994821  0.777222978  0.561921455
     0.111354687  0.111190013  0.317333030
     0.110911377  0.444380640  0.317164230
     0.111846717  0.778067727  0.317189155
     0.444296885  0.111344211  0.317177501
     0.445088090  0.444819304  0.317094181
     0.443967490  0.778012140  0.317288561
     0.777731033  0.110658001  0.317103979
     0.778361885  0.445049659  0.317305300
     0.777624460  0.778017859  0.317082732
     0.999804777  0.999967641  0.622337575
     0.999651769  0.333398151  0.622252507
     0.000125820  0.666600303  0.622043060
     0.334212805  0.000463111  0.622246725
     0.332744160  0.332859750  0.622444460
     0.333070943  0.666381963  0.622143392
     0.666732128  0.999508273  0.622369769
     0.666669454  0.333334164  0.622350027
     0.667454968  0.666749859  0.622511172
     0.221722795  0.000358709  0.377551345
     0.221792038  0.333323654  0.377635852
     0.222761332  0.666837966  0.377701432
     0.556203062  0.000543091  0.377737741
     0.555696487  0.333503500  0.377707142
     0.556092867  0.666945902  0.377510696
     0.888416832  0.000348246  0.377550136
     0.888742768  0.333648505  0.377432340
     0.888650762  0.666326546  0.377743069

  ion indices of the primitive-cell ions
   primitive index   ion index
                 1           1
                 2           2
                 3           3
                 4           4
                 5           5
                 6           6
                 7           7
                 8           8
                 9           9
                10          10
                11          11
                12          12
                13          13
                14          14
                15          15
                16          16
                17          17
                18          18
                19          19
                20          20
                21          21
                22          22
                23          23
                24          24
                25          25
                26          26
                27          27
                28          28
                29          29
                30          30
                31          31
                32          32
                33          33
                34          34
                35          35
                36          36
                37          37
                38          38
                39          39
                40          40
                41          41
                42          42
                43          43
                44          44
                45          45
                46          46
                47          47
                48          48
                49          49
                50          50
                51          51
                52          52
                53          53
                54          54

----------------------------------------------------------------------------------------

 
 

Automatic generation of k-mesh.
 generate k-points for:    3    3    1
Space group operators:
 irot       det(A)        alpha          n_x          n_y          n_z        tau_x        tau_y        tau_z
    1     1.000000     0.000000     1.000000     0.000000     0.000000     0.000000     0.000000     0.000000
 
 Subroutine IBZKPT returns following result:
 ===========================================
 
 Found      5 irreducible k-points:
 
 Following reciprocal coordinates:
            Coordinates               Weight
  0.000000  0.000000  0.000000      1.000000
  0.333333  0.000000 -0.000000      2.000000
  0.000000  0.333333  0.000000      2.000000
  0.333333  0.333333  0.000000      2.000000
 -0.333333  0.333333  0.000000      2.000000
 
 Following cartesian coordinates:
            Coordinates               Weight
  0.000000  0.000000  0.000000      1.000000
  0.031722  0.017412  0.001162      2.000000
  0.000000  0.035316  0.000649      2.000000
  0.031722  0.052728  0.001811      2.000000
 -0.031722  0.017904 -0.000514      2.000000
 


--------------------------------------------------------------------------------------------------------




 Dimension of arrays:
   k-points           NKPTS =      5   k-points in BZ     NKDIM =      5   number of bands    NBANDS=    200
   number of dos      NEDOS =    301   number of ions     NIONS =     54
   non local maximal  LDIM  =      6   non local SUM 2l+1 LMDIM =     18
   total plane-waves  NPLWV = ******
   max r-space proj   IRMAX =      1   max aug-charges    IRDMAX=  35012
   dimension x,y,z NGX =    80 NGY =   84 NGZ =  240
   dimension x,y,z NGXF=   160 NGYF=  168 NGZF=  480
   support grid    NGXF=   160 NGYF=  168 NGZF=  480
   ions per type =              36  18
   NGX,Y,Z   is equivalent  to a cutoff of  12.66, 12.97, 13.30 a.u.
   NGXF,Y,Z  is equivalent  to a cutoff of  25.31, 25.94, 26.60 a.u.

 SYSTEM =  dpgen_md                                
 POSCAR =  Te Mo                                   

 Startparameter for this run:
   NWRITE =      2    write-flag & timer
   PREC   = a         normal or accurate (medium, high low for compatibility)
   ISTART =      0    job   : 0-new  1-cont  2-samecut
   ICHARG =      2    charge: 1-file 2-atom 10-const
   ISPIN  =      1    spin polarized calculation?
   LNONCOLLINEAR =      F non collinear calculations
   LSORBIT =      F    spin-orbit coupling
   INIWAV =      1    electr: 0-lowe 1-rand  2-diag
   LASPH  =      F    aspherical Exc in radial PAW
   METAGGA=      F    non-selfconsistent MetaGGA calc.

 Electronic Relaxation 1
   ENCUT  =  550.0 eV  40.42 Ry    6.36 a.u.  20.09 20.59 57.37*2*pi/ulx,y,z
   ENINI  =  550.0     initial cutoff
   ENAUG  =  368.8 eV  augmentation charge cutoff
   NELM   =    100;   NELMIN=  6; NELMDL= -5     # of ELM steps 
   EDIFF  = 0.1E-05   stopping-criterion for ELM
   LREAL  =      F    real-space projection
   NLSPLINE    = F    spline interpolate recip. space projectors
   LCOMPAT=      F    compatible to vasp.4.4
   GGA_COMPAT  = T    GGA compatible to vasp.4.4-vasp.4.6
   LMAXPAW     = -100 max onsite density
   LMAXMIX     =    2 max onsite mixed and CHGCAR
   VOSKOWN=      0    Vosko Wilk Nusair interpolation
   ROPT   =    0.00000   0.00000
 Ionic relaxation
   EDIFFG = 0.1E-04   stopping-criterion for IOM
   NSW    =     10    number of steps for IOM
   NBLOCK =      1;   KBLOCK =      1    inner block; outer block 
   IBRION =      0    ionic relax: 0-MD 1-quasi-New 2-CG
   NFREE  =      0    steps in history (QN), initial steepest desc. (CG)
   ISIF   =      2    stress and relaxation
   IWAVPR =     11    prediction:  0-non 1-charg 2-wave 3-comb
   ISYM   =      0    0-nonsym 1-usesym 2-fastsym
   LCORR  =      T    Harris-Foulkes like correction to forces

   POTIM  = 2.0000    time-step for ionic-motion
   TEIN   =  100.0    initial temperature
   TEBEG  =  100.0;   TEEND  = 100.0 temperature during run
   SMASS  =   0.04    Nose mass-parameter (am)
   estimated Nose-frequenzy (Omega)   =  0.79E+14 period in steps = 0.40E+02 mass=   0.327E-28a.u.
   SCALEE = 1.0000    scale energy and forces
   NPACO  =    256;   APACO  = 16.0  distance and # of slots for P.C.
   PSTRESS=    0.0 pullay stress

  Mass of Ions in am
   POMASS = 127.60 95.94
  Ionic Valenz
   ZVAL   =   6.00  6.00
  Atomic Wigner-Seitz radii
   RWIGS  =  -1.00 -1.00
  virtual crystal weights 
   VCA    =   1.00  1.00
   NELECT =     324.0000    total number of electrons
   NUPDOWN=      -1.0000    fix difference up-down

 DOS related values:
   EMIN   =  10.00;   EMAX   =-10.00  energy-range for DOS
   EFERMI =   0.00
   ISMEAR =     0;   SIGMA  =   0.10  broadening in eV -4-tet -1-fermi 0-gaus

 Electronic relaxation 2 (details)
   IALGO  =     68    algorithm
   LDIAG  =      T    sub-space diagonalisation (order eigenvalues)
   LSUBROT=      F    optimize rotation matrix (better conditioning)
   TURBO    =      0    0=normal 1=particle mesh
   IRESTART =      0    0=no restart 2=restart with 2 vectors
   NREBOOT  =      0    no. of reboots
   NMIN     =      0    reboot dimension
   EREF     =   0.00    reference energy to select bands
   IMIX   =      4    mixing-type and parameters
     AMIX     =   0.40;   BMIX     =  1.00
     AMIX_MAG =   1.60;   BMIX_MAG =  1.00
     AMIN     =   0.10
     WC   =   100.;   INIMIX=   1;  MIXPRE=   1;  MAXMIX= -45

 Intra band minimization:
   WEIMIN = 0.0010     energy-eigenvalue tresh-hold
   EBREAK =  0.13E-08  absolut break condition
   DEPER  =   0.30     relativ break condition  

   TIME   =   0.40     timestep for ELM

  volume/ion in A,a.u.               =      55.08       371.68
  Fermi-wavevector in a.u.,A,eV,Ry     =   0.781873  1.477525  8.317580  0.611325
  Thomas-Fermi vector in A             =   1.885480
 
 Write flags
   LWAVE        =      F    write WAVECAR
   LDOWNSAMPLE  =      F    k-point downsampling of WAVECAR
   LCHARG       =      F    write CHGCAR
   LVTOT        =      F    write LOCPOT, total local potential
   LVHAR        =      F    write LOCPOT, Hartree potential only
   LELF         =      F    write electronic localiz. function (ELF)
   LORBIT       =      0    0 simple, 1 ext, 2 COOP (PROOUT), +10 PAW based schemes


 Dipole corrections
   LMONO  =      F    monopole corrections only (constant potential shift)
   LDIPOL =      F    correct potential (dipole corrections)
   IDIPOL =      0    1-x, 2-y, 3-z, 4-all directions 
   EPSILON=  1.0000000 bulk dielectric constant

 Exchange correlation treatment:
   GGA     =    --    GGA type
   LEXCH   =     8    internal setting for exchange type
   VOSKOWN=      0    Vosko Wilk Nusair interpolation
   LHFCALC =     F    Hartree Fock is set to
   LHFONE  =     F    Hartree Fock one center treatment
   AEXX    =    0.0000 exact exchange contribution

 Linear response parameters
   LEPSILON=     F    determine dielectric tensor
   LRPA    =     F    only Hartree local field effects (RPA)
   LNABLA  =     F    use nabla operator in PAW spheres
   LVEL    =     F    velocity operator in full k-point grid
   LINTERFAST=   F  fast interpolation
   KINTER  =     0    interpolate to denser k-point grid
   CSHIFT  =0.1000    complex shift for real part using Kramers Kronig
   OMEGAMAX=  -1.0    maximum frequency
   DEG_THRESHOLD= 0.2000000E-02 threshold for treating states as degnerate
   RTIME   =   -0.100 relaxation time in fs
  (WPLASMAI=    0.000 imaginary part of plasma frequency in eV, 0.658/RTIME)
   DFIELD  = 0.0000000 0.0000000 0.0000000 field for delta impulse in time
 
 Orbital magnetization related:
   ORBITALMAG=     F  switch on orbital magnetization
   LCHIMAG   =     F  perturbation theory with respect to B field
   DQ        =  0.001000  dq finite difference perturbation B field
   LLRAUG    =     F  two centre corrections for induced B field



--------------------------------------------------------------------------------------------------------


 molecular dynamics for ions
   using nose mass (canonical ensemble)
 charge density and potential will be updated during run
 non-spin polarized calculation
 RMM-DIIS sequential band-by-band and
  variant of blocked Davidson during initial phase
 perform sub-space diagonalisation
    before iterative eigenvector-optimisation
 modified Broyden-mixing scheme, WC =      100.0
 initial mixing is a Kerker type mixing with AMIX =  0.4000 and BMIX =      1.0000
 Hartree-type preconditioning will be used
 using additional bands           38
 reciprocal scheme for non local part
 use partial core corrections
 calculate Harris-corrections to forces 
   (improved forces if not selfconsistent)
 use gradient corrections 
 use of overlap-Matrix (Vanderbilt PP)
 Gauss-broadening in eV      SIGMA  =   0.10


--------------------------------------------------------------------------------------------------------


  energy-cutoff  :      550.00
  volume of cell :     2974.14
      direct lattice vectors                 reciprocal lattice vectors
    10.507946538  0.000000000  0.000000000     0.095166072  0.052235261  0.003486120
    -5.180734767  9.438646893  0.000000000     0.000000000  0.105947390  0.001945580
    -0.796229109 -0.550671446 29.987055239     0.000000000  0.000000000  0.033347723

  length of vectors
    10.507946538 10.766989733 30.002678243     0.108615178  0.105965252  0.033347723


 
 k-points in units of 2pi/SCALE and weight: read from INCAR                         
   0.00000000  0.00000000  0.00000000       0.111
   0.03172202  0.01741175  0.00116204       0.222
   0.00000000  0.03531580  0.00064853       0.222
   0.03172202  0.05272755  0.00181057       0.222
  -0.03172202  0.01790404 -0.00051351       0.222
 
 k-points in reciprocal lattice and weights: read from INCAR                         
   0.00000000  0.00000000  0.00000000       0.111
   0.33333333  0.00000000 -0.00000000       0.222
   0.00000000  0.33333333  0.00000000       0.222
   0.33333333  0.33333333  0.00000000       0.222
  -0.33333333  0.33333333  0.00000000       0.222
 
 position of ions in fractional coordinates (direct lattice) 
   0.22255309  0.11118864  0.68283816
   0.22287243  0.44428700  0.68264474
   0.22234156  0.77769090  0.68301319
   0.55528480  0.11100828  0.68270963
   0.55626972  0.44466052  0.68263958
   0.55563018  0.77810686  0.68277229
   0.88954041  0.11159795  0.68297203
   0.88875277  0.44435693  0.68280638
   0.88888996  0.77778222  0.68278563
   0.11081370  0.11116261  0.43783083
   0.11065769  0.44492593  0.43826980
   0.11053805  0.77748313  0.43820007
   0.44392093  0.11106392  0.43805766
   0.44472000  0.44524480  0.43810286
   0.44412129  0.77817979  0.43818566
   0.77776932  0.11109833  0.43810462
   0.77855270  0.44503207  0.43792546
   0.77770705  0.77761499  0.43813189
   0.22207483  0.11094691  0.56185516
   0.22240276  0.44451528  0.56184991
   0.22263153  0.77794942  0.56182485
   0.55570326  0.11109266  0.56187646
   0.55554503  0.44435338  0.56190470
   0.55564198  0.77780274  0.56194901
   0.88885572  0.11107790  0.56187558
   0.88886765  0.44464006  0.56193922
   0.88899482  0.77722298  0.56192145
   0.11135469  0.11119001  0.31733303
   0.11091138  0.44438064  0.31716423
   0.11184672  0.77806773  0.31718915
   0.44429688  0.11134421  0.31717750
   0.44508809  0.44481930  0.31709418
   0.44396749  0.77801214  0.31728856
   0.77773103  0.11065800  0.31710398
   0.77836188  0.44504966  0.31730530
   0.77762446  0.77801786  0.31708273
   0.99980478  0.99996764  0.62233757
   0.99965177  0.33339815  0.62225251
   0.00012582  0.66660030  0.62204306
   0.33421281  0.00046311  0.62224673
   0.33274416  0.33285975  0.62244446
   0.33307094  0.66638196  0.62214339
   0.66673213  0.99950827  0.62236977
   0.66666945  0.33333416  0.62235003
   0.66745497  0.66674986  0.62251117
   0.22172280  0.00035871  0.37755134
   0.22179204  0.33332365  0.37763585
   0.22276133  0.66683797  0.37770143
   0.55620306  0.00054309  0.37773774
   0.55569649  0.33350350  0.37770714
   0.55609287  0.66694590  0.37751070
   0.88841683  0.00034825  0.37755014
   0.88874277  0.33364850  0.37743234
   0.88865076  0.66632655  0.37774307
 
 position of ions in cartesian coordinates  (Angst):
   1.21884147  0.67345083 20.47630564
  -0.50334315  3.81755518 20.47050564
  -2.23649206  6.96423397 20.48155440
   4.71620524  0.67181927 20.47245136
   2.99804677  3.82108350 20.47035075
   1.26372378  6.96829270 20.47433032
   8.22528150  0.67724048 20.48031990
   6.49320093  3.81812615 20.47535256
   4.76727095  6.96522122 20.47473031
   0.23990680  0.80812370 13.12925736
  -1.49122131  3.95815606 13.14242072
  -3.21531358  7.09708442 13.14032964
   3.74051043  0.80706726 13.13605922
   2.01756851  3.96125771 13.13741459
   0.28636349  7.10366794 13.13989764
   7.24835582  0.80736618 13.13746747
   5.52670800  3.95934755 13.13209496
   3.79463376  7.09836656 13.13828528
   1.31139853  0.73779112 16.84838159
  -0.41328075  3.88622807 16.84822433
  -2.13829070  7.03340896 16.84747268
   4.81637609  0.73915510 16.84902052
   3.08815560  3.88466980 16.84986724
   1.36162635  7.03195610 16.85119612
   8.31720154  0.73901627 16.84899417
   6.58917920  3.88735661 16.85090245
   4.86750573  7.02649915 16.85036970
   0.34139334  0.87473703  9.51588311
  -1.38930281  4.01969866  9.51082129
  -3.10823844  7.16923953  9.51156870
   3.83925713  0.87627810  9.51121925
   2.11999141  4.02387763  9.50872072
   0.38187772  7.16866011  9.51454962
   7.34657894  0.86984169  9.50901454
   5.62065312  4.02593561  9.51505157
   3.88806157  7.16882744  9.50837741
   4.82980473  9.09563794 18.66207123
   8.28158440  2.80417073 18.65952029
  -3.94744605  5.94926353 18.65323961
   3.01404008 -0.33828236 18.65934692
   1.27639137  2.79898326 18.66527641
  -0.44782522  5.94714744 18.65624826
   1.33224937  9.09128440 18.66303665
   4.78287788  2.80351308 18.66244463
   3.06366543  5.95041736 18.66727691
   2.02737553 -0.20452102 11.32165303
   0.30303278  2.93817099 11.32418716
  -1.41468334  6.08605870 11.32615372
   5.54097264 -0.20288335 11.32724249
   3.81069438  2.93982924 11.32632493
   2.08753929  6.08718251 11.32043409
   9.03301600 -0.20461911 11.32161679
   7.30979447  2.94134921 11.31808442
   5.58506356  6.08120866 11.32740229
 


--------------------------------------------------------------------------------------------------------


 k-point   1 :   0.0000 0.0000 0.0000  plane waves:   87099
 k-point   2 :   0.3333 0.0000-0.0000  plane waves:   87161
 k-point   3 :   0.0000 0.3333 0.0000  plane waves:   87061
 k-point   4 :   0.3333 0.3333 0.0000  plane waves:   87092
 k-point   5 :  -0.3333 0.3333 0.0000  plane waves:   87130

 maximum and minimum number of plane-waves per node :     87161    87061

 maximum number of plane-waves:     87161
 maximum index in each direction: 
   IXMAX=   20   IYMAX=   20   IZMAX=   57
   IXMIN=  -20   IYMIN=  -20   IZMIN=  -57


 serial   3D FFT for wavefunctions
 parallel 3D FFT for charge:
    minimum data exchange during FFTs selected (reduces bandwidth)


 total amount of memory used by VASP MPI-rank0   367065. kBytes
=======================================================================

   base      :      30000. kBytes
   nonl-proj :     200908. kBytes
   fftplans  :      17372. kBytes
   grid      :      82746. kBytes
   one-center:        839. kBytes
   wavefun   :      35200. kBytes
 
     INWAV:  cpu time    0.0000: real time    0.0000
 Broyden mixing: mesh for mixing (old mesh)
   NGX = 41   NGY = 41   NGZ =115
  (NGX  =160   NGY  =168   NGZ  =480)
  gives a total of 193315 points

 initial charge density was supplied:
 charge density of overlapping atoms calculated
 number of electron     324.0000000 magnetization 
 keeping initial charge density in first step


--------------------------------------------------------------------------------------------------------


 Maximum index for augmentation-charges         1189 (set IRDMAX)


--------------------------------------------------------------------------------------------------------


 First call to EWALD:  gamma=   0.123
 Maximum number of real-space cells 4x 4x 2
 Maximum number of reciprocal cells 2x 2x 5

    FEWALD:  cpu time    0.0022: real time    0.0023


--------------------------------------- Iteration      1(   1)  ---------------------------------------


    POTLOK:  cpu time    0.3204: real time    0.3471
    SETDIJ:  cpu time    0.0266: real time    0.0376
     EDDAV:  cpu time   50.1226: real time   51.0699
       DOS:  cpu time    0.0042: real time    0.0184
    --------------------------------------------
      LOOP:  cpu time   50.4738: real time   51.4731

 eigenvalue-minimisations  :  2000
 total energy-change (2. order) : 0.2094847E+04  (-0.1145432E+05)
 number of electron     324.0000000 magnetization 
 augmentation part      324.0000000 magnetization 

 Free energy of the ion-electron system (eV)
  ---------------------------------------------------
  alpha Z        PSCENC =       241.30208053
  Ewald energy   TEWEN  =     58152.15996603
  -Hartree energ DENC   =    -69813.71854775
  -exchange      EXHF   =         0.00000000
  -V(xc)+E(xc)   XCENC  =     -2103.79500040
  PAW double counting   =      7476.04436201    -4809.59211051
  entropy T*S    EENTRO =        -0.14268527
  eigenvalues    EBANDS =       999.50658689
  atomic energy  EATOM  =     11953.08265402
  Solvation  Ediel_sol  =         0.00000000
  ---------------------------------------------------
  free energy    TOTEN  =      2094.84730556 eV

  energy without entropy =     2094.98999083  energy(sigma->0) =     2094.91864819


--------------------------------------------------------------------------------------------------------




--------------------------------------- Iteration      1(   2)  ---------------------------------------


     EDDAV:  cpu time   70.7529: real time   70.9554
       DOS:  cpu time    0.0006: real time    0.0006
    --------------------------------------------
      LOOP:  cpu time   70.7534: real time   70.9559

 eigenvalue-minimisations  :  3080
 total energy-change (2. order) :-0.2195334E+04  (-0.2129447E+04)
 number of electron     324.0000000 magnetization 
 augmentation part      324.0000000 magnetization 

 Free energy of the ion-electron system (eV)
  ---------------------------------------------------
  alpha Z        PSCENC =       241.30208053
  Ewald energy   TEWEN  =     58152.15996603
  -Hartree energ DENC   =    -69813.71854775
  -exchange      EXHF   =         0.00000000
  -V(xc)+E(xc)   XCENC  =     -2103.79500040
  PAW double counting   =      7476.04436201    -4809.59211051
  entropy T*S    EENTRO =        -0.00017360
  eigenvalues    EBANDS =     -1195.97016441
  atomic energy  EATOM  =     11953.08265402
  Solvation  Ediel_sol  =         0.00000000
  ---------------------------------------------------
  free energy    TOTEN  =      -100.48693407 eV

  energy without entropy =     -100.48676047  energy(sigma->0) =     -100.48684727


--------------------------------------------------------------------------------------------------------




--------------------------------------- Iteration      1(   3)  ---------------------------------------


     EDDAV:  cpu time   59.4741: real time   59.6154
       DOS:  cpu time    0.0004: real time    0.0004
    --------------------------------------------
      LOOP:  cpu time   59.4745: real time   59.6158

 eigenvalue-minimisations  :  2480
 total energy-change (2. order) :-0.2235782E+03  (-0.2204737E+03)
 number of electron     324.0000000 magnetization 
 augmentation part      324.0000000 magnetization 

 Free energy of the ion-electron system (eV)
  ---------------------------------------------------
  alpha Z        PSCENC =       241.30208053
  Ewald energy   TEWEN  =     58152.15996603
  -Hartree energ DENC   =    -69813.71854775
  -exchange      EXHF   =         0.00000000
  -V(xc)+E(xc)   XCENC  =     -2103.79500040
  PAW double counting   =      7476.04436201    -4809.59211051
  entropy T*S    EENTRO =        -0.00000000
  eigenvalues    EBANDS =     -1419.54851747
  atomic energy  EATOM  =     11953.08265402
  Solvation  Ediel_sol  =         0.00000000
  ---------------------------------------------------
  free energy    TOTEN  =      -324.06511353 eV

  energy without entropy =     -324.06511353  energy(sigma->0) =     -324.06511353


--------------------------------------------------------------------------------------------------------




--------------------------------------- Iteration      1(   4)  ---------------------------------------


     EDDAV:  cpu time   73.6273: real time   73.8730
       DOS:  cpu time    0.0004: real time    0.0004
    --------------------------------------------
      LOOP:  cpu time   73.6277: real time   73.8734

 eigenvalue-minimisations  :  3200
 total energy-change (2. order) :-0.1203669E+02  (-0.1196527E+02)
 number of electron     324.0000000 magnetization 
 augmentation part      324.0000000 magnetization 

 Free energy of the ion-electron system (eV)
  ---------------------------------------------------
  alpha Z        PSCENC =       241.30208053
  Ewald energy   TEWEN  =     58152.15996603
  -Hartree energ DENC   =    -69813.71854775
  -exchange      EXHF   =         0.00000000
  -V(xc)+E(xc)   XCENC  =     -2103.79500040
  PAW double counting   =      7476.04436201    -4809.59211051
  entropy T*S    EENTRO =        -0.00000000
  eigenvalues    EBANDS =     -1431.58520274
  atomic energy  EATOM  =     11953.08265402
  Solvation  Ediel_sol  =         0.00000000
  ---------------------------------------------------
  free energy    TOTEN  =      -336.10179880 eV

  energy without entropy =     -336.10179880  energy(sigma->0) =     -336.10179880


--------------------------------------------------------------------------------------------------------




--------------------------------------- Iteration      1(   5)  ---------------------------------------


     EDDAV:  cpu time   68.9384: real time   69.1332
       DOS:  cpu time    0.0004: real time    0.0004
    CHARGE:  cpu time    1.2126: real time    1.2289
    MIXING:  cpu time    0.0104: real time    0.0164
    --------------------------------------------
      LOOP:  cpu time   70.1619: real time   70.3789

 eigenvalue-minimisations  :  2960
 total energy-change (2. order) :-0.2807744E+00  (-0.2802576E+00)
 number of electron     324.0000001 magnetization 
 augmentation part      -25.9357046 magnetization 

 Broyden mixing:
  rms(total) = 0.19683E+01    rms(broyden)= 0.19683E+01
  rms(prec ) = 0.20867E+01
  weight for this iteration     100.00

 Free energy of the ion-electron system (eV)
  ---------------------------------------------------
  alpha Z        PSCENC =       241.30208053
  Ewald energy   TEWEN  =     58152.15996603
  -Hartree energ DENC   =    -69813.71854775
  -exchange      EXHF   =         0.00000000
  -V(xc)+E(xc)   XCENC  =     -2103.79500040
  PAW double counting   =      7476.04436201    -4809.59211051
  entropy T*S    EENTRO =        -0.00000000
  eigenvalues    EBANDS =     -1431.86597712
  atomic energy  EATOM  =     11953.08265402
  Solvation  Ediel_sol  =         0.00000000
  ---------------------------------------------------
  free energy    TOTEN  =      -336.38257318 eV

  energy without entropy =     -336.38257318  energy(sigma->0) =     -336.38257318


--------------------------------------------------------------------------------------------------------




--------------------------------------- Iteration      1(   6)  ---------------------------------------


    POTLOK:  cpu time    0.2731: real time    0.2734
    SETDIJ:  cpu time    0.0111: real time    0.0111
    EDDIAG:  cpu time    2.6045: real time    2.6230
  RMM-DIIS:  cpu time   43.8402: real time   43.9566
    ORTHCH:  cpu time    0.2207: real time    0.2210
       DOS:  cpu time    0.0005: real time    0.0005
    CHARGE:  cpu time    1.2006: real time    1.2059
    MIXING:  cpu time    0.0089: real time    0.0862
    --------------------------------------------
      LOOP:  cpu time   48.1596: real time   48.3776

 eigenvalue-minimisations  :  2161
 total energy-change (2. order) : 0.8799747E+01  (-0.6791969E+01)
 number of electron     324.0000001 magnetization 
 augmentation part      -19.5269362 magnetization 

 Broyden mixing:
  rms(total) = 0.74370E+00    rms(broyden)= 0.74370E+00
  rms(prec ) = 0.87239E+00
  weight for this iteration     100.00

 eigenvalues of (default mixing * dielectric matrix)
  average eigenvalue GAMMA=   0.9713
  0.9713

 Free energy of the ion-electron system (eV)
  ---------------------------------------------------
  alpha Z        PSCENC =       241.30208053
  Ewald energy   TEWEN  =     58152.15996603
  -Hartree energ DENC   =    -69778.76976447
  -exchange      EXHF   =         0.00000000
  -V(xc)+E(xc)   XCENC  =     -2097.14239964
  PAW double counting   =      7637.31496227    -4981.86418563
  entropy T*S    EENTRO =        -0.00000003
  eigenvalues    EBANDS =     -1453.66613914
  atomic energy  EATOM  =     11953.08265402
  Solvation  Ediel_sol  =         0.00000000
  ---------------------------------------------------
  free energy    TOTEN  =      -327.58282606 eV

  energy without entropy =     -327.58282603  energy(sigma->0) =     -327.58282604


--------------------------------------------------------------------------------------------------------




--------------------------------------- Iteration      1(   7)  ---------------------------------------


    POTLOK:  cpu time    0.2736: real time    0.2739
    SETDIJ:  cpu time    0.0114: real time    0.0114
    EDDIAG:  cpu time    2.6216: real time    2.6246
  RMM-DIIS:  cpu time   40.8093: real time   40.9136
    ORTHCH:  cpu time    0.2271: real time    0.2273
       DOS:  cpu time    0.0004: real time    0.0004
    CHARGE:  cpu time    1.2061: real time    1.2071
    MIXING:  cpu time    0.0108: real time    0.0108
    --------------------------------------------
      LOOP:  cpu time   45.1602: real time   45.2691

 eigenvalue-minimisations  :  2023
 total energy-change (2. order) : 0.3723857E+01  (-0.1192951E+01)
 number of electron     324.0000001 magnetization 
 augmentation part      -21.7039865 magnetization 

 Broyden mixing:
  rms(total) = 0.48657E+00    rms(broyden)= 0.48657E+00
  rms(prec ) = 0.51727E+00
  weight for this iteration     100.00

 eigenvalues of (default mixing * dielectric matrix)
  average eigenvalue GAMMA=   1.4778
  0.7150  2.2406

 Free energy of the ion-electron system (eV)
  ---------------------------------------------------
  alpha Z        PSCENC =       241.30208053
  Ewald energy   TEWEN  =     58152.15996603
  -Hartree energ DENC   =    -69865.87929760
  -exchange      EXHF   =         0.00000000
  -V(xc)+E(xc)   XCENC  =     -2096.28529497
  PAW double counting   =      7905.25813931    -5254.04063455
  entropy T*S    EENTRO =        -0.00000000
  eigenvalues    EBANDS =     -1359.45658174
  atomic energy  EATOM  =     11953.08265402
  Solvation  Ediel_sol  =         0.00000000
  ---------------------------------------------------
  free energy    TOTEN  =      -323.85896895 eV

  energy without entropy =     -323.85896895  energy(sigma->0) =     -323.85896895


--------------------------------------------------------------------------------------------------------




--------------------------------------- Iteration      1(   8)  ---------------------------------------


    POTLOK:  cpu time    0.2799: real time    0.2801
    SETDIJ:  cpu time    0.0113: real time    0.0113
    EDDIAG:  cpu time    2.6146: real time    2.6173
  RMM-DIIS:  cpu time   40.4509: real time   40.5605
    ORTHCH:  cpu time    0.2309: real time    0.2311
       DOS:  cpu time    0.0004: real time    0.0004
    CHARGE:  cpu time    1.1933: real time    1.1985
    MIXING:  cpu time    0.0077: real time    0.0077
    --------------------------------------------
      LOOP:  cpu time   44.7890: real time   44.9070

 eigenvalue-minimisations  :  2034
 total energy-change (2. order) : 0.4316307E+00  (-0.9315708E+00)
 number of electron     324.0000001 magnetization 
 augmentation part      -21.7659970 magnetization 

 Broyden mixing:
  rms(total) = 0.17142E+00    rms(broyden)= 0.17142E+00
  rms(prec ) = 0.20052E+00
  weight for this iteration     100.00

 eigenvalues of (default mixing * dielectric matrix)
  average eigenvalue GAMMA=   1.2372
  2.1552  0.7783  0.7783

 Free energy of the ion-electron system (eV)
  ---------------------------------------------------
  alpha Z        PSCENC =       241.30208053
  Ewald energy   TEWEN  =     58152.15996603
  -Hartree energ DENC   =    -69931.39299554
  -exchange      EXHF   =         0.00000000
  -V(xc)+E(xc)   XCENC  =     -2092.28841902
  PAW double counting   =      8219.47061457    -5574.70907368
  entropy T*S    EENTRO =        -0.00000000
  eigenvalues    EBANDS =     -1291.05216516
  atomic energy  EATOM  =     11953.08265402
  Solvation  Ediel_sol  =         0.00000000
  ---------------------------------------------------
  free energy    TOTEN  =      -323.42733824 eV

  energy without entropy =     -323.42733824  energy(sigma->0) =     -323.42733824


--------------------------------------------------------------------------------------------------------




--------------------------------------- Iteration      1(   9)  ---------------------------------------


    POTLOK:  cpu time    0.2731: real time    0.2734
    SETDIJ:  cpu time    0.0115: real time    0.0115
    EDDIAG:  cpu time    2.6196: real time    2.6265
  RMM-DIIS:  cpu time   44.8628: real time   44.9984
    ORTHCH:  cpu time    0.2279: real time    0.2292
       DOS:  cpu time    0.0004: real time    0.0004
    CHARGE:  cpu time    1.2103: real time    1.2155
    MIXING:  cpu time    0.0070: real time    0.0071
    --------------------------------------------
      LOOP:  cpu time   49.2127: real time   49.3618

 eigenvalue-minimisations  :  2189
 total energy-change (2. order) : 0.4581604E-01  (-0.1403727E+00)
 number of electron     324.0000001 magnetization 
 augmentation part      -21.2985762 magnetization 

 Broyden mixing:
  rms(total) = 0.10329E+00    rms(broyden)= 0.10329E+00
  rms(prec ) = 0.11592E+00
  weight for this iteration     100.00

 eigenvalues of (default mixing * dielectric matrix)
  average eigenvalue GAMMA=   1.0995
  2.0625  1.1335  0.7586  0.4433

 Free energy of the ion-electron system (eV)
  ---------------------------------------------------
  alpha Z        PSCENC =       241.30208053
  Ewald energy   TEWEN  =     58152.15996603
  -Hartree energ DENC   =    -69924.44682440
  -exchange      EXHF   =         0.00000000
  -V(xc)+E(xc)   XCENC  =     -2091.99414068
  PAW double counting   =      8205.89068455    -5561.13094610
  entropy T*S    EENTRO =        -0.00000000
  eigenvalues    EBANDS =     -1298.24499615
  atomic energy  EATOM  =     11953.08265402
  Solvation  Ediel_sol  =         0.00000000
  ---------------------------------------------------
  free energy    TOTEN  =      -323.38152220 eV

  energy without entropy =     -323.38152220  energy(sigma->0) =     -323.38152220


--------------------------------------------------------------------------------------------------------




--------------------------------------- Iteration      1(  10)  ---------------------------------------


    POTLOK:  cpu time    0.2771: real time    0.2773
    SETDIJ:  cpu time    0.0114: real time    0.0114
    EDDIAG:  cpu time    2.6193: real time    2.6220
  RMM-DIIS:  cpu time   48.0156: real time   48.1382
    ORTHCH:  cpu time    0.2192: real time    0.2194
       DOS:  cpu time    0.0004: real time    0.0004
    CHARGE:  cpu time    1.2018: real time    1.2073
    MIXING:  cpu time    0.0154: real time    0.0154
    --------------------------------------------
      LOOP:  cpu time   52.3603: real time   52.4915

 eigenvalue-minimisations  :  2358
 total energy-change (2. order) :-0.6373166E-02  (-0.4911235E-01)
 number of electron     324.0000001 magnetization 
 augmentation part      -21.0394223 magnetization 

 Broyden mixing:
  rms(total) = 0.74530E-01    rms(broyden)= 0.74530E-01
  rms(prec ) = 0.82424E-01
  weight for this iteration     100.00

 eigenvalues of (default mixing * dielectric matrix)
  average eigenvalue GAMMA=   1.2492
  2.3649  1.6118  0.9432  0.9432  0.3828

 Free energy of the ion-electron system (eV)
  ---------------------------------------------------
  alpha Z        PSCENC =       241.30208053
  Ewald energy   TEWEN  =     58152.15996603
  -Hartree energ DENC   =    -69924.32390832
  -exchange      EXHF   =         0.00000000
  -V(xc)+E(xc)   XCENC  =     -2091.79498496
  PAW double counting   =      8211.14957441    -5566.37327197
  entropy T*S    EENTRO =        -0.00000000
  eigenvalues    EBANDS =     -1298.59000510
  atomic energy  EATOM  =     11953.08265402
  Solvation  Ediel_sol  =         0.00000000
  ---------------------------------------------------
  free energy    TOTEN  =      -323.38789536 eV

  energy without entropy =     -323.38789536  energy(sigma->0) =     -323.38789536


--------------------------------------------------------------------------------------------------------




--------------------------------------- Iteration      1(  11)  ---------------------------------------


    POTLOK:  cpu time    0.2750: real time    0.2752
    SETDIJ:  cpu time    0.0114: real time    0.0114
    EDDIAG:  cpu time    2.6135: real time    2.6243
  RMM-DIIS:  cpu time   42.8696: real time   43.0031
    ORTHCH:  cpu time    0.2262: real time    0.2264
       DOS:  cpu time    0.0004: real time    0.0004
    CHARGE:  cpu time    1.2074: real time    1.2084
    MIXING:  cpu time    0.0072: real time    0.0072
    --------------------------------------------
      LOOP:  cpu time   47.2106: real time   47.3563

 eigenvalue-minimisations  :  2137
 total energy-change (2. order) : 0.9489498E-02  (-0.1775065E-01)
 number of electron     324.0000001 magnetization 
 augmentation part      -21.3177528 magnetization 

 Broyden mixing:
  rms(total) = 0.42013E-01    rms(broyden)= 0.42013E-01
  rms(prec ) = 0.48133E-01
  weight for this iteration     100.00

 eigenvalues of (default mixing * dielectric matrix)
  average eigenvalue GAMMA=   1.1884
  2.5430  1.6376  1.2202  0.7741  0.5800  0.3752

 Free energy of the ion-electron system (eV)
  ---------------------------------------------------
  alpha Z        PSCENC =       241.30208053
  Ewald energy   TEWEN  =     58152.15996603
  -Hartree energ DENC   =    -69942.72867411
  -exchange      EXHF   =         0.00000000
  -V(xc)+E(xc)   XCENC  =     -2091.46737234
  PAW double counting   =      8262.30719568    -5617.80264417
  entropy T*S    EENTRO =        -0.00000000
  eigenvalues    EBANDS =     -1280.23161152
  atomic energy  EATOM  =     11953.08265402
  Solvation  Ediel_sol  =         0.00000000
  ---------------------------------------------------
  free energy    TOTEN  =      -323.37840587 eV

  energy without entropy =     -323.37840587  energy(sigma->0) =     -323.37840587


--------------------------------------------------------------------------------------------------------




--------------------------------------- Iteration      1(  12)  ---------------------------------------


    POTLOK:  cpu time    0.2751: real time    0.2796
    SETDIJ:  cpu time    0.0113: real time    0.0113
    EDDIAG:  cpu time    2.6002: real time    2.6114
  RMM-DIIS:  cpu time   51.2753: real time   51.4254
    ORTHCH:  cpu time    0.2292: real time    0.2296
       DOS:  cpu time    0.0004: real time    0.0004
    CHARGE:  cpu time    1.1985: real time    1.2036
    MIXING:  cpu time    0.0078: real time    0.0078
    --------------------------------------------
      LOOP:  cpu time   55.5979: real time   55.7692

 eigenvalue-minimisations  :  2507
 total energy-change (2. order) :-0.1666096E-03  (-0.5087281E-02)
 number of electron     324.0000001 magnetization 
 augmentation part      -21.3284911 magnetization 

 Broyden mixing:
  rms(total) = 0.31998E-01    rms(broyden)= 0.31998E-01
  rms(prec ) = 0.36664E-01
  weight for this iteration     100.00

 eigenvalues of (default mixing * dielectric matrix)
  average eigenvalue GAMMA=   1.1611
  2.5153  1.6172  1.6172  0.8156  0.8156  0.3929  0.3536

 Free energy of the ion-electron system (eV)
  ---------------------------------------------------
  alpha Z        PSCENC =       241.30208053
  Ewald energy   TEWEN  =     58152.15996603
  -Hartree energ DENC   =    -69946.83080778
  -exchange      EXHF   =         0.00000000
  -V(xc)+E(xc)   XCENC  =     -2091.34943125
  PAW double counting   =      8268.23749636    -5623.77329150
  entropy T*S    EENTRO =        -0.00000000
  eigenvalues    EBANDS =     -1276.20723891
  atomic energy  EATOM  =     11953.08265402
  Solvation  Ediel_sol  =         0.00000000
  ---------------------------------------------------
  free energy    TOTEN  =      -323.37857248 eV

  energy without entropy =     -323.37857248  energy(sigma->0) =     -323.37857248


--------------------------------------------------------------------------------------------------------




--------------------------------------- Iteration      1(  13)  ---------------------------------------


    POTLOK:  cpu time    0.2743: real time    0.2746
    SETDIJ:  cpu time    0.0153: real time    0.0153
    EDDIAG:  cpu time    2.6195: real time    2.6265
  RMM-DIIS:  cpu time   48.1401: real time   48.2953
    ORTHCH:  cpu time    0.2306: real time    0.2308
       DOS:  cpu time    0.0004: real time    0.0004
    CHARGE:  cpu time    1.2115: real time    1.2167
    MIXING:  cpu time    0.0075: real time    0.0075
    --------------------------------------------
      LOOP:  cpu time   52.4992: real time   52.6672

 eigenvalue-minimisations  :  2375
 total energy-change (2. order) : 0.2626923E-02  (-0.2851274E-02)
 number of electron     324.0000001 magnetization 
 augmentation part      -21.2118181 magnetization 

 Broyden mixing:
  rms(total) = 0.90886E-02    rms(broyden)= 0.90885E-02
  rms(prec ) = 0.12538E-01
  weight for this iteration     100.00

 eigenvalues of (default mixing * dielectric matrix)
  average eigenvalue GAMMA=   1.2210
  2.3160  2.0671  1.9475  1.0732  0.8087  0.8087  0.3930  0.3538

 Free energy of the ion-electron system (eV)
  ---------------------------------------------------
  alpha Z        PSCENC =       241.30208053
  Ewald energy   TEWEN  =     58152.15996603
  -Hartree energ DENC   =    -69948.51869826
  -exchange      EXHF   =         0.00000000
  -V(xc)+E(xc)   XCENC  =     -2091.26414096
  PAW double counting   =      8263.00669569    -5618.52150802
  entropy T*S    EENTRO =        -0.00000000
  eigenvalues    EBANDS =     -1274.62299459
  atomic energy  EATOM  =     11953.08265402
  Solvation  Ediel_sol  =         0.00000000
  ---------------------------------------------------
  free energy    TOTEN  =      -323.37594555 eV

  energy without entropy =     -323.37594555  energy(sigma->0) =     -323.37594555


--------------------------------------------------------------------------------------------------------




--------------------------------------- Iteration      1(  14)  ---------------------------------------


    POTLOK:  cpu time    0.2804: real time    0.2807
    SETDIJ:  cpu time    0.0112: real time    0.0112
    EDDIAG:  cpu time    2.6189: real time    2.6215
  RMM-DIIS:  cpu time   52.4198: real time   52.5552
    ORTHCH:  cpu time    0.2331: real time    0.2333
       DOS:  cpu time    0.0004: real time    0.0004
    CHARGE:  cpu time    1.2041: real time    1.2053
    MIXING:  cpu time    0.0087: real time    0.0087
    --------------------------------------------
      LOOP:  cpu time   56.7764: real time   56.9162

 eigenvalue-minimisations  :  2527
 total energy-change (2. order) :-0.8419091E-03  (-0.8797786E-03)
 number of electron     324.0000001 magnetization 
 augmentation part      -21.2009903 magnetization 

 Broyden mixing:
  rms(total) = 0.85262E-02    rms(broyden)= 0.85262E-02
  rms(prec ) = 0.10950E-01
  weight for this iteration     100.00

 eigenvalues of (default mixing * dielectric matrix)
  average eigenvalue GAMMA=   1.2780
  3.1048  2.5888  1.4795  1.4795  0.8065  0.8065  0.3534  0.3934  0.4899

 Free energy of the ion-electron system (eV)
  ---------------------------------------------------
  alpha Z        PSCENC =       241.30208053
  Ewald energy   TEWEN  =     58152.15996603
  -Hartree energ DENC   =    -69955.19295746
  -exchange      EXHF   =         0.00000000
  -V(xc)+E(xc)   XCENC  =     -2091.21850125
  PAW double counting   =      8260.42770127    -5615.88391279
  entropy T*S    EENTRO =        -0.00000000
  eigenvalues    EBANDS =     -1268.05381783
  atomic energy  EATOM  =     11953.08265402
  Solvation  Ediel_sol  =         0.00000000
  ---------------------------------------------------
  free energy    TOTEN  =      -323.37678746 eV

  energy without entropy =     -323.37678746  energy(sigma->0) =     -323.37678746


--------------------------------------------------------------------------------------------------------




--------------------------------------- Iteration      1(  15)  ---------------------------------------


    POTLOK:  cpu time    0.2797: real time    0.2800
    SETDIJ:  cpu time    0.0126: real time    0.0126
    EDDIAG:  cpu time    2.5971: real time    2.5999
  RMM-DIIS:  cpu time   46.7074: real time   46.8219
    ORTHCH:  cpu time    0.2290: real time    0.2292
       DOS:  cpu time    0.0005: real time    0.0005
    CHARGE:  cpu time    1.2019: real time    1.2071
    MIXING:  cpu time    0.0081: real time    0.0081
    --------------------------------------------
      LOOP:  cpu time   51.0363: real time   51.1593

 eigenvalue-minimisations  :  2296
 total energy-change (2. order) :-0.2468708E-03  (-0.1977703E-03)
 number of electron     324.0000001 magnetization 
 augmentation part      -21.2115116 magnetization 

 Broyden mixing:
  rms(total) = 0.48547E-02    rms(broyden)= 0.48547E-02
  rms(prec ) = 0.63265E-02
  weight for this iteration     100.00

 eigenvalues of (default mixing * dielectric matrix)
  average eigenvalue GAMMA=   1.2617
  3.5509  2.4999  1.5534  1.5534  0.8033  0.8033  0.7094  0.3524  0.4019  0.3889

 Free energy of the ion-electron system (eV)
  ---------------------------------------------------
  alpha Z        PSCENC =       241.30208053
  Ewald energy   TEWEN  =     58152.15996603
  -Hartree energ DENC   =    -69960.60036156
  -exchange      EXHF   =         0.00000000
  -V(xc)+E(xc)   XCENC  =     -2091.18515968
  PAW double counting   =      8259.74851146    -5615.16567062
  entropy T*S    EENTRO =        -0.00000000
  eigenvalues    EBANDS =     -1262.71905452
  atomic energy  EATOM  =     11953.08265402
  Solvation  Ediel_sol  =         0.00000000
  ---------------------------------------------------
  free energy    TOTEN  =      -323.37703433 eV

  energy without entropy =     -323.37703433  energy(sigma->0) =     -323.37703433


--------------------------------------------------------------------------------------------------------




--------------------------------------- Iteration      1(  16)  ---------------------------------------


    POTLOK:  cpu time    0.2777: real time    0.2780
    SETDIJ:  cpu time    0.0196: real time    0.0196
    EDDIAG:  cpu time    2.6013: real time    2.6081
  RMM-DIIS:  cpu time   50.4588: real time   50.5541
    ORTHCH:  cpu time    0.2174: real time    0.2217
       DOS:  cpu time    0.0004: real time    0.0004
    CHARGE:  cpu time    1.2072: real time    1.2084
    MIXING:  cpu time    0.0091: real time    0.0091
    --------------------------------------------
      LOOP:  cpu time   54.7915: real time   54.8994

 eigenvalue-minimisations  :  2508
 total energy-change (2. order) :-0.5848969E-03  (-0.7687157E-04)
 number of electron     324.0000001 magnetization 
 augmentation part      -21.2190207 magnetization 

 Broyden mixing:
  rms(total) = 0.31622E-02    rms(broyden)= 0.31622E-02
  rms(prec ) = 0.41982E-02
  weight for this iteration     100.00

 eigenvalues of (default mixing * dielectric matrix)
  average eigenvalue GAMMA=   1.3021
  3.7119  2.4170  1.8787  1.8787  1.0341  0.8142  0.8142  0.6461  0.3524  0.3958
  0.3800

 Free energy of the ion-electron system (eV)
  ---------------------------------------------------
  alpha Z        PSCENC =       241.30208053
  Ewald energy   TEWEN  =     58152.15996603
  -Hartree energ DENC   =    -69962.71293212
  -exchange      EXHF   =         0.00000000
  -V(xc)+E(xc)   XCENC  =     -2091.17336645
  PAW double counting   =      8259.88161715    -5615.29324604
  entropy T*S    EENTRO =        -0.00000000
  eigenvalues    EBANDS =     -1260.62439236
  atomic energy  EATOM  =     11953.08265402
  Solvation  Ediel_sol  =         0.00000000
  ---------------------------------------------------
  free energy    TOTEN  =      -323.37761923 eV

  energy without entropy =     -323.37761923  energy(sigma->0) =     -323.37761923


--------------------------------------------------------------------------------------------------------




--------------------------------------- Iteration      1(  17)  ---------------------------------------


    POTLOK:  cpu time    0.2784: real time    0.2787
    SETDIJ:  cpu time    0.0149: real time    0.0149
    EDDIAG:  cpu time    2.6301: real time    2.6371
  RMM-DIIS:  cpu time   46.3640: real time   46.4716
    ORTHCH:  cpu time    0.2390: real time    0.2392
       DOS:  cpu time    0.0004: real time    0.0004
    CHARGE:  cpu time    1.1928: real time    1.1980
    MIXING:  cpu time    0.0082: real time    0.0082
    --------------------------------------------
      LOOP:  cpu time   50.7278: real time   50.8481

 eigenvalue-minimisations  :  2264
 total energy-change (2. order) :-0.1414116E-02  (-0.2803629E-04)
 number of electron     324.0000001 magnetization 
 augmentation part      -21.2214568 magnetization 

 Broyden mixing:
  rms(total) = 0.20629E-02    rms(broyden)= 0.20629E-02
  rms(prec ) = 0.27602E-02
  weight for this iteration     100.00

 eigenvalues of (default mixing * dielectric matrix)
  average eigenvalue GAMMA=   1.3419
  4.1652  2.4994  2.3146  1.5078  1.4009  0.8158  0.8158  0.8633  0.5927  0.3524
  0.3946  0.3804

 Free energy of the ion-electron system (eV)
  ---------------------------------------------------
  alpha Z        PSCENC =       241.30208053
  Ewald energy   TEWEN  =     58152.15996603
  -Hartree energ DENC   =    -69965.25620640
  -exchange      EXHF   =         0.00000000
  -V(xc)+E(xc)   XCENC  =     -2091.16187897
  PAW double counting   =      8259.51914632    -5614.93622670
  entropy T*S    EENTRO =        -0.00000000
  eigenvalues    EBANDS =     -1258.08856819
  atomic energy  EATOM  =     11953.08265402
  Solvation  Ediel_sol  =         0.00000000
  ---------------------------------------------------
  free energy    TOTEN  =      -323.37903335 eV

  energy without entropy =     -323.37903335  energy(sigma->0) =     -323.37903335


--------------------------------------------------------------------------------------------------------




--------------------------------------- Iteration      1(  18)  ---------------------------------------


    POTLOK:  cpu time    0.2853: real time    0.2856
    SETDIJ:  cpu time    0.0156: real time    0.0156
    EDDIAG:  cpu time    2.5986: real time    2.6094
  RMM-DIIS:  cpu time   42.7347: real time   42.8754
    ORTHCH:  cpu time    0.2310: real time    0.2313
       DOS:  cpu time    0.0004: real time    0.0004
    CHARGE:  cpu time    1.2176: real time    1.2186
    MIXING:  cpu time    0.0082: real time    0.0082
    --------------------------------------------
      LOOP:  cpu time   47.0914: real time   47.2446

 eigenvalue-minimisations  :  2122
 total energy-change (2. order) :-0.9722757E-03  (-0.2519796E-04)
 number of electron     324.0000001 magnetization 
 augmentation part      -21.2224751 magnetization 

 Broyden mixing:
  rms(total) = 0.21350E-02    rms(broyden)= 0.21350E-02
  rms(prec ) = 0.25721E-02
  weight for this iteration     100.00

 eigenvalues of (default mixing * dielectric matrix)
  average eigenvalue GAMMA=   1.3913
  4.9817  2.8680  2.3441  1.5855  1.5855  0.9602  0.8232  0.8232  0.6209  0.3970
  0.3837  0.3524  0.3620

 Free energy of the ion-electron system (eV)
  ---------------------------------------------------
  alpha Z        PSCENC =       241.30208053
  Ewald energy   TEWEN  =     58152.15996603
  -Hartree energ DENC   =    -69967.23708049
  -exchange      EXHF   =         0.00000000
  -V(xc)+E(xc)   XCENC  =     -2091.15511797
  PAW double counting   =      8258.95246341    -5614.37032702
  entropy T*S    EENTRO =        -0.00000000
  eigenvalues    EBANDS =     -1256.11464414
  atomic energy  EATOM  =     11953.08265402
  Solvation  Ediel_sol  =         0.00000000
  ---------------------------------------------------
  free energy    TOTEN  =      -323.38000562 eV

  energy without entropy =     -323.38000562  energy(sigma->0) =     -323.38000562


--------------------------------------------------------------------------------------------------------




--------------------------------------- Iteration      1(  19)  ---------------------------------------


    POTLOK:  cpu time    0.2845: real time    0.2858
    SETDIJ:  cpu time    0.0117: real time    0.0118
    EDDIAG:  cpu time    2.6111: real time    2.6138
  RMM-DIIS:  cpu time   42.0188: real time   42.1001
    ORTHCH:  cpu time    0.2241: real time    0.2245
       DOS:  cpu time    0.0004: real time    0.0004
    CHARGE:  cpu time    1.2073: real time    1.2124
    MIXING:  cpu time    0.0121: real time    0.0121
    --------------------------------------------
      LOOP:  cpu time   46.3700: real time   46.4609

 eigenvalue-minimisations  :  2072
 total energy-change (2. order) :-0.6261450E-03  (-0.1237612E-04)
 number of electron     324.0000001 magnetization 
 augmentation part      -21.2218563 magnetization 

 Broyden mixing:
  rms(total) = 0.12620E-02    rms(broyden)= 0.12620E-02
  rms(prec ) = 0.15728E-02
  weight for this iteration     100.00

 eigenvalues of (default mixing * dielectric matrix)
  average eigenvalue GAMMA=   1.4894
  5.9925  3.0939  2.3908  1.8101  1.8101  1.0107  1.0107  0.8121  0.8121  0.6190
  0.3948  0.3842  0.3523  0.3589

 Free energy of the ion-electron system (eV)
  ---------------------------------------------------
  alpha Z        PSCENC =       241.30208053
  Ewald energy   TEWEN  =     58152.15996603
  -Hartree energ DENC   =    -69968.48286478
  -exchange      EXHF   =         0.00000000
  -V(xc)+E(xc)   XCENC  =     -2091.15155771
  PAW double counting   =      8258.68664472    -5614.10446725
  entropy T*S    EENTRO =        -0.00000000
  eigenvalues    EBANDS =     -1254.87308733
  atomic energy  EATOM  =     11953.08265402
  Solvation  Ediel_sol  =         0.00000000
  ---------------------------------------------------
  free energy    TOTEN  =      -323.38063177 eV

  energy without entropy =     -323.38063177  energy(sigma->0) =     -323.38063177


--------------------------------------------------------------------------------------------------------




--------------------------------------- Iteration      1(  20)  ---------------------------------------


    POTLOK:  cpu time    0.2823: real time    0.2825
    SETDIJ:  cpu time    0.0112: real time    0.0112
    EDDIAG:  cpu time    2.6173: real time    2.6200
  RMM-DIIS:  cpu time   43.4183: real time   43.5275
    ORTHCH:  cpu time    0.2228: real time    0.2230
       DOS:  cpu time    0.0004: real time    0.0004
    CHARGE:  cpu time    1.1934: real time    1.1944
    MIXING:  cpu time    0.0087: real time    0.0087
    --------------------------------------------
      LOOP:  cpu time   47.7543: real time   47.8678

 eigenvalue-minimisations  :  2146
 total energy-change (2. order) :-0.5108269E-03  (-0.9188929E-05)
 number of electron     324.0000001 magnetization 
 augmentation part      -21.2180116 magnetization 

 Broyden mixing:
  rms(total) = 0.69170E-03    rms(broyden)= 0.69170E-03
  rms(prec ) = 0.81150E-03
  weight for this iteration     100.00

 eigenvalues of (default mixing * dielectric matrix)
  average eigenvalue GAMMA=   1.4707
  6.4217  3.1931  2.4328  1.8160  1.8160  1.0693  1.0693  0.8147  0.8147  0.6045
  0.5149  0.3951  0.3845  0.3522  0.3621

 Free energy of the ion-electron system (eV)
  ---------------------------------------------------
  alpha Z        PSCENC =       241.30208053
  Ewald energy   TEWEN  =     58152.15996603
  -Hartree energ DENC   =    -69968.99058279
  -exchange      EXHF   =         0.00000000
  -V(xc)+E(xc)   XCENC  =     -2091.15163450
  PAW double counting   =      8259.12477226    -5614.54367269
  entropy T*S    EENTRO =        -0.00000000
  eigenvalues    EBANDS =     -1254.36472546
  atomic energy  EATOM  =     11953.08265402
  Solvation  Ediel_sol  =         0.00000000
  ---------------------------------------------------
  free energy    TOTEN  =      -323.38114259 eV

  energy without entropy =     -323.38114259  energy(sigma->0) =     -323.38114259


--------------------------------------------------------------------------------------------------------




--------------------------------------- Iteration      1(  21)  ---------------------------------------


    POTLOK:  cpu time    0.2888: real time    0.2891
    SETDIJ:  cpu time    0.0114: real time    0.0114
    EDDIAG:  cpu time    2.6201: real time    2.6228
  RMM-DIIS:  cpu time   47.8805: real time   48.0217
    ORTHCH:  cpu time    0.2291: real time    0.2293
       DOS:  cpu time    0.0004: real time    0.0004
    CHARGE:  cpu time    1.2085: real time    1.2096
    MIXING:  cpu time    0.0109: real time    0.0110
    --------------------------------------------
      LOOP:  cpu time   52.2497: real time   52.3952

 eigenvalue-minimisations  :  2325
 total energy-change (2. order) :-0.1005427E-03  (-0.3191349E-05)
 number of electron     324.0000001 magnetization 
 augmentation part      -21.2173597 magnetization 

 Broyden mixing:
  rms(total) = 0.59860E-03    rms(broyden)= 0.59860E-03
  rms(prec ) = 0.70662E-03
  weight for this iteration     100.00

 eigenvalues of (default mixing * dielectric matrix)
  average eigenvalue GAMMA=   1.5252
  7.0936  3.3042  2.5148  1.8704  1.7325  1.7325  1.0185  1.0185  0.8094  0.8094
  0.6279  0.3928  0.3928  0.3795  0.3519  0.3549

 Free energy of the ion-electron system (eV)
  ---------------------------------------------------
  alpha Z        PSCENC =       241.30208053
  Ewald energy   TEWEN  =     58152.15996603
  -Hartree energ DENC   =    -69969.10716594
  -exchange      EXHF   =         0.00000000
  -V(xc)+E(xc)   XCENC  =     -2091.15219265
  PAW double counting   =      8259.24986910    -5614.66905720
  entropy T*S    EENTRO =        -0.00000000
  eigenvalues    EBANDS =     -1254.24739704
  atomic energy  EATOM  =     11953.08265402
  Solvation  Ediel_sol  =         0.00000000
  ---------------------------------------------------
  free energy    TOTEN  =      -323.38124314 eV

  energy without entropy =     -323.38124314  energy(sigma->0) =     -323.38124314


--------------------------------------------------------------------------------------------------------




--------------------------------------- Iteration      1(  22)  ---------------------------------------


    POTLOK:  cpu time    0.2772: real time    0.2774
    SETDIJ:  cpu time    0.0143: real time    0.0143
    EDDIAG:  cpu time    2.6163: real time    2.6192
  RMM-DIIS:  cpu time   41.0262: real time   41.1489
    ORTHCH:  cpu time    0.2193: real time    0.2195
       DOS:  cpu time    0.0004: real time    0.0004
    CHARGE:  cpu time    1.2055: real time    1.2069
    MIXING:  cpu time    0.0088: real time    0.0088
    --------------------------------------------
      LOOP:  cpu time   45.3680: real time   45.4955

 eigenvalue-minimisations  :  1982
 total energy-change (2. order) :-0.1257999E-03  (-0.1230184E-05)
 number of electron     324.0000001 magnetization 
 augmentation part      -21.2197292 magnetization 

 Broyden mixing:
  rms(total) = 0.27015E-03    rms(broyden)= 0.27014E-03
  rms(prec ) = 0.32749E-03
  weight for this iteration     100.00

 eigenvalues of (default mixing * dielectric matrix)
  average eigenvalue GAMMA=   1.5759
  7.3837  3.4897  2.6521  2.4829  1.7634  1.7634  1.0715  1.0715  0.9956  0.8080
  0.8080  0.6292  0.3954  0.3919  0.3801  0.3530  0.3509

[...]
  0.000   0.000   0.000  -0.000  -0.000   0.011   0.000   0.000
 -0.000   0.000  -0.000   0.000  -0.000   0.000   0.011   0.000
  0.000   0.000  -0.000  -0.000   0.000   0.000   0.000   0.011
 -0.000   0.000  -0.000  -0.000  -0.000   0.000   0.000   0.000
  0.000   0.000  -0.013  -0.001  -0.000  -0.000   0.000   0.000
 -0.009  -0.000   0.000  -0.018   0.000  -0.000  -0.000  -0.000
  0.000   0.000  -0.000  -0.000  -0.013   0.000   0.000  -0.000
  0.000   0.000   0.001  -0.000  -0.000   0.000   0.000   0.000
 total augmentation occupancy for first ion, spin component:           1
  1.937   0.180   0.002   0.200  -0.003   0.008   0.030   0.002   0.001   0.002   0.005   0.001  -0.001
  0.180   1.266  -0.025  -0.910   0.004   0.019   0.354  -0.001   0.000   0.002  -0.019  -0.000   0.006
  0.002  -0.025   1.324   0.008   0.006  -0.456  -0.014  -0.003   0.001  -0.111  -0.002  -0.001  -0.039
  0.200  -0.910   0.008   1.487   0.005  -0.014  -0.517  -0.002  -0.002  -0.006  -0.036  -0.001  -0.000
 -0.003   0.004   0.006   0.005   1.335  -0.003  -0.001  -0.459  -0.046  -0.001  -0.002  -0.114  -0.000
  0.008   0.019  -0.456  -0.014  -0.003   0.271   0.004   0.002   0.000   0.037  -0.001   0.000   0.006
  0.030   0.354  -0.014  -0.517  -0.001   0.004   0.267  -0.000   0.000   0.003   0.041   0.000  -0.000
  0.002  -0.001  -0.003  -0.002  -0.459   0.002  -0.000   0.281   0.009   0.000  -0.000   0.035   0.001
  0.001   0.000   0.001  -0.002  -0.046   0.000   0.000   0.009   0.018   0.000  -0.000   0.000  -0.000
  0.002   0.002  -0.111  -0.006  -0.001   0.037   0.003   0.000   0.000   0.016   0.001   0.000  -0.001
  0.005  -0.019  -0.002  -0.036  -0.002  -0.001   0.041  -0.000  -0.000   0.001   0.018   0.000  -0.001
  0.001  -0.000  -0.001  -0.001  -0.114   0.000   0.000   0.035   0.000   0.000   0.000   0.017   0.000
 -0.001   0.006  -0.039  -0.000  -0.000   0.006  -0.000   0.001  -0.000  -0.001  -0.001   0.000   0.018


------------------------ aborting loop because EDIFF is reached ----------------------------------------


    CHARGE:  cpu time    1.2050: real time    1.2060
    FORLOC:  cpu time    0.0799: real time    0.0800
    FORNL :  cpu time   14.0216: real time   14.0558
    STRESS:  cpu time   72.8868: real time   73.0691
    FORCOR:  cpu time    0.3162: real time    0.3164
    FORHAR:  cpu time    0.1269: real time    0.1270
    MIXING:  cpu time    0.0074: real time    0.0074
    OFIELD:  cpu time    0.0000: real time    0.0000

  Number of pair interactions contributing to vdW energy:  264292
  Edisp (eV):  -18.73671
    FORVDW:  cpu time    0.0291: real time    0.0291

  FORCE on cell =-STRESS in cart. coord.  units (eV):
  Direction    XX          YY          ZZ          XY          YZ          ZX
  --------------------------------------------------------------------------------------
  Alpha Z   241.30208   241.30208   241.30208
  Ewald   67251.45656 67147.73069-76254.78683   -21.00966    33.50414    60.50997
  Hartree 69580.96322 69545.59525-69165.65209    -5.11924     3.40723    10.03444
  E(xc)   -1350.50029 -1349.34031 -1368.25114     0.37623    -1.35090    -1.69623
  Local  ************************140366.35405    25.59602   -36.65430   -68.53272
  n-local  3538.35501  3547.13219  3720.45656    -1.22806     9.82217    11.38524
  augment  -758.85407  -762.63669  -800.05999    -0.06749    -1.62502    -1.57791
  Kinetic  3286.99659  3254.13221  3259.72019    -2.52851     4.59676    10.37061
  Fock        0.00000     0.00000     0.00000     0.00000     0.00000     0.00000
  vdW       -12.23767   -12.43491    -8.13970     0.01451    -0.53380     0.14002
  -------------------------------------------------------------------------------------
  Total      -3.98706   -33.96307    -9.05687    -3.96621    11.16627    20.63342
  in kB      -2.14784   -18.29600    -4.87896    -2.13661     6.01530    11.11528
  external pressure =       -8.44 kB  Pullay stress =        0.00 kB

  kinetic pressure (ideal gas correction) =      0.23 kB
  total pressure  =     -8.21 kB
  Total+kin.    -1.984     -17.958      -4.700      -2.073       6.036      11.087

 VOLUME and BASIS-vectors are now :
 -----------------------------------------------------------------------------
  energy-cutoff  :      550.00
  volume of cell :     2974.14
      direct lattice vectors                 reciprocal lattice vectors
    10.507946538  0.000000000  0.000000000     0.095166072  0.052235261  0.003486120
    -5.180734767  9.438646893  0.000000000     0.000000000  0.105947390  0.001945580
    -0.796229109 -0.550671446 29.987055239     0.000000000  0.000000000  0.033347723

  length of vectors
    10.507946538 10.766989733 30.002678243     0.108615178  0.105965252  0.033347723


 FORCES acting on ions
    electron-ion (+dipol)            ewald-force                    non-local-force                 convergence-correction
 -----------------------------------------------------------------------------------------------
   -.684E+00 -.385E+01 -.805E+03   0.632E+00 0.381E+01 0.811E+03   0.200E+00 0.251E+00 -.579E+01   -.570E-03 -.565E-03 -.139E-02
   0.167E+01 -.938E+00 -.802E+03   -.172E+01 0.822E+00 0.808E+03   0.864E-01 0.170E+00 -.569E+01   0.875E-04 -.139E-03 -.959E-03
   -.248E+00 -.212E+00 -.807E+03   0.210E+00 0.153E+00 0.812E+03   0.192E+00 0.100E+00 -.579E+01   0.422E-03 0.690E-03 -.178E-03
   0.150E+01 -.318E+01 -.804E+03   -.152E+01 0.311E+01 0.809E+03   0.594E-01 0.357E+00 -.554E+01   -.546E-03 -.312E-03 -.364E-03
   -.778E+00 -.191E+01 -.804E+03   0.759E+00 0.180E+01 0.810E+03   0.282E+00 0.454E+00 -.557E+01   -.441E-03 0.205E-03 -.617E-03
   0.312E+00 -.178E+01 -.806E+03   -.343E+00 0.166E+01 0.812E+03   0.220E+00 0.502E+00 -.563E+01   0.182E-03 -.440E-03 -.502E-03
   -.186E+01 -.455E+01 -.808E+03   0.178E+01 0.456E+01 0.814E+03   0.494E+00 0.255E+00 -.554E+01   0.115E-02 -.232E-03 -.844E-03
   -.199E+01 -.100E+01 -.805E+03   0.189E+01 0.944E+00 0.811E+03   0.445E+00 0.461E-01 -.554E+01   0.350E-03 -.382E-03 0.837E-04
   -.103E+01 0.955E+00 -.807E+03   0.952E+00 -.101E+01 0.813E+03   0.304E+00 -.301E-01 -.576E+01   -.526E-03 0.126E-02 -.503E-03
   -.233E+01 -.234E+01 0.100E+03   0.219E+01 0.233E+01 -.950E+02   0.531E+00 0.199E+00 -.579E+01   0.113E-03 -.584E-03 0.696E-03
   -.685E+00 -.155E+01 0.102E+03   0.588E+00 0.150E+01 -.963E+02   0.234E+00 0.714E-01 -.564E+01   0.162E-03 -.789E-04 0.175E-02
   -.144E+01 -.373E+01 0.996E+02   0.132E+01 0.371E+01 -.942E+02   0.426E+00 0.374E+00 -.566E+01   -.763E-03 0.468E-03 0.856E-03
   0.103E+01 -.220E+01 0.980E+02   -.117E+01 0.210E+01 -.926E+02   0.268E+00 0.366E+00 -.582E+01   0.292E-03 0.146E-02 -.927E-03
   -.216E+00 -.294E+01 0.102E+03   0.107E+00 0.286E+01 -.963E+02   0.246E+00 0.408E+00 -.591E+01   0.199E-02 -.726E-03 -.543E-03
   0.109E+01 -.149E+01 0.101E+03   -.114E+01 0.144E+01 -.957E+02   0.642E-01 0.302E+00 -.565E+01   0.623E-03 0.869E-03 0.637E-03
   -.140E+00 -.220E+01 0.992E+02   0.118E-01 0.220E+01 -.937E+02   0.357E+00 0.249E+00 -.573E+01   -.391E-03 -.845E-03 0.336E-03
   0.140E+01 -.144E+01 0.993E+02   -.153E+01 0.135E+01 -.938E+02   0.201E+00 0.282E+00 -.599E+01   -.210E-02 -.479E-03 -.584E-03
   0.863E+00 -.410E+00 0.993E+02   -.101E+01 0.353E+00 -.939E+02   0.258E+00 0.309E+00 -.561E+01   0.220E-03 0.161E-04 0.136E-03
   -.128E+01 -.812E+00 -.992E+02   0.144E+01 0.884E+00 0.937E+02   -.287E+00 -.382E+00 0.572E+01   -.617E-03 -.477E-03 0.712E-03
   0.866E+00 -.276E+01 -.985E+02   -.688E+00 0.280E+01 0.929E+02   -.429E+00 -.417E-01 0.581E+01   0.326E-04 -.367E-03 0.357E-03
   0.994E-01 0.166E+00 -.988E+02   0.826E-01 -.549E-01 0.933E+02   -.461E+00 -.474E+00 0.548E+01   0.344E-03 0.746E-03 -.134E-03
   0.386E+00 0.306E-01 -.102E+03   -.186E+00 0.684E-01 0.962E+02   -.334E+00 -.423E+00 0.581E+01   -.624E-03 -.979E-04 -.305E-03
   0.105E+01 0.564E+00 -.101E+03   -.855E+00 -.516E+00 0.958E+02   -.476E+00 -.300E+00 0.569E+01   -.363E-03 0.207E-03 -.111E-03
   0.144E+01 -.243E+01 -.996E+02   -.130E+01 0.250E+01 0.941E+02   -.318E+00 0.312E-01 0.559E+01   0.231E-03 -.430E-03 0.335E-04
   0.267E+01 -.472E+00 -.993E+02   -.261E+01 0.494E+00 0.938E+02   -.424E+00 -.218E+00 0.533E+01   0.120E-02 -.249E-03 0.414E-03
   0.933E+00 0.497E+00 -.100E+03   -.834E+00 -.466E+00 0.947E+02   -.433E+00 -.370E+00 0.562E+01   0.330E-03 -.614E-03 -.619E-03
   0.599E+00 -.353E+00 -.993E+02   -.486E+00 0.392E+00 0.938E+02   -.360E+00 -.197E+00 0.552E+01   -.683E-03 0.123E-02 -.158E-04
   -.163E+01 0.466E+00 0.805E+03   0.173E+01 -.455E+00 -.810E+03   -.189E+00 -.331E+00 0.536E+01   0.177E-03 -.480E-03 0.164E-03
   0.134E+01 -.352E+01 0.808E+03   -.124E+01 0.353E+01 -.813E+03   -.487E+00 0.184E-01 0.565E+01   0.209E-03 -.694E-04 -.109E-02
   0.174E+01 -.734E+00 0.805E+03   -.166E+01 0.789E+00 -.810E+03   -.466E+00 -.274E+00 0.560E+01   -.551E-03 0.448E-03 -.105E-03
   0.306E+01 -.102E+01 0.806E+03   -.296E+01 0.106E+01 -.811E+03   -.536E+00 -.263E+00 0.554E+01   0.270E-03 0.150E-02 0.176E-02
   -.692E+00 -.231E+01 0.804E+03   0.864E+00 0.231E+01 -.809E+03   -.436E+00 -.108E-01 0.586E+01   0.187E-02 -.751E-03 0.130E-02
   0.229E+01 -.288E+00 0.805E+03   -.219E+01 0.263E+00 -.810E+03   -.441E+00 0.371E-01 0.569E+01   0.486E-03 0.766E-03 0.225E-04
   0.564E+00 -.140E+01 0.805E+03   -.533E+00 0.143E+01 -.811E+03   -.130E+00 -.661E-01 0.538E+01   -.564E-03 -.949E-03 0.352E-03
   0.417E+01 -.179E+01 0.803E+03   -.411E+01 0.186E+01 -.808E+03   -.641E+00 -.290E+00 0.556E+01   -.206E-02 -.372E-03 0.120E-02
   -.480E+00 0.302E+01 0.807E+03   0.575E+00 -.300E+01 -.812E+03   -.230E+00 -.377E+00 0.562E+01   0.381E-04 -.492E-04 0.764E-03
   -.247E+01 0.133E+01 -.452E+03   0.252E+01 -.133E+01 0.452E+03   0.114E+00 0.174E+00 0.339E+00   0.173E-03 0.442E-03 -.504E-03
   -.928E+00 0.315E+00 -.452E+03   0.945E+00 -.316E+00 0.453E+03   0.129E+00 0.370E+00 0.333E+00   0.855E-03 -.549E-03 -.497E-03
   -.155E+01 0.186E+01 -.452E+03   0.158E+01 -.177E+01 0.452E+03   0.198E+00 0.258E+00 0.350E+00   -.142E-03 0.851E-03 -.451E-03
   -.947E+00 -.118E+00 -.451E+03   0.938E+00 0.162E+00 0.451E+03   0.153E+00 0.327E+00 0.181E+00   -.682E-03 0.251E-03 -.481E-03
   -.158E+01 0.324E+01 -.451E+03   0.160E+01 -.330E+01 0.451E+03   0.244E+00 -.230E-01 0.130E+00   -.423E-03 -.474E-03 -.446E-03
   0.963E+00 0.435E+01 -.450E+03   -.977E+00 -.440E+01 0.450E+03   -.126E-01 -.217E+00 0.221E+00   0.445E-03 -.536E-04 -.364E-03
   0.156E+01 0.402E+01 -.453E+03   -.156E+01 -.412E+01 0.453E+03   -.369E-01 -.299E+00 -.138E+00   0.574E-03 -.179E-03 -.483E-03
   -.184E+00 0.329E+01 -.457E+03   0.234E+00 -.332E+01 0.457E+03   0.113E-01 -.197E-01 -.218E+00   -.425E-03 -.271E-03 -.607E-03
   -.153E+01 0.388E+01 -.454E+03   0.161E+01 -.389E+01 0.454E+03   0.120E+00 -.177E+00 0.215E+00   -.270E-03 0.429E-03 -.531E-03
   -.138E+01 0.187E+01 0.454E+03   0.142E+01 -.186E+01 -.454E+03   -.774E-01 0.453E-01 0.242E+00   0.339E-03 0.943E-03 0.610E-03
   -.424E+01 0.209E+00 0.454E+03   0.432E+01 -.194E+00 -.454E+03   0.131E+00 0.143E+00 0.263E+00   0.167E-02 -.508E-03 0.603E-03
   -.158E+01 0.227E+01 0.452E+03   0.161E+01 -.232E+01 -.452E+03   0.119E+00 0.464E-01 -.204E+00   0.119E-03 0.825E-03 0.514E-03
   0.215E+01 0.448E+01 0.452E+03   -.222E+01 -.456E+01 -.452E+03   -.287E-01 -.306E+00 0.110E+00   -.210E-03 0.878E-03 0.565E-03
   -.721E-01 -.146E+00 0.450E+03   0.137E+00 0.139E+00 -.450E+03   0.155E+00 0.175E-01 -.243E-02   0.189E-04 -.167E-03 0.498E-03
   -.160E+01 0.758E+01 0.452E+03   0.168E+01 -.771E+01 -.452E+03   0.120E+00 -.435E+00 -.129E+00   0.118E-02 -.272E-03 0.520E-03
   -.639E+00 0.307E+01 0.453E+03   0.610E+00 -.312E+01 -.453E+03   -.214E+00 0.851E-01 0.226E+00   -.178E-03 -.575E-03 0.626E-03
   0.419E+00 0.147E+01 0.454E+03   -.372E+00 -.152E+01 -.454E+03   0.819E-01 0.131E+00 0.262E+00   -.168E-02 -.564E-03 0.583E-03
   0.108E+01 0.411E+01 0.452E+03   -.113E+01 -.414E+01 -.452E+03   -.355E-01 -.391E-01 -.162E+00   -.129E-02 -.299E-03 0.526E-03
 -----------------------------------------------------------------------------------------------
   0.104E+01 -.822E+00 -.243E+00   -.624E-13 0.568E-13 -.227E-12   -.104E+01 0.817E+00 0.243E+00   0.516E-04 0.895E-03 0.247E-02
 
 
 POSITION                                       TOTAL-FORCE (eV/Angst)
 -----------------------------------------------------------------------------------
      1.22436      0.66892     20.48268         0.139480      0.208712     -0.403374
     -0.49697      3.83837     20.45236         0.025565      0.054492     -0.234938
     -2.22836      6.97900     20.49220         0.145498      0.043840     -0.438910
      4.73527      0.66143     20.45604         0.041168      0.282549     -0.027685
      2.98249      3.80752     20.45951         0.249329      0.333195     -0.061257
      1.27289      6.94444     20.48121         0.182725      0.380411     -0.221409
      8.21757      0.66520     20.48628         0.392288      0.256590     -0.190657
      6.50111      3.85165     20.46516         0.338361     -0.011926     -0.095336
      4.77360      7.00152     20.49301         0.215420     -0.079224     -0.409400
      0.22491      0.81659     13.13230         0.348290      0.184838     -0.287089
     -1.48065      3.97233     13.11403         0.102240      0.028512     -0.112122
     -3.21206      7.10133     13.13704         0.263207      0.350273     -0.155974
      3.74735      0.81126     13.15484         0.094806      0.266606     -0.361649
      2.00817      3.95275     13.14040         0.099811      0.322322     -0.381266
      0.30606      7.12222     13.11901        -0.021848      0.252179     -0.083934
      7.25565      0.80565     13.13004         0.199580      0.243552     -0.207311
      5.54366      3.95361     13.15717         0.040725      0.182530     -0.453031
      3.80950      7.10481     13.13456         0.079262      0.247927     -0.113163
      1.29485      0.74919     16.84726        -0.100414     -0.297461      0.138392
     -0.42518      3.86782     16.83895        -0.222006      0.000163      0.187880
     -2.14404      7.05180     16.85794        -0.243445     -0.347081     -0.075309
      4.80495      0.76794     16.86561        -0.100665     -0.307243      0.211938
      3.09685      3.90166     16.86741        -0.242226     -0.237512      0.090630
      1.35135      7.01766     16.86674        -0.148563      0.108786     -0.004855
      8.32042      0.71938     16.87305        -0.330559     -0.190832     -0.218696
      6.60151      3.89629     16.86018        -0.290813     -0.327075      0.042564
      4.85939      7.02360     16.86070        -0.212653     -0.148034     -0.023710
      0.31825      0.88293      9.52877        -0.092357     -0.306885     -0.123054
     -1.38716      3.99871      9.48874        -0.375459      0.035211      0.224517
     -3.10107      7.17949      9.51304        -0.371793     -0.203366      0.174155
      3.85501      0.91005      9.50680        -0.421270     -0.207204      0.149800
      2.11343      4.02178      9.49729        -0.254364     -0.003061      0.435543
      0.37797      7.15972      9.50845        -0.335933      0.019608      0.251761
      7.32066      0.84967      9.52721        -0.097595     -0.033166     -0.090168
      5.64643      4.04480      9.52721        -0.554229     -0.210401      0.119163
      3.88071      7.18357      9.50020        -0.129365     -0.341831      0.230955
      4.82771      9.06949     18.64917         0.174704      0.160849      0.473125
      8.28109      2.75773     18.64329         0.148822      0.373016      0.499889
      6.55596      5.92962     18.64742         0.230154      0.330784      0.485855
     -2.18720      9.06236     18.65201         0.152624      0.374490      0.254586
      1.26548      2.78826     18.64666         0.268972     -0.091253      0.171135
     -0.44868      5.95408     18.64506        -0.025457     -0.281496      0.274075
      1.33745      9.09350     18.67664        -0.056828     -0.412653     -0.231800
      4.78656      2.80292     18.68212         0.043882     -0.063422     -0.217170
      3.05323      5.95261     18.65981         0.202291     -0.200827      0.324057
     -3.13421      9.22685     11.31029        -0.048534      0.048685      0.251673
      0.28960      2.92169     11.30057         0.228358      0.153270      0.340352
     -1.42844      6.06628     11.33008         0.154649     -0.012230     -0.264312
      5.52891     -0.18934     11.31672        -0.084691     -0.402293      0.114470
      3.80187      2.93599     11.33459         0.215390      0.012661     -0.014752
      2.07789      6.11142     11.32696         0.202398     -0.580084     -0.199822
      3.86970      9.20680     11.31026        -0.247273      0.040811      0.242178
      7.31485      2.91329     11.30574         0.116271      0.076761      0.304849
      5.59095      6.08473     11.33822        -0.087900     -0.081305     -0.288925
 -----------------------------------------------------------------------------------
    total drift:                                0.000031     -0.004242      0.002467


--------------------------------------------------------------------------------------------------------



  FREE ENERGIE OF THE ION-ELECTRON SYSTEM (eV)
  ---------------------------------------------------
  free  energy   TOTEN  =      -342.06176900 eV

  energy  without entropy=     -342.06176900  energy(sigma->0) =     -342.06176900
 
 d Force =-0.1687464E-01[-0.191E-01,-0.147E-01]  d Energy =-0.1683177E-01-0.429E-04
 d Force =-0.1533582E+01[-0.154E+01,-0.153E+01]  d Ewald  =-0.1533577E+01-0.487E-05


--------------------------------------------------------------------------------------------------------


    POTLOK:  cpu time    0.2930: real time    0.2933


--------------------------------------------------------------------------------------------------------


           RANDOM_SEED =         815834686              324                0
   IONSTEP:  cpu time    0.0001: real time    0.0001

  ENERGY OF THE ELECTRON-ION-THERMOSTAT SYSTEM (eV)
  ---------------------------------------------------
% ion-electron   TOTEN  =      -342.061769  see above
  kinetic energy EKIN   =         0.624167
  kin. lattice  EKIN_LAT=         0.000000  (temperature   91.11 K)
  nose potential ES     =         0.000244
  nose kinetic   EPS    =         0.000197
  ---------------------------------------------------
  total energy   ETOTAL =      -341.437161 eV

  maximum distance moved by ions :      0.58E-03


 mean value of Nose-termostat <S>:     0.998 mean value of <T> :    91.108
 mean temperature <T/S>/<1/S>  :    91.108

    WAVPRE:  cpu time    0.1044: real time    0.1074
    FEWALD:  cpu time    0.0057: real time    0.0057
    ORTHCH:  cpu time    8.1366: real time    8.1657
    POTLOK:  cpu time    0.2980: real time    0.2983
    EDDIAG:  cpu time    2.6219: real time    2.6245
     LOOP+:  cpu time  486.2100: real time  487.5153
    4ORBIT:  cpu time    0.0000: real time    0.0000

 total amount of memory used by VASP MPI-rank0   367065. kBytes
=======================================================================

   base      :      30000. kBytes
   nonl-proj :     200908. kBytes
   fftplans  :      17372. kBytes
   grid      :      82746. kBytes
   one-center:        839. kBytes
   wavefun   :      35200. kBytes
 
  
  
 General timing and accounting informations for this job:
 ========================================================
  
                  Total CPU time used (sec):     5919.295
                            User time (sec):     5905.401
                          System time (sec):       13.895
                         Elapsed time (sec):     5938.663
  
                   Maximum memory used (kb):      808708.
                   Average memory used (kb):           0.
  
                          Minor page faults:       439281
                          Major page faults:            0
                 Voluntary context switches:        15225
