-3.345892347899999777e+02
-3.345858457799999996e+02
-3.345771575900000130e+02
-3.345632806200000005e+02
-3.345447018699999830e+02
-3.345216555999999741e+02
-3.344947287300000198e+02
-3.344647448900000200e+02
-3.344323794700000008e+02
-3.343980162799999789e+02
-3.295415218599999889e+02
-3.295355043700000124e+02
-3.295475089799999751e+02
-3.295776767500000233e+02
-3.296253730999999902e+02
-3.296896511400000236e+02
-3.297696021400000177e+02
-3.298637473000000000e+02
-3.299702005299999996e+02
-3.300868353500000012e+02
-3.308961662300000057e+02
-3.309030077300000130e+02
-3.309140688200000113e+02
-3.309290708099999847e+02
-3.309478593399999795e+02
-3.309701342999999838e+02
-3.309955191999999897e+02
-3.310233778699999903e+02
-3.310536526800000274e+02
-3.310859053699999777e+02
-3.276631539100000055e+02
-3.277149586200000044e+02
-3.277952918799999793e+02
-3.279020702400000005e+02
-3.280321226300000035e+02
-3.281819033799999943e+02
-3.283464488700000175e+02
-3.285212240800000245e+02
-3.287008564399999955e+02
-3.288806433099999822e+02
-3.312942951699999981e+02
-3.313230408599999919e+02
-3.313647548399999891e+02
-3.314179236100000026e+02
-3.314809467399999789e+02
-3.315519323299999996e+02
-3.316287540999999806e+02
-3.317090214199999991e+02
-3.317906266400000277e+02
-3.318717707199999722e+02
-3.306792880900000000e+02
-3.306785667899999908e+02
-3.306836102899999901e+02
-3.306944466300000158e+02
-3.307108863600000177e+02
-3.307323005499999908e+02
-3.307583819800000242e+02
-3.307889223099999754e+02
-3.308230562100000043e+02
-3.308601756599999817e+02
-3.307275458799999797e+02
-3.307135366300000214e+02
-3.307055902500000002e+02
-3.307036623899999768e+02
-3.307079992600000082e+02
-3.307187059099999829e+02
-3.307358655500000282e+02
-3.307597613699999783e+02
-3.307903460100000075e+02
-3.308279597499999909e+02
-3.288570357400000148e+02
-3.289190301599999771e+02
-3.290152926200000252e+02
-3.291431820500000072e+02
-3.292988073299999883e+02
-3.294776777600000059e+02
-3.296739430200000243e+02
-3.298821159999999963e+02
-3.300956141699999762e+02
-3.303088043000000198e+02
-3.291910882700000229e+02
-3.292066287600000010e+02
-3.292298864900000126e+02
-3.292600205300000198e+02
-3.292960360600000058e+02
-3.293366929499999856e+02
-3.293809090799999808e+02
-3.294273866300000009e+02
-3.294750552200000016e+02
-3.295229336500000272e+02
-3.276603919300000030e+02
-3.276639086399999883e+02
-3.276700640399999997e+02
-3.276786910399999897e+02
-3.276897367999999915e+02
-3.277032472099999723e+02
-3.277189566600000035e+02
-3.277369429799999807e+02
-3.277570871600000260e+02
-3.277793073799999775e+02
-3.163118653999999879e+02
-3.163141520300000025e+02
-3.163207333799999788e+02
-3.163314046799999915e+02
-3.163460525400000165e+02
-3.163644005200000038e+02
-3.163862676900000110e+02
-3.164117615399999863e+02
-3.164407455599999821e+02
-3.164728933700000084e+02
-3.277019735299999752e+02
-3.277144134999999778e+02
-3.277339183299999945e+02
-3.277599306800000249e+02
-3.277923238899999774e+02
-3.278304288799999995e+02
-3.278741535099999851e+02
-3.279227210099999752e+02
-3.279758400000000051e+02
-3.280327899499999944e+02
-3.266110989399999767e+02
-3.266273222799999871e+02
-3.266666630700000269e+02
-3.267287152600000013e+02
-3.268126993500000026e+02
-3.269170044800000028e+02
-3.270403266899999721e+02
-3.271804386200000181e+02
-3.273347229999999968e+02
-3.275001482700000111e+02
-3.283591084199999841e+02
-3.283806632199999740e+02
-3.284123434800000041e+02
-3.284538393799999767e+02
-3.285048765199999821e+02
-3.285653972999999723e+02
-3.286349630500000103e+02
-3.287129834400000163e+02
-3.287986427899999740e+02
-3.288911961700000006e+02
-3.209536042299999963e+02
-3.210069643799999994e+02
-3.211013924599999996e+02
-3.212358866100000228e+02
-3.214087450100000183e+02
-3.216172406499999852e+02
-3.218571264099999780e+02
-3.221228735999999913e+02
-3.224078746600000045e+02
-3.227045230900000092e+02
-3.286602832099999887e+02
-3.287138376099999846e+02
-3.287983543400000030e+02
-3.289125524599999721e+02
-3.290541008600000055e+02
-3.292198355799999945e+02
-3.294055488899999773e+02
-3.296061495999999806e+02
-3.298161017099999981e+02
-3.300298619199999735e+02
-3.301676881299999877e+02
-3.301732572600000140e+02
-3.301876093000000196e+02
-3.302100816199999826e+02
-3.302397238899999934e+02
-3.302753865099999757e+02
-3.303157535999999936e+02
-3.303591059099999825e+02
-3.304039523000000145e+02
-3.304485469599999874e+02
-3.290825685899999939e+02
-3.290898183200000062e+02
-3.291040881600000034e+02
-3.291251475299999925e+02
-3.291527090499999986e+02
-3.291861610700000256e+02
-3.292248739699999760e+02
-3.292678504300000100e+02
-3.293140068800000222e+02
-3.293627000700000167e+02
-3.254368532500000128e+02
-3.254717859400000179e+02
-3.255335256600000093e+02
-3.256215901599999825e+02
-3.257348157700000115e+02
-3.258715966199999912e+02
-3.260299050300000090e+02
-3.262065374800000086e+02
-3.263979258300000197e+02
-3.266000028299999940e+02
-3.259643709399999807e+02
-3.260032164699999839e+02
-3.260574610699999880e+02
-3.261264474399999926e+02
-3.262094005000000152e+02
-3.263052684599999793e+02
-3.264125081700000237e+02
-3.265295609699999773e+02
-3.266545394099999839e+02
-3.267853218100000277e+02
-3.048130040099999860e+02
-3.049965334400000074e+02
-3.054626770500000248e+02
-3.061913005100000191e+02
-3.071420356400000173e+02
-3.082503345999999738e+02
-3.094341712400000119e+02
-3.106060705500000267e+02
-3.116961676700000226e+02
-3.126641061899999841e+02
-3.225403590799999733e+02
-3.225804299800000194e+02
-3.226549429600000281e+02
-3.227630414500000029e+02
-3.229039136499999927e+02
-3.230752208399999859e+02
-3.232741630900000018e+02
-3.234967140900000118e+02
-3.237377996199999757e+02
-3.239916959999999904e+02
-3.277637264599999867e+02
-3.277842892900000038e+02
-3.278149395600000275e+02
-3.278546701500000040e+02
-3.279024153099999808e+02
-3.279572027400000138e+02
-3.280178452000000107e+02
-3.280828970700000013e+02
-3.281513017199999922e+02
-3.282220771500000183e+02
-3.246802450399999884e+02
-3.247076774899999805e+02
-3.247481522300000165e+02
-3.248008897600000182e+02
-3.248646396199999913e+02
-3.249384520099999918e+02
-3.250203058800000235e+02
-3.251088339799999858e+02
-3.252027907500000197e+02
-3.253002276500000107e+02
-3.280873838499999806e+02
-3.281268844200000103e+02
-3.282004102999999873e+02
-3.283056367199999954e+02
-3.284391092299999855e+02
-3.285960175600000071e+02
-3.287710192600000028e+02
-3.289581957899999907e+02
-3.291511907500000120e+02
-3.293443844199999830e+02
-3.333780232099999807e+02
-3.333790338800000086e+02
-3.333786407700000041e+02
-3.333768281800000182e+02
-3.333737312700000075e+02
-3.333697081099999764e+02
-3.333646682599999735e+02
-3.333588735000000156e+02
-3.333526113400000099e+02
-3.333462122500000078e+02
-3.085309447999999861e+02
-3.087733393400000068e+02
-3.092641083999999978e+02
-3.099801389900000004e+02
-3.108804477300000144e+02
-3.119039000299999884e+02
-3.129752203699999882e+02
-3.140214845900000000e+02
-3.149869381999999973e+02
-3.158414394499999958e+02
-3.303081549600000244e+02
-3.303146114400000215e+02
-3.303252932500000156e+02
-3.303400218699999868e+02
-3.303585482299999967e+02
-3.303807861299999900e+02
-3.304062647399999832e+02
-3.304345026600000210e+02
-3.304653602099999716e+02
-3.304984130400000026e+02
-3.257477579399999854e+02
-3.257914708800000199e+02
-3.258594418600000040e+02
-3.259508067900000015e+02
-3.260643519800000263e+02
-3.261980573600000071e+02
-3.263499421299999881e+02
-3.265172836899999993e+02
-3.266962138100000175e+02
-3.268830804099999909e+02
-3.215854990799999769e+02
-3.216596591100000069e+02
-3.217745942899999818e+02
-3.219250140899999906e+02
-3.221039149599999973e+02
-3.223028669299999933e+02
-3.225132805299999745e+02
-3.227269648800000255e+02
-3.229361749999999915e+02
-3.231353302499999813e+02
-3.096274023600000191e+02
-3.099207690100000150e+02
-3.104654262799999742e+02
-3.112353696299999797e+02
-3.121855958200000032e+02
-3.132507651700000224e+02
-3.143534180099999844e+02
-3.154199947600000087e+02
-3.163977227699999730e+02
-3.172606093200000146e+02
-3.147551479800000038e+02
-3.150000693900000215e+02
-3.154464969399999745e+02
-3.160712779099999921e+02
-3.168363738300000136e+02
-3.176900490200000036e+02
-3.185730341299999964e+02
-3.194300452300000188e+02
-3.202199381500000186e+02
-3.209212165700000128e+02
-3.264771324600000071e+02
-3.264787492300000054e+02
-3.264983407400000033e+02
-3.265357163200000059e+02
-3.265904540600000132e+02
-3.266619145899999808e+02
-3.267493602900000269e+02
-3.268510730200000012e+02
-3.269656125600000109e+02
-3.270913091799999961e+02
-3.278763137799999754e+02
-3.279252838099999963e+02
-3.279995033399999897e+02
-3.280970508199999927e+02
-3.282151507099999890e+02
-3.283502167999999983e+02
-3.284986005499999919e+02
-3.286556363099999771e+02
-3.288170769800000244e+02
-3.289791350500000249e+02
-3.320527401800000007e+02
-3.320611905999999749e+02
-3.320718130700000188e+02
-3.320844400099999802e+02
-3.320991406399999732e+02
-3.321159080400000221e+02
-3.321348679500000003e+02
-3.321563114900000073e+02
-3.321801687500000071e+02
-3.322067533800000092e+02
-3.254058958200000120e+02
-3.254212952799999812e+02
-3.254588036499999930e+02
-3.255174892300000238e+02
-3.255964284500000190e+02
-3.256939532299999769e+02
-3.258083285199999750e+02
-3.259372838799999954e+02
-3.260783144299999776e+02
-3.262285152200000198e+02
-3.247856366400000070e+02
-3.249111507800000140e+02
-3.251080684500000189e+02
-3.253677195999999867e+02
-3.256782788699999855e+02
-3.260244313300000272e+02
-3.263891517999999792e+02
-3.267548873700000058e+02
-3.271063124300000027e+02
-3.274322713799999747e+02
-3.168858812199999875e+02
-3.170654361699999981e+02
-3.174236656100000005e+02
-3.179444990000000075e+02
-3.186009863200000041e+02
-3.193542181700000242e+02
-3.201565397100000041e+02
-3.209593470099999877e+02
-3.217210806800000000e+02
-3.224147808800000234e+02
-3.298384728500000165e+02
-3.298676653499999816e+02
-3.299192536599999812e+02
-3.299928502800000274e+02
-3.300871970499999861e+02
-3.302007155699999998e+02
-3.303315189300000156e+02
-3.304769608999999946e+02
-3.306338498800000139e+02
-3.307989215399999807e+02
-3.272520094600000107e+02
-3.272781548699999803e+02
-3.273186513399999740e+02
-3.273732166300000017e+02
-3.274412845900000093e+02
-3.275216977900000188e+02
-3.276133984800000007e+02
-3.277150884499999961e+02
-3.278251486199999931e+02
-3.279417905999999903e+02
-3.288386279200000217e+02
-3.288398283000000220e+02
-3.288480781800000159e+02
-3.288632228399999917e+02
-3.288849729500000194e+02
-3.289130256000000259e+02
-3.289471907999999871e+02
-3.289869863499999951e+02
-3.290321195600000124e+02
-3.290821619299999838e+02
-3.295405040200000144e+02
-3.295424014999999827e+02
-3.295564245499999743e+02
-3.295826851900000065e+02
-3.296207521200000201e+02
-3.296705870700000105e+02
-3.297316710399999806e+02
-3.298027978999999732e+02
-3.298840066800000272e+02
-3.299739905100000215e+02
-3.271048182999999767e+02
-3.271389981099999886e+02
-3.271999416500000279e+02
-3.272851787199999762e+02
-3.273909259000000134e+02
-3.275128602899999919e+02
-3.276460744099999829e+02
-3.277850627000000259e+02
-3.279242151999999919e+02
-3.280589633700000149e+02
-3.258877987800000255e+02
-3.259326085000000148e+02
-3.259952682499999810e+02
-3.260753024399999731e+02
-3.261715558899999792e+02
-3.262827823299999750e+02
-3.264074264399999947e+02
-3.265436209999999733e+02
-3.266891167100000075e+02
-3.268416545300000280e+02
-3.250355796599999962e+02
-3.250760537099999965e+02
-3.251560880700000098e+02
-3.252719320900000071e+02
-3.254183137200000147e+02
-3.255887438099999827e+02
-3.257758651400000076e+02
-3.259718131000000199e+02
-3.261693641200000116e+02
-3.263622737000000029e+02
-3.166117568999999889e+02
-3.167526288399999999e+02
-3.170869328200000155e+02
-3.175895265099999847e+02
-3.182212540500000273e+02
-3.189304841200000169e+02
-3.196612121399999751e+02
-3.203618904100000009e+02
-3.209962330500000007e+02
-3.215472714699999983e+02
-3.287288262600000053e+02
-3.287611355600000138e+02
-3.288127640399999905e+02
-3.288834601500000190e+02
-3.289722354200000041e+02
-3.290781217100000049e+02
-3.291994637899999816e+02
-3.293345064499999921e+02
-3.294809783800000105e+02
-3.296361856500000158e+02
-3.288128180499999758e+02
-3.288279395999999792e+02
-3.288496006799999805e+02
-3.288772522300000105e+02
-3.289101953800000047e+02
-3.289475455200000056e+02
-3.289882776000000035e+02
-3.290311595499999839e+02
-3.290750940400000104e+02
-3.291187232699999754e+02
-3.278076796299999955e+02
-3.278301614700000073e+02
-3.278701160200000118e+02
-3.279268018399999960e+02
-3.279997016199999962e+02
-3.280879677400000105e+02
-3.281902205399999843e+02
-3.283049312499999814e+02
-3.284306190799999854e+02
-3.285651677000000177e+02
-3.319252879200000166e+02
-3.319296494000000166e+02
-3.319320627500000001e+02
-3.319325486000000183e+02
-3.319307831799999917e+02
-3.319266800500000159e+02
-3.319204979300000105e+02
-3.319123230999999805e+02
-3.319022456600000055e+02
-3.318903857000000244e+02
-3.276872771499999999e+02
-3.276838509300000055e+02
-3.276816767500000083e+02
-3.276808779400000162e+02
-3.276816008800000191e+02
-3.276841858799999727e+02
-3.276889954000000102e+02
-3.276963402599999995e+02
-3.277068902299999991e+02
-3.277206278900000029e+02
-3.270849935300000197e+02
-3.271301090900000190e+02
-3.271883988700000145e+02
-3.272586052699999755e+02
-3.273386745600000154e+02
-3.274264876999999956e+02
-3.275200588600000060e+02
-3.276171992899999736e+02
-3.277160852399999840e+02
-3.278148310600000173e+02
-3.253590553299999897e+02
-3.253554730000000177e+02
-3.253640824099999804e+02
-3.253853881200000160e+02
-3.254195232700000133e+02
-3.254666824399999996e+02
-3.255269250000000056e+02
-3.255999956800000064e+02
-3.256859057500000176e+02
-3.257840937500000109e+02
-3.271078071700000010e+02
-3.271181745700000079e+02
-3.271586897299999919e+02
-3.272286898799999904e+02
-3.273277593400000001e+02
-3.274544210099999759e+02
-3.276064218000000210e+02
-3.277811207999999965e+02
-3.279749246399999834e+02
-3.281832363999999984e+02
-3.248197952300000111e+02
-3.248698869699999818e+02
-3.249487873300000160e+02
-3.250545486199999914e+02
-3.251844908200000077e+02
-3.253348172799999816e+02
-3.255011224799999923e+02
-3.256785337499999855e+02
-3.258619672799999876e+02
-3.260468020399999887e+02
-3.299202377999999953e+02
-3.299416879500000164e+02
-3.299722470899999962e+02
-3.300110513600000104e+02
-3.300567310299999804e+02
-3.301079842899999903e+02
-3.301629404899999827e+02
-3.302198684800000024e+02
-3.302770925799999873e+02
-3.303326095900000041e+02
-3.244181860799999981e+02
-3.244279728000000205e+02
-3.244682805099999996e+02
-3.245373342699999739e+02
-3.246320440499999904e+02
-3.247487395599999900e+02
-3.248827861199999916e+02
-3.250289160799999877e+02
-3.251818806100000074e+02
-3.253367037599999776e+02
-3.265800195900000062e+02
-3.266452684899999781e+02
-3.267573989599999891e+02
-3.269133499000000143e+02
-3.271083579900000018e+02
-3.273354941900000199e+02
-3.275864839000000188e+02
-3.278520218599999794e+02
-3.281227287599999727e+02
-3.283900780600000076e+02
-3.314866891400000100e+02
-3.314868238500000075e+02
-3.314907467200000042e+02
-3.314980544000000009e+02
-3.315082805900000267e+02
-3.315208344399999874e+02
-3.315354958600000259e+02
-3.315516461500000105e+02
-3.315686923700000079e+02
-3.315860908799999720e+02
-3.240850014299999771e+02
-3.241200185899999724e+02
-3.241732005000000072e+02
-3.242438885400000004e+02
-3.243312370300000111e+02
-3.244338586499999906e+02
-3.245499245699999733e+02
-3.246772312300000181e+02
-3.248131400999999983e+02
-3.249551405999999929e+02
-3.309914933000000019e+02
-3.310224798699999837e+02
-3.310645584399999848e+02
-3.311169017400000030e+02
-3.311785713099999953e+02
-3.312488349700000185e+02
-3.313263721700000133e+02
-3.314102272999999741e+02
-3.314988624100000152e+02
-3.315910498800000141e+02
-3.314553599500000018e+02
-3.314803753099999994e+02
-3.315081816300000241e+02
-3.315380299899999841e+02
-3.315689291900000057e+02
-3.315998980599999868e+02
-3.316301881499999809e+02
-3.316589762099999916e+02
-3.316855528500000219e+02
-3.317093436900000256e+02
-3.275670968399999765e+02
-3.275826751899999749e+02
-3.276170050399999809e+02
-3.276696308100000010e+02
-3.277397594099999765e+02
-3.278268802800000117e+02
-3.279296067199999811e+02
-3.280464280499999745e+02
-3.281749991600000271e+02
-3.283133333700000094e+02
-3.268718126300000222e+02
-3.269237850000000094e+02
-3.269942586799999731e+02
-3.270825904800000217e+02
-3.271875111699999934e+02
-3.273077136200000155e+02
-3.274410574899999915e+02
-3.275852888800000073e+02
-3.277377708099999722e+02
-3.278956770899999924e+02
-3.239700736199999938e+02
-3.239694985400000178e+02
-3.239759994400000096e+02
-3.239897925899999791e+02
-3.240107425799999987e+02
-3.240390187400000173e+02
-3.240743374400000221e+02
-3.241164381300000059e+02
-3.241652381700000092e+02
-3.242201124299999719e+02
-3.288422208100000148e+02
-3.288961659500000110e+02
-3.289886041799999816e+02
-3.291158356700000240e+02
-3.292727652300000045e+02
-3.294529716900000267e+02
-3.296490022599999747e+02
-3.298531419700000242e+02
-3.300582137900000248e+02
-3.302576039200000082e+02
-3.245528477199999884e+02
-3.245886123099999736e+02
-3.246578100699999823e+02
-3.247596828100000153e+02
-3.248931585099999779e+02
-3.250560557100000096e+02
-3.252456694200000129e+02
-3.254577939999999785e+02
-3.256876101799999788e+02
-3.259295637000000170e+02
-3.274544069799999875e+02
-3.274787337000000207e+02
-3.275178914400000281e+02
-3.275717806600000017e+02
-3.276393115399999942e+02
-3.277199128899999891e+02
-3.278125620199999730e+02
-3.279155809100000170e+02
-3.280269450700000107e+02
-3.281445991400000253e+02
-3.301222321500000021e+02
-3.301374807299999929e+02
-3.301628309199999762e+02
-3.301982552299999725e+02
-3.302434593899999982e+02
-3.302975499199999945e+02
-3.303595962100000065e+02
-3.304292291300000102e+02
-3.305050640300000282e+02
-3.305863910599999826e+02
-3.255169041799999832e+02
-3.255309756799999832e+02
-3.255706326000000104e+02
-3.256357179299999984e+02
-3.257253738100000078e+02
-3.258385679400000186e+02
-3.259734659999999735e+02
-3.261279979199999843e+02
-3.262991064299999948e+02
-3.264830492799999888e+02
-3.270405373300000065e+02
-3.270973012300000278e+02
-3.272036413899999729e+02
-3.273570901800000001e+02
-3.275535588999999845e+02
-3.277869989399999895e+02
-3.280501090100000283e+02
-3.283334606099999746e+02
-3.286274303899999722e+02
-3.289221551300000215e+02
-3.255577346000000034e+02
-3.256305971300000124e+02
-3.257560249699999986e+02
-3.259304055399999811e+02
-3.261478751700000203e+02
-3.264002550800000222e+02
-3.266774812500000280e+02
-3.269680572999999981e+02
-3.272610232399999859e+02
-3.275465130300000283e+02
-3.248560793400000080e+02
-3.248979485599999748e+02
-3.249649552500000027e+02
-3.250552900399999885e+02
-3.251662642399999754e+02
-3.252939347700000212e+02
-3.254355430800000022e+02
-3.255866787799999997e+02
-3.257431718999999930e+02
-3.259014813000000004e+02
-3.300943686200000116e+02
-3.301074485699999741e+02
-3.301323212400000102e+02
-3.301686471599999777e+02
-3.302161190900000065e+02
-3.302743365399999789e+02
-3.303428309000000240e+02
-3.304209692499999846e+02
-3.305079431500000169e+02
-3.306030453100000273e+02
-3.284277412100000220e+02
-3.284362932299999898e+02
-3.284465612500000020e+02
-3.284583859300000199e+02
-3.284717529299999796e+02
-3.284864684600000260e+02
-3.285023149400000193e+02
-3.285190779100000213e+02
-3.285367558400000121e+02
-3.285551592400000231e+02
-3.291463012599999729e+02
-3.291702707300000270e+02
-3.292036212900000010e+02
-3.292451702500000010e+02
-3.292941006500000185e+02
-3.293488032299999873e+02
-3.294078403999999978e+02
-3.294696306899999740e+02
-3.295326931199999763e+02
-3.295955819999999790e+02
-3.263442388000000278e+02
-3.264213996099999804e+02
-3.265683786199999759e+02
-3.267797189699999763e+02
-3.270472551799999792e+02
-3.273606041099999970e+02
-3.277065194599999813e+02
-3.280702250599999843e+02
-3.284365545599999905e+02
-3.287927432500000009e+02
-3.242979506799999854e+02
-3.242917729800000188e+02
-3.243060886800000162e+02
-3.243409930799999756e+02
-3.243953793599999926e+02
-3.244682348700000034e+02
-3.245577942099999973e+02
-3.246620499200000154e+02
-3.247782258799999795e+02
-3.249033964899999773e+02
-3.166815346899999781e+02
-3.167592312400000196e+02
-3.169779226200000153e+02
-3.173295318099999918e+02
-3.177978413800000226e+02
-3.183591031199999861e+02
-3.189827695999999833e+02
-3.196327267600000255e+02
-3.202734677199999851e+02
-3.208771616600000129e+02
-3.272549195500000110e+02
-3.272838282700000150e+02
-3.273272917499999721e+02
-3.273848193499999866e+02
-3.274554331100000013e+02
-3.275382791299999781e+02
-3.276321116999999958e+02
-3.277351309499999843e+02
-3.278455373900000041e+02
-3.279612541299999862e+02
-3.259001728100000150e+02
-3.259210299299999747e+02
-3.259568391399999996e+02
-3.260073011999999721e+02
-3.260720893800000226e+02
-3.261506591400000161e+02
-3.262421166199999902e+02
-3.263455072799999925e+02
-3.264591952800000172e+02
-3.265816672999999923e+02
-3.197075013499999727e+02
-3.198735247600000093e+02
-3.201700973399999839e+02
-3.205771871100000112e+02
-3.210659726100000171e+02
-3.216013456399999768e+02
-3.221467763800000057e+02
-3.226697697999999832e+02
-3.231470648999999753e+02
-3.235670337099999756e+02
-3.151908128300000271e+02
-3.154164180800000281e+02
-3.158119180499999743e+02
-3.163545562099999984e+02
-3.170101602299999968e+02
-3.177332400399999983e+02
-3.184756542499999910e+02
-3.191935776099999771e+02
-3.198543855400000098e+02
-3.204408085900000174e+02
-3.321196761699999911e+02
-3.321316496399999778e+02
-3.321478683700000261e+02
-3.321679564799999866e+02
-3.321913972699999817e+02
-3.322178302300000041e+02
-3.322469607400000200e+02
-3.322783062500000142e+02
-3.323112977800000181e+02
-3.323456855200000177e+02
-3.295836576099999888e+02
-3.295870256399999789e+02
-3.296022187699999790e+02
-3.296289558999999940e+02
-3.296667029700000171e+02
-3.297145886000000132e+02
-3.297714515100000199e+02
-3.298359813700000132e+02
-3.299068737299999725e+02
-3.299825549600000159e+02
-3.272546122900000114e+02
-3.273195733700000005e+02
-3.274288145699999859e+02
-3.275791780600000038e+02
-3.277659451800000170e+02
-3.279829727900000194e+02
-3.282223061999999913e+02
-3.284756173100000183e+02
-3.287339711899999770e+02
-3.289891285799999991e+02
-3.250177455400000213e+02
-3.250890414400000168e+02
-3.251919883799999980e+02
-3.253240674799999965e+02
-3.254816561600000000e+02
-3.256603838899999914e+02
-3.258553211299999930e+02
-3.260608501400000137e+02
-3.262718931100000077e+02
-3.264833033400000204e+02
-3.159785921600000052e+02
-3.160502623500000254e+02
-3.161950269600000070e+02
-3.164084015600000157e+02
-3.166833663400000205e+02
-3.170094222700000159e+02
-3.173744444600000065e+02
-3.177633210199999780e+02
-3.181592742000000271e+02
-3.185481307200000174e+02
-3.273363471499999946e+02
-3.273646190900000192e+02
-3.274065157399999748e+02
-3.274616203200000086e+02
-3.275290800399999966e+02
-3.276081766799999855e+02
-3.276976209000000040e+02
-3.277955068499999811e+02
-3.279006757999999877e+02
-3.280115717200000063e+02
-3.260469424400000094e+02
-3.260883231600000158e+02
-3.261751851600000123e+02
-3.263043050399999743e+02
-3.264710014799999840e+02
-3.266694193800000221e+02
-3.268918462799999816e+02
-3.271299143300000196e+02
-3.273753899999999817e+02
-3.276202724099999841e+02
-3.160763570600000207e+02
-3.162684856600000103e+02
-3.166212759200000164e+02
-3.171191918499999929e+02
-3.177372039300000210e+02
-3.184397457300000269e+02
-3.191842485899999815e+02
-3.199269463800000040e+02
-3.206311612900000227e+02
-3.212729191500000070e+02
-3.275650201500000094e+02
-3.276054400200000032e+02
-3.276706765999999789e+02
-3.277598176199999784e+02
-3.278718481000000224e+02
-3.280047735599999896e+02
-3.281565114699999981e+02
-3.283237528799999723e+02
-3.285033396200000197e+02
-3.286911546499999872e+02
-3.298510666000000242e+02
-3.298727400700000203e+02
-3.299019678500000055e+02
-3.299380469899999753e+02
-3.299809323299999733e+02
-3.300306611799999814e+02
-3.300866079499999728e+02
-3.301487836300000254e+02
-3.302164679200000137e+02
-3.302893027599999982e+02
-3.285534389900000178e+02
-3.285548665800000094e+02
-3.285643800799999781e+02
-3.285813105899999869e+02
-3.286053434400000128e+02
-3.286358738000000130e+02
-3.286721964299999854e+02
-3.287132045600000083e+02
-3.287578983999999878e+02
-3.288052970699999946e+02
-3.225745425399999817e+02
-3.226695258299999978e+02
-3.228620859900000255e+02
-3.231448313700000199e+02
-3.235054471799999760e+02
-3.239266549299999838e+02
-3.243878247399999850e+02
-3.248657032599999752e+02
-3.253380427800000234e+02
-3.257868598499999848e+02
-3.204748770200000081e+02
-3.206053829699999937e+02
-3.208489378799999940e+02
-3.211975104499999816e+02
-3.216375501399999735e+02
-3.221492907499999774e+02
-3.227075299800000039e+02
-3.232839275700000030e+02
-3.238516926400000102e+02
-3.243889965100000268e+02
-3.215992683599999964e+02
-3.217172871999999870e+02
-3.219561750799999800e+02
-3.223053318300000001e+02
-3.227472309600000244e+02
-3.232580075899999770e+02
-3.238083705500000065e+02
-3.243671661399999948e+02
-3.249066535499999873e+02
-3.254064016500000207e+02
-3.139372431900000038e+02
-3.141127433300000007e+02
-3.144694141800000011e+02
-3.149932459699999754e+02
-3.156593800300000225e+02
-3.164306910099999754e+02
-3.172591701399999806e+02
-3.180945631999999819e+02
-3.188926010299999803e+02
-3.196236367199999791e+02
-3.152825195300000019e+02
-3.154974413699999900e+02
-3.158867621900000131e+02
-3.164341233600000010e+02
-3.171123981499999900e+02
-3.178827401199999940e+02
-3.186981218899999817e+02
-3.195101782599999751e+02
-3.202780468999999925e+02
-3.209767066499999828e+02
-3.259401207899999804e+02
-3.259599061399999869e+02
-3.260081943700000124e+02
-3.260833767199999897e+02
-3.261830327600000032e+02
-3.263035917199999858e+02
-3.264405167900000038e+02
-3.265888368999999898e+02
-3.267428947999999878e+02
-3.268971384999999827e+02
-3.312110222200000180e+02
-3.312280164300000251e+02
-3.312471115299999838e+02
-3.312678581900000268e+02
-3.312898827099999721e+02
-3.313130769399999735e+02
-3.313372685200000092e+02
-3.313623916999999892e+02
-3.313885579500000063e+02
-3.314159002299999770e+02
-3.281519252699999925e+02
-3.281470818099999747e+02
-3.281470680400000219e+02
-3.281516701599999806e+02
-3.281611391000000140e+02
-3.281752535800000032e+02
-3.281941987000000154e+02
-3.282179325399999925e+02
-3.282464022600000249e+02
-3.282795283300000051e+02
-3.246429073300000141e+02
-3.247227866000000063e+02
-3.248565675199999987e+02
-3.250402179800000226e+02
-3.252672162700000058e+02
-3.255289294099999893e+02
-3.258160726899999986e+02
-3.261176933300000087e+02
-3.264230965900000001e+02
-3.267224110899999800e+02
-3.277499963000000207e+02
-3.277541002500000218e+02
-3.277890722500000038e+02
-3.278538989799999968e+02
-3.279467698099999780e+02
-3.280641209500000173e+02
-3.282019023199999879e+02
-3.283549502199999779e+02
-3.285173643699999957e+02
-3.286836988700000006e+02
-3.172230696400000056e+02
-3.172518105300000002e+02
-3.173233796200000256e+02
-3.174355222099999878e+02
-3.175847627800000055e+02
-3.177665248600000041e+02
-3.179748141200000191e+02
-3.182024602299999856e+02
-3.184423442799999862e+02
-3.186869985399999905e+02
-3.284335597300000131e+02
-3.284317386999999826e+02
-3.284323933599999918e+02
-3.284354728600000044e+02
-3.284408277200000157e+02
-3.284482159300000035e+02
-3.284570802499999900e+02
-3.284671518299999775e+02
-3.284780279700000278e+02
-3.284891079600000126e+02
-3.251047691499999814e+02
-3.251239127900000199e+02
-3.251682773100000077e+02
-3.252370960599999989e+02
-3.253295008200000211e+02
-3.254440344299999879e+02
-3.255788196099999823e+02
-3.257313114799999880e+02
-3.258982947900000227e+02
-3.260761305099999845e+02
-3.253934699199999727e+02
-3.254500843100000225e+02
-3.255410394400000200e+02
-3.256651105199999847e+02
-3.258207256700000016e+02
-3.260052169400000253e+02
-3.262151042200000006e+02
-3.264453743899999836e+02
-3.266906384800000183e+02
-3.269447940599999924e+02
-3.277669404100000179e+02
-3.277661755199999902e+02
-3.277781593000000271e+02
-3.278028731300000231e+02
-3.278397843800000260e+02
-3.278885857000000215e+02
-3.279487944300000208e+02
-3.280194287699999904e+02
-3.280998816900000179e+02
-3.281890670000000227e+02
-3.241163967100000036e+02
-3.241338981499999932e+02
-3.241911560300000019e+02
-3.242876309399999855e+02
-3.244220263600000180e+02
-3.245925948299999959e+02
-3.247958327499999882e+02
-3.250277707100000271e+02
-3.252826758900000073e+02
-3.255540096400000039e+02
-3.228106103900000221e+02
-3.228957563199999754e+02
-3.230915897400000176e+02
-3.233922210599999971e+02
-3.237866991899999789e+02
-3.242593591199999992e+02
-3.247888618000000065e+02
-3.253497554100000002e+02
-3.259161953600000174e+02
-3.264651459899999963e+02
-3.292974643100000094e+02
-3.293429353000000219e+02
-3.294116296799999759e+02
-3.295023437199999989e+02
-3.296138307400000258e+02
-3.297441314700000135e+02
-3.298908337600000209e+02
-3.300510572100000104e+02
-3.302210461399999986e+02
-3.303972310500000162e+02
-3.268219260299999860e+02
-3.268676141500000085e+02
-3.269341282500000148e+02
-3.270209508699999787e+02
-3.271267590100000007e+02
-3.272504182000000128e+02
-3.273899563800000010e+02
-3.275428614300000163e+02
-3.277063311499999827e+02
-3.278770036700000219e+02
-3.229078926999999908e+02
-3.229412355800000114e+02
-3.230003915400000096e+02
-3.230836353799999756e+02
-3.231887935999999968e+02
-3.233129841900000088e+02
-3.234528093000000126e+02
-3.236045343000000116e+02
-3.237640370500000131e+02
-3.239272428300000115e+02
-3.287291433099999836e+02
-3.287420117699999764e+02
-3.287715766000000031e+02
-3.288171059300000252e+02
-3.288773473699999954e+02
-3.289506214500000283e+02
-3.290348051400000031e+02
-3.291276242800000205e+02
-3.292264351200000192e+02
-3.293288169900000071e+02
-3.263306751200000235e+02
-3.264506201500000202e+02
-3.266405718999999976e+02