 vasp.6.1.1 19Jun20 (build Dec 21 2021 08:45:49) complex                        
  
 executed on             LinuxIFC date 2023.10.08  06:34:06
 running on   40 total cores
 distrk:  each k-point on   40 cores,    1 groups
 distr:  one band on NCORE=   1 cores,   40 groups


--------------------------------------------------------------------------------------------------------


 INCAR:
 POTCAR:   PAW_PBE Te 08Apr2002                   
 POTCAR:   PAW_PBE Mo 08Apr2002                   
 -----------------------------------------------------------------------------
|                                                                             |
|           W    W    AA    RRRRR   N    N  II  N    N   GGGG   !!!           |
|           W    W   A  A   R    R  NN   N  II  NN   N  G    G  !!!           |
|           W    W  A    A  R    R  N N  N  II  N N  N  G       !!!           |
|           W WW W  AAAAAA  RRRRR   N  N N  II  N  N N  G  GGG   !            |
|           WW  WW  A    A  R   R   N   NN  II  N   NN  G    G                |
|           W    W  A    A  R    R  N    N  II  N    N   GGGG   !!!           |
|                                                                             |
|     For optimal performance we recommend to set                             |
|       NCORE = 4 - approx SQRT(number of cores).                             |
|     NCORE specifies how many cores store one orbital (NPAR=cpu/NCORE).      |
|     This setting can greatly improve the performance of VASP for DFT.       |
|     The default, NCORE=1 might be grossly inefficient on modern             |
|     multi-core architectures or massively parallel machines. Do your        |
|     own testing!!!!                                                         |
|     Unfortunately you need to use the default for GW and RPA                |
|     calculations (for HF NCORE is supported but not extensively tested      |
|     yet).                                                                   |
|                                                                             |
 -----------------------------------------------------------------------------

 POTCAR:   PAW_PBE Te 08Apr2002                   
   VRHFIN =Te: s2p4                                                                                 
   LEXCH  = PE                                                                                      
   EATOM  =   223.2721 eV,   16.4100 Ry                                                             
                                                                                                    
   TITEL  = PAW_PBE Te 08Apr2002                                                                    
   LULTRA =        F    use ultrasoft PP ?                                                          
   IUNSCR =        1    unscreen: 0-lin 1-nonlin 2-no                                               
   RPACOR =    2.200    partial core radius                                                         
   POMASS =  127.600; ZVAL   =    6.000    mass and valenz                                          
   RCORE  =    2.300    outmost cutoff radius                                                       
   RWIGS  =    2.900; RWIGS  =    1.535    wigner-seitz radius (au A)                               
   ENMAX  =  174.982; ENMIN  =  131.236 eV                                                          
   ICORE  =        3    local potential                                                             
   LCOR   =        T    correct aug charges                                                         
   LPAW   =        T    paw PP                                                                      
   EAUG   =  368.792                                                                                
   DEXC   =    -.169                                                                                
   RMAX   =    3.486    core radius for proj-oper                                                   
   RAUG   =    1.300    factor for augmentation sphere                                              
   RDEP   =    2.397    radius for radial grids                                                     
   QCUT   =   -3.586; QGAM   =    7.172    optimization parameters                                  
                                                                                                    
   Description                                                                                      
     l     E      TYP  RCUT    TYP  RCUT                                                            
     0   .000     23  2.300                                                                         
     0   .000     23  2.300                                                                         
     1   .000     23  2.300                                                                         
     1   .000     23  2.300                                                                         
     2   .000     23  2.300                                                                         
     3  -.100     23  2.300                                                                         
  local pseudopotential read in
  partial core-charges read in
  atomic valenz-charges read in
  non local Contribution for L=           0  read in
    real space projection operators read in
  non local Contribution for L=           0  read in
    real space projection operators read in
  non local Contribution for L=           1  read in
    real space projection operators read in
  non local Contribution for L=           1  read in
    real space projection operators read in
  non local Contribution for L=           2  read in
    real space projection operators read in
    PAW grid and wavefunctions read in
 
   number of l-projection  operators is LMAX  =           5
   number of lm-projection operators is LMMAX =          13
 
 POTCAR:   PAW_PBE Mo 08Apr2002                   
   VRHFIN =Mo: 4p5s4d                                                                               
   LEXCH  = PE                                                                                      
   EATOM  =   217.5180 eV,   15.9871 Ry                                                             
                                                                                                    
   TITEL  = PAW_PBE Mo 08Apr2002                                                                    
   LULTRA =        F    use ultrasoft PP ?                                                          
   IUNSCR =        1    unscreen: 0-lin 1-nonlin 2-no                                               
   RPACOR =    2.200    partial core radius                                                         
   POMASS =   95.940; ZVAL   =    6.000    mass and valenz                                          
   RCORE  =    2.750    outmost cutoff radius                                                       
   RWIGS  =    2.750; RWIGS  =    1.455    wigner-seitz radius (au A)                               
   ENMAX  =  224.584; ENMIN  =  168.438 eV                                                          
   RCLOC  =    2.111    cutoff for local pot                                                        
   LCOR   =        T    correct aug charges                                                         
   LPAW   =        T    paw PP                                                                      
   EAUG   =  345.278                                                                                
   DEXC   =    -.088                                                                                
   RMAX   =    3.077    core radius for proj-oper                                                   
   RAUG   =    1.300    factor for augmentation sphere                                              
   RDEP   =    2.815    radius for radial grids                                                     
   QCUT   =   -4.063; QGAM   =    8.126    optimization parameters                                  
                                                                                                    
   Description                                                                                      
     l     E      TYP  RCUT    TYP  RCUT                                                            
     2   .000     23  2.500                                                                         
     2   .000     23  2.500                                                                         
     0   .000     23  2.600                                                                         
     0  1.000     23  2.600                                                                         
     1   .400     23  2.750                                                                         
     1  2.000     23  2.750                                                                         
     3   .000      7   .000                                                                         
  local pseudopotential read in
  partial core-charges read in
  atomic valenz-charges read in
  non local Contribution for L=           2  read in
    real space projection operators read in
  non local Contribution for L=           2  read in
    real space projection operators read in
  non local Contribution for L=           0  read in
    real space projection operators read in
  non local Contribution for L=           0  read in
    real space projection operators read in
  non local Contribution for L=           1  read in
    real space projection operators read in
  non local Contribution for L=           1  read in
    real space projection operators read in
    PAW grid and wavefunctions read in
 
   number of l-projection  operators is LMAX  =           6
   number of lm-projection operators is LMMAX =          18
 
 -----------------------------------------------------------------------------
|                                                                             |
|               ----> ADVICE to this user running VASP <----                  |
|                                                                             |
|     You have a (more or less) 'large supercell' and for larger cells it     |
|     might be more efficient to use real-space projection operators.         |
|     Therefore, try LREAL= Auto in the INCAR file.                           |
|     Mind: If you want to do very accurate calculations, keep the            |
|     reciprocal projection scheme (i.e. LREAL=.FALSE.).                      |
|                                                                             |
 -----------------------------------------------------------------------------

 PAW_PBE Te 08Apr2002                   :
 energy of atom  1       EATOM= -223.2721
 kinetic energy error for atom=    0.0006 (will be added to EATOM!!)
 PAW_PBE Mo 08Apr2002                   :
 energy of atom  2       EATOM= -217.5180
 kinetic energy error for atom=    0.0009 (will be added to EATOM!!)
 
 
 POSCAR: Te Mo
  positions in cartesian coordinates
  No initial velocities read in
 exchange correlation table for  LEXCH =        8
   RHO(1)=    0.500       N(1)  =     2000
   RHO(2)=  100.500       N(2)  =     4000
 


--------------------------------------------------------------------------------------------------------


 ion  position               nearest neighbor table
   1  0.111  0.222  0.313-  37 2.65  38 2.67  41 2.69   7 3.42   4 3.42   2 3.45   3 3.45   9 3.46
                             5 3.46  19 3.57
   2  0.111  0.555  0.313-  38 2.65  39 2.66  42 2.69   8 3.42   5 3.43   1 3.45   7 3.45   3 3.46
                             6 3.47  20 3.56
   3  0.111  0.889  0.313-  39 2.65  37 2.67  40 2.68   9 3.42   6 3.42   1 3.45   4 3.45   2 3.46
                             8 3.46  21 3.55
   4  0.444  0.222  0.313-  41 2.66  40 2.66  44 2.70   1 3.42   7 3.42   5 3.45   3 3.45   6 3.46
                             8 3.46  22 3.57
   5  0.445  0.555  0.313-  41 2.65  42 2.66  45 2.68   8 3.41   2 3.43   4 3.45   6 3.45   9 3.46
                             1 3.46  23 3.56
   6  0.445  0.889  0.313-  42 2.65  40 2.66  43 2.68   9 3.41   3 3.42   5 3.45   4 3.46   7 3.46
                             2 3.47  24 3.56
   7  0.778  0.223  0.313-  43 2.66  44 2.66  38 2.69   1 3.42   4 3.42   8 3.45   2 3.45   9 3.45
                             6 3.46  25 3.56
   8  0.778  0.556  0.313-  44 2.66  45 2.66  39 2.69   5 3.41   2 3.42   7 3.45   9 3.45   4 3.46
                             3 3.46  26 3.56
   9  0.778  0.889  0.313-  45 2.65  43 2.66  37 2.69   6 3.41   3 3.42   8 3.45   7 3.45   1 3.46
                             5 3.46  27 3.57
  10  0.111  0.167  0.566-  54 2.66  52 2.66  46 2.69  13 3.42  16 3.42  12 3.45  11 3.45  14 3.46
                            18 3.46  28 3.56
  11  0.111  0.500  0.566-  52 2.66  53 2.67  47 2.70  14 3.42  17 3.42  12 3.45  10 3.45  16 3.46
                            15 3.46  29 3.56
  12  0.111  0.833  0.566-  53 2.65  54 2.66  48 2.69  15 3.42  18 3.42  10 3.45  11 3.45  13 3.46
                            17 3.47  30 3.56
  13  0.444  0.166  0.566-  48 2.66  46 2.67  49 2.69  10 3.42  16 3.42  15 3.45  14 3.46  12 3.46
                            17 3.46  31 3.56
  14  0.444  0.500  0.566-  46 2.66  47 2.66  50 2.69  17 3.41  11 3.42  15 3.45  13 3.46  18 3.46
                            10 3.46  32 3.57
  15  0.444  0.833  0.566-  47 2.66  48 2.67  51 2.69  18 3.41  12 3.42  13 3.45  14 3.45  11 3.46
                            16 3.46  33 3.56
  16  0.778  0.167  0.566-  51 2.65  49 2.66  52 2.69  13 3.42  10 3.42  17 3.45  18 3.45  11 3.46
                            15 3.46  34 3.56
  17  0.777  0.499  0.566-  49 2.65  50 2.67  53 2.69  14 3.41  11 3.42  16 3.45  13 3.46  18 3.46
                            12 3.47  35 3.56
  18  0.777  0.833  0.566-  50 2.66  51 2.66  54 2.70  15 3.41  12 3.42  16 3.45  17 3.46  14 3.46
                            10 3.46  36 3.56
  19  0.111  0.222  0.434-  41 2.65  38 2.66  37 2.70  25 3.41  22 3.43  21 3.45  20 3.46  27 3.46
                            23 3.46   1 3.57
  20  0.111  0.556  0.433-  42 2.64  39 2.65  38 2.70  26 3.41  23 3.42  21 3.44  19 3.46  25 3.46
                            24 3.47   2 3.56
  21  0.111  0.889  0.434-  40 2.64  37 2.67  39 2.70  27 3.42  24 3.42  20 3.44  19 3.45  26 3.46
                            22 3.46   3 3.55
  22  0.445  0.222  0.434-  44 2.64  41 2.67  40 2.71  25 3.42  19 3.43  24 3.44  23 3.46  26 3.46
                            21 3.46   4 3.57
  23  0.444  0.555  0.434-  45 2.65  42 2.67  41 2.71  26 3.42  20 3.42  27 3.46  24 3.46  22 3.46
                            19 3.46   5 3.56
  24  0.445  0.889  0.434-  43 2.64  40 2.66  42 2.71  27 3.42  21 3.42  22 3.44  25 3.45  23 3.46
                            20 3.47   6 3.56
  25  0.778  0.222  0.434-  38 2.64  44 2.66  43 2.71  19 3.41  22 3.42  26 3.45  24 3.45  27 3.45
                            20 3.46   7 3.56
  26  0.778  0.555  0.434-  39 2.65  45 2.67  44 2.70  20 3.41  23 3.42  27 3.45  25 3.45  21 3.46
                            22 3.46   8 3.56
  27  0.777  0.888  0.434-  37 2.64  43 2.67  45 2.70  24 3.42  21 3.42  26 3.45  25 3.45  23 3.46
                            19 3.46   9 3.57
  28  0.111  0.166  0.687-  46 2.64  52 2.66  54 2.70  34 3.42  31 3.43  30 3.45  29 3.45  36 3.46
                            32 3.47  10 3.56
  29  0.110  0.499  0.687-  47 2.65  53 2.67  52 2.70  35 3.41  32 3.42  28 3.45  30 3.45  34 3.46
                            33 3.47  11 3.56
  30  0.111  0.833  0.687-  48 2.64  54 2.65  53 2.71  33 3.42  36 3.42  28 3.45  29 3.45  35 3.46
                            31 3.46  12 3.56
  31  0.445  0.167  0.687-  49 2.63  46 2.66  48 2.69  34 3.41  28 3.43  33 3.45  35 3.45  32 3.46
                            30 3.46  13 3.56
  32  0.444  0.501  0.687-  50 2.64  47 2.65  46 2.71  29 3.42  35 3.42  33 3.44  36 3.45  31 3.46
                            28 3.47  14 3.57
  33  0.444  0.833  0.687-  51 2.65  48 2.66  47 2.70  30 3.42  36 3.42  32 3.44  31 3.45  34 3.46
                            29 3.47  15 3.56
  34  0.777  0.166  0.687-  52 2.64  49 2.66  51 2.70  31 3.41  28 3.42  35 3.45  33 3.46  36 3.46
                            29 3.46  16 3.56
  35  0.778  0.500  0.687-  53 2.64  50 2.66  49 2.71  29 3.41  32 3.42  36 3.45  34 3.45  31 3.45
                            30 3.46  17 3.56
  36  0.777  0.833  0.687-  54 2.64  51 2.67  50 2.70  33 3.42  30 3.42  35 3.45  32 3.45  34 3.46
                            28 3.46  18 3.56
  37  1.000  0.001  0.373-  27 2.64   1 2.65   3 2.67  21 2.67   9 2.69  19 2.70  43 3.41  40 3.43
                            38 3.45  41 3.45  45 3.46  39 3.46
  38  0.001  0.334  0.373-  25 2.64   2 2.65  19 2.66   1 2.67   7 2.69  20 2.70  44 3.42  41 3.42
                            39 3.44  37 3.45  42 3.45  43 3.47
  39  0.001  0.667  0.373-  26 2.65   3 2.65  20 2.65   2 2.66   8 2.69  21 2.70  42 3.41  45 3.42
                            38 3.44  40 3.45  44 3.46  37 3.46
  40  0.333  1.000  0.373-  21 2.64   4 2.66  24 2.66   6 2.66   3 2.68  22 2.71  43 3.42  37 3.43
                            42 3.45  41 3.45  39 3.45  44 3.47
  41  0.333  0.333  0.373-   5 2.65  19 2.65   4 2.66  22 2.67   1 2.69  23 2.71  38 3.42  44 3.42
                            40 3.45  37 3.45  42 3.46  45 3.47
  42  0.333  0.667  0.373-  20 2.64   6 2.65   5 2.66  23 2.67   2 2.69  24 2.71  39 3.41  45 3.42
                            40 3.45  38 3.45  43 3.46  41 3.46
  43  0.667  1.000  0.373-  24 2.64   7 2.66   9 2.66  27 2.67   6 2.68  25 2.71  37 3.41  40 3.42
                            45 3.45  44 3.46  42 3.46  38 3.47
  44  0.667  0.334  0.373-  22 2.64   8 2.66   7 2.66  25 2.66  26 2.70   4 2.70  38 3.42  41 3.42
                            45 3.45  43 3.46  39 3.46  40 3.47
  45  0.667  0.667  0.373-  23 2.65   9 2.65   8 2.66  26 2.67   5 2.68  27 2.70  42 3.42  39 3.42
                            43 3.45  44 3.45  37 3.46  41 3.47
  46  0.333  0.278  0.627-  28 2.64  14 2.66  31 2.66  13 2.67  10 2.69  32 2.71  49 3.41  52 3.42
                            47 3.44  48 3.45  50 3.45  54 3.46
  47  0.334  0.610  0.627-  29 2.65  32 2.65  14 2.66  15 2.66  11 2.70  33 2.70  50 3.41  53 3.43
                            46 3.44  52 3.46  48 3.46  51 3.47
  48  0.333  0.945  0.627-  30 2.64  33 2.66  13 2.66  15 2.67  12 2.69  31 2.69  54 3.41  51 3.42
                            46 3.45  49 3.45  47 3.46  53 3.47
  49  0.666  0.278  0.627-  31 2.63  17 2.65  34 2.66  16 2.66  13 2.69  35 2.71  46 3.41  52 3.42
                            51 3.45  50 3.45  48 3.45  53 3.46
  50  0.666  0.611  0.627-  32 2.64  18 2.66  35 2.66  17 2.67  14 2.69  36 2.70  47 3.41  53 3.42
                            49 3.45  46 3.45  51 3.46  54 3.47
  51  0.667  0.945  0.627-  33 2.65  16 2.65  18 2.66  36 2.67  15 2.69  34 2.70  48 3.42  54 3.43
                            49 3.45  52 3.46  50 3.46  47 3.47
  52  1.000  0.278  0.627-  34 2.64  11 2.66  28 2.66  10 2.66  16 2.69  29 2.70  46 3.42  49 3.42
                            53 3.45  51 3.46  54 3.46  47 3.46
  53  0.999  0.611  0.627-  35 2.64  12 2.65  11 2.67  29 2.67  17 2.69  30 2.71  50 3.42  47 3.43
                            54 3.44  52 3.45  49 3.46  48 3.47
  54  0.000  0.944  0.627-  36 2.64  30 2.65  12 2.66  10 2.66  28 2.70  18 2.70  48 3.41  51 3.43
                            53 3.44  52 3.46  46 3.46  50 3.47
 

IMPORTANT INFORMATION: All symmetrisations will be switched off!
NOSYMM: (Re-)initialisation of all symmetry stuff for point group C_1.


----------------------------------------------------------------------------------------

                                     Primitive cell                                     

  volume of cell :    2722.1063

  direct lattice vectors                    reciprocal lattice vectors
    10.255927391  0.000000000  0.000000000     0.097504590  0.055220334 -0.001987982
    -5.103532622  9.011496787  0.000000000     0.000000000  0.110969357 -0.002029021
     0.295516929  0.538538495 29.453249170     0.000000000  0.000000000  0.033952112

  length of vectors
    10.255927391 10.356308202 29.459654456     0.112073112  0.110987905  0.033952112

  position of ions in fractional coordinates (direct lattice)
     0.110606590  0.222138143  0.312701864
     0.110641386  0.555191113  0.312645088
     0.111317325  0.889321755  0.312873028
     0.443950222  0.222188463  0.312543494
     0.444671399  0.555317894  0.312996492
     0.445054609  0.888917545  0.312816722
     0.777813718  0.222524690  0.312819530
     0.777728430  0.555539806  0.312725888
     0.777904156  0.888991685  0.312657343
     0.111204586  0.166668179  0.566365259
     0.110988976  0.499969655  0.566304114
     0.110985412  0.833346601  0.566450037
     0.444143602  0.166234573  0.566208546
     0.444429382  0.500023514  0.566358427
     0.444440161  0.833322880  0.566352784
     0.777915805  0.167129902  0.566383726
     0.777038051  0.499354159  0.566336950
     0.777299065  0.833311581  0.566248984
     0.110573304  0.221862989  0.433780252
     0.110752694  0.556017125  0.433478883
     0.111010209  0.888517808  0.433518881
     0.444650239  0.221840216  0.433807613
     0.444418438  0.555467482  0.433718253
     0.445064537  0.889455395  0.433588356
     0.778054668  0.222030258  0.433679731
     0.777852265  0.555421982  0.433613831
     0.777473286  0.888141986  0.433724585
     0.110732223  0.166398410  0.687246903
     0.110202230  0.499397224  0.687268375
     0.111130208  0.833337330  0.687267611
     0.445130886  0.166871684  0.687023920
     0.444180175  0.500517975  0.687438754
     0.444250463  0.833073296  0.687183118
     0.777118637  0.166309629  0.687126578
     0.777626845  0.499886356  0.687320915
     0.777226930  0.832515949  0.687150642
     0.999602851  0.000537229  0.373217992
     0.000531637  0.334270424  0.373289311
     0.000640573  0.666788859  0.372957410
     0.333207707  0.999735130  0.373116525
     0.333015480  0.332607339  0.372952344
     0.333056118  0.666837728  0.372939001
     0.666600142  0.999708383  0.373099453
     0.666980580  0.333541261  0.373296725
     0.666866854  0.666988826  0.373069501
     0.333359914  0.277815633  0.626799025
     0.333564888  0.610446299  0.627000186
     0.333239747  0.944711014  0.627044508
     0.665928667  0.277548752  0.626864875
     0.665849240  0.610879347  0.626888177
     0.666880562  0.945204893  0.626690453
     0.999992159  0.277791742  0.626818070
     0.999192041  0.610942478  0.626706959
     0.000329818  0.944061167  0.627032645

  ion indices of the primitive-cell ions
   primitive index   ion index
                 1           1
                 2           2
                 3           3
                 4           4
                 5           5
                 6           6
                 7           7
                 8           8
                 9           9
                10          10
                11          11
                12          12
                13          13
                14          14
                15          15
                16          16
                17          17
                18          18
                19          19
                20          20
                21          21
                22          22
                23          23
                24          24
                25          25
                26          26
                27          27
                28          28
                29          29
                30          30
                31          31
                32          32
                33          33
                34          34
                35          35
                36          36
                37          37
                38          38
                39          39
                40          40
                41          41
                42          42
                43          43
                44          44
                45          45
                46          46
                47          47
                48          48
                49          49
                50          50
                51          51
                52          52
                53          53
                54          54

----------------------------------------------------------------------------------------

 
 

Automatic generation of k-mesh.
 generate k-points for:    3    3    1
Space group operators:
 irot       det(A)        alpha          n_x          n_y          n_z        tau_x        tau_y        tau_z
    1     1.000000     0.000000     1.000000     0.000000     0.000000     0.000000     0.000000     0.000000
 
 Subroutine IBZKPT returns following result:
 ===========================================
 
 Found      5 irreducible k-points:
 
 Following reciprocal coordinates:
            Coordinates               Weight
  0.000000  0.000000  0.000000      1.000000
  0.333333  0.000000  0.000000      2.000000
  0.000000  0.333333 -0.000000      2.000000
  0.333333  0.333333  0.000000      2.000000
 -0.333333  0.333333 -0.000000      2.000000
 
 Following cartesian coordinates:
            Coordinates               Weight
  0.000000  0.000000  0.000000      1.000000
  0.032502  0.018407 -0.000663      2.000000
  0.000000  0.036990 -0.000676      2.000000
  0.032502  0.055397 -0.001339      2.000000
 -0.032502  0.018583 -0.000014      2.000000
 


--------------------------------------------------------------------------------------------------------




 Dimension of arrays:
   k-points           NKPTS =      5   k-points in BZ     NKDIM =      5   number of bands    NBANDS=    200
   number of dos      NEDOS =    301   number of ions     NIONS =     54
   non local maximal  LDIM  =      6   non local SUM 2l+1 LMDIM =     18
   total plane-waves  NPLWV = ******
   max r-space proj   IRMAX =      1   max aug-charges    IRDMAX=  36424
   dimension x,y,z NGX =    80 NGY =   80 NGZ =  240
   dimension x,y,z NGXF=   160 NGYF=  160 NGZF=  480
   support grid    NGXF=   160 NGYF=  160 NGZF=  480
   ions per type =              36  18
   NGX,Y,Z   is equivalent  to a cutoff of  12.97, 12.84, 13.54 a.u.
   NGXF,Y,Z  is equivalent  to a cutoff of  25.94, 25.68, 27.09 a.u.

 SYSTEM =  dpgen_md                                
 POSCAR =  Te Mo                                   

 Startparameter for this run:
   NWRITE =      2    write-flag & timer
   PREC   = a         normal or accurate (medium, high low for compatibility)
   ISTART =      0    job   : 0-new  1-cont  2-samecut
   ICHARG =      2    charge: 1-file 2-atom 10-const
   ISPIN  =      1    spin polarized calculation?
   LNONCOLLINEAR =      F non collinear calculations
   LSORBIT =      F    spin-orbit coupling
   INIWAV =      1    electr: 0-lowe 1-rand  2-diag
   LASPH  =      F    aspherical Exc in radial PAW
   METAGGA=      F    non-selfconsistent MetaGGA calc.

 Electronic Relaxation 1
   ENCUT  =  550.0 eV  40.42 Ry    6.36 a.u.  19.61 19.80 56.33*2*pi/ulx,y,z
   ENINI  =  550.0     initial cutoff
   ENAUG  =  368.8 eV  augmentation charge cutoff
   NELM   =    100;   NELMIN=  6; NELMDL= -5     # of ELM steps 
   EDIFF  = 0.1E-05   stopping-criterion for ELM
   LREAL  =      F    real-space projection
   NLSPLINE    = F    spline interpolate recip. space projectors
   LCOMPAT=      F    compatible to vasp.4.4
   GGA_COMPAT  = T    GGA compatible to vasp.4.4-vasp.4.6
   LMAXPAW     = -100 max onsite density
   LMAXMIX     =    2 max onsite mixed and CHGCAR
   VOSKOWN=      0    Vosko Wilk Nusair interpolation
   ROPT   =    0.00000   0.00000
 Ionic relaxation
   EDIFFG = 0.1E-04   stopping-criterion for IOM
   NSW    =     10    number of steps for IOM
   NBLOCK =      1;   KBLOCK =      1    inner block; outer block 
   IBRION =      0    ionic relax: 0-MD 1-quasi-New 2-CG
   NFREE  =      0    steps in history (QN), initial steepest desc. (CG)
   ISIF   =      2    stress and relaxation
   IWAVPR =     11    prediction:  0-non 1-charg 2-wave 3-comb
   ISYM   =      0    0-nonsym 1-usesym 2-fastsym
   LCORR  =      T    Harris-Foulkes like correction to forces

   POTIM  = 2.0000    time-step for ionic-motion
   TEIN   =  100.0    initial temperature
   TEBEG  =  100.0;   TEEND  = 100.0 temperature during run
   SMASS  =   0.04    Nose mass-parameter (am)
   estimated Nose-frequenzy (Omega)   =  0.79E+14 period in steps = 0.40E+02 mass=   0.327E-28a.u.
   SCALEE = 1.0000    scale energy and forces
   NPACO  =    256;   APACO  = 16.0  distance and # of slots for P.C.
   PSTRESS=    0.0 pullay stress

  Mass of Ions in am
   POMASS = 127.60 95.94
  Ionic Valenz
   ZVAL   =   6.00  6.00
  Atomic Wigner-Seitz radii
   RWIGS  =  -1.00 -1.00
  virtual crystal weights 
   VCA    =   1.00  1.00
   NELECT =     324.0000    total number of electrons
   NUPDOWN=      -1.0000    fix difference up-down

 DOS related values:
   EMIN   =  10.00;   EMAX   =-10.00  energy-range for DOS
   EFERMI =   0.00
   ISMEAR =     0;   SIGMA  =   0.10  broadening in eV -4-tet -1-fermi 0-gaus

 Electronic relaxation 2 (details)
   IALGO  =     68    algorithm
   LDIAG  =      T    sub-space diagonalisation (order eigenvalues)
   LSUBROT=      F    optimize rotation matrix (better conditioning)
   TURBO    =      0    0=normal 1=particle mesh
   IRESTART =      0    0=no restart 2=restart with 2 vectors
   NREBOOT  =      0    no. of reboots
   NMIN     =      0    reboot dimension
   EREF     =   0.00    reference energy to select bands
   IMIX   =      4    mixing-type and parameters
     AMIX     =   0.40;   BMIX     =  1.00
     AMIX_MAG =   1.60;   BMIX_MAG =  1.00
     AMIN     =   0.10
     WC   =   100.;   INIMIX=   1;  MIXPRE=   1;  MAXMIX= -45

 Intra band minimization:
   WEIMIN = 0.0010     energy-eigenvalue tresh-hold
   EBREAK =  0.13E-08  absolut break condition
   DEPER  =   0.30     relativ break condition  

   TIME   =   0.40     timestep for ELM

  volume/ion in A,a.u.               =      50.41       340.18
  Fermi-wavevector in a.u.,A,eV,Ry     =   0.805295  1.521786  8.823371  0.648499
  Thomas-Fermi vector in A             =   1.913512
 
 Write flags
   LWAVE        =      F    write WAVECAR
   LDOWNSAMPLE  =      F    k-point downsampling of WAVECAR
   LCHARG       =      F    write CHGCAR
   LVTOT        =      F    write LOCPOT, total local potential
   LVHAR        =      F    write LOCPOT, Hartree potential only
   LELF         =      F    write electronic localiz. function (ELF)
   LORBIT       =      0    0 simple, 1 ext, 2 COOP (PROOUT), +10 PAW based schemes


 Dipole corrections
   LMONO  =      F    monopole corrections only (constant potential shift)
   LDIPOL =      F    correct potential (dipole corrections)
   IDIPOL =      0    1-x, 2-y, 3-z, 4-all directions 
   EPSILON=  1.0000000 bulk dielectric constant

 Exchange correlation treatment:
   GGA     =    --    GGA type
   LEXCH   =     8    internal setting for exchange type
   VOSKOWN=      0    Vosko Wilk Nusair interpolation
   LHFCALC =     F    Hartree Fock is set to
   LHFONE  =     F    Hartree Fock one center treatment
   AEXX    =    0.0000 exact exchange contribution

 Linear response parameters
   LEPSILON=     F    determine dielectric tensor
   LRPA    =     F    only Hartree local field effects (RPA)
   LNABLA  =     F    use nabla operator in PAW spheres
   LVEL    =     F    velocity operator in full k-point grid
   LINTERFAST=   F  fast interpolation
   KINTER  =     0    interpolate to denser k-point grid
   CSHIFT  =0.1000    complex shift for real part using Kramers Kronig
   OMEGAMAX=  -1.0    maximum frequency
   DEG_THRESHOLD= 0.2000000E-02 threshold for treating states as degnerate
   RTIME   =   -0.100 relaxation time in fs
  (WPLASMAI=    0.000 imaginary part of plasma frequency in eV, 0.658/RTIME)
   DFIELD  = 0.0000000 0.0000000 0.0000000 field for delta impulse in time
 
 Orbital magnetization related:
   ORBITALMAG=     F  switch on orbital magnetization
   LCHIMAG   =     F  perturbation theory with respect to B field
   DQ        =  0.001000  dq finite difference perturbation B field
   LLRAUG    =     F  two centre corrections for induced B field



--------------------------------------------------------------------------------------------------------


 molecular dynamics for ions
   using nose mass (canonical ensemble)
 charge density and potential will be updated during run
 non-spin polarized calculation
 RMM-DIIS sequential band-by-band and
  variant of blocked Davidson during initial phase
 perform sub-space diagonalisation
    before iterative eigenvector-optimisation
 modified Broyden-mixing scheme, WC =      100.0
 initial mixing is a Kerker type mixing with AMIX =  0.4000 and BMIX =      1.0000
 Hartree-type preconditioning will be used
 using additional bands           38
 reciprocal scheme for non local part
 use partial core corrections
 calculate Harris-corrections to forces 
   (improved forces if not selfconsistent)
 use gradient corrections 
 use of overlap-Matrix (Vanderbilt PP)
 Gauss-broadening in eV      SIGMA  =   0.10


--------------------------------------------------------------------------------------------------------


  energy-cutoff  :      550.00
  volume of cell :     2722.11
      direct lattice vectors                 reciprocal lattice vectors
    10.255927391  0.000000000  0.000000000     0.097504590  0.055220334 -0.001987982
    -5.103532622  9.011496787  0.000000000     0.000000000  0.110969357 -0.002029021
     0.295516929  0.538538495 29.453249170     0.000000000  0.000000000  0.033952112

  length of vectors
    10.255927391 10.356308202 29.459654456     0.112073112  0.110987905  0.033952112


 
 k-points in units of 2pi/SCALE and weight: read from INCAR                         
   0.00000000  0.00000000  0.00000000       0.111
   0.03250153  0.01840678 -0.00066266       0.222
   0.00000000  0.03698979 -0.00067634       0.222
   0.03250153  0.05539656 -0.00133900       0.222
  -0.03250153  0.01858301 -0.00001368       0.222
 
 k-points in reciprocal lattice and weights: read from INCAR                         
   0.00000000  0.00000000  0.00000000       0.111
   0.33333333  0.00000000  0.00000000       0.222
   0.00000000  0.33333333 -0.00000000       0.222
   0.33333333  0.33333333  0.00000000       0.222
  -0.33333333  0.33333333 -0.00000000       0.222
 
 position of ions in fractional coordinates (direct lattice) 
   0.11060659  0.22213814  0.31270186
   0.11064139  0.55519111  0.31264509
   0.11131732  0.88932175  0.31287303
   0.44395022  0.22218846  0.31254349
   0.44467140  0.55531789  0.31299649
   0.44505461  0.88891754  0.31281672
   0.77781372  0.22252469  0.31281953
   0.77772843  0.55553981  0.31272589
   0.77790416  0.88899168  0.31265734
   0.11120459  0.16666818  0.56636526
   0.11098898  0.49996965  0.56630411
   0.11098541  0.83334660  0.56645004
   0.44414360  0.16623457  0.56620855
   0.44442938  0.50002351  0.56635843
   0.44444016  0.83332288  0.56635278
   0.77791581  0.16712990  0.56638373
   0.77703805  0.49935416  0.56633695
   0.77729906  0.83331158  0.56624898
   0.11057330  0.22186299  0.43378025
   0.11075269  0.55601713  0.43347888
   0.11101021  0.88851781  0.43351888
   0.44465024  0.22184022  0.43380761
   0.44441844  0.55546748  0.43371825
   0.44506454  0.88945540  0.43358836
   0.77805467  0.22203026  0.43367973
   0.77785227  0.55542198  0.43361383
   0.77747329  0.88814199  0.43372458
   0.11073222  0.16639841  0.68724690
   0.11020223  0.49939722  0.68726838
   0.11113021  0.83333733  0.68726761
   0.44513089  0.16687168  0.68702392
   0.44418017  0.50051798  0.68743875
   0.44425046  0.83307330  0.68718312
   0.77711864  0.16630963  0.68712658
   0.77762685  0.49988636  0.68732091
   0.77722693  0.83251595  0.68715064
   0.99960285  0.00053723  0.37321799
   0.00053164  0.33427042  0.37328931
   0.00064057  0.66678886  0.37295741
   0.33320771  0.99973513  0.37311653
   0.33301548  0.33260734  0.37295234
   0.33305612  0.66683773  0.37293900
   0.66660014  0.99970838  0.37309945
   0.66698058  0.33354126  0.37329672
   0.66686685  0.66698883  0.37306950
   0.33335991  0.27781563  0.62679902
   0.33356489  0.61044630  0.62700019
   0.33323975  0.94471101  0.62704451
   0.66592867  0.27754875  0.62686487
   0.66584924  0.61087935  0.62688818
   0.66688056  0.94520489  0.62669045
   0.99999216  0.27779174  0.62681807
   0.99919204  0.61094248  0.62670696
   0.00032982  0.94406117  0.62703265
 
 position of ions in cartesian coordinates  (Angst):
   0.09309259  2.17019915  9.21008593
  -1.60631402  5.17147435  9.20841367
  -3.30456091  8.18261431  9.21512725
   3.51153707  2.17056732  9.20542141
   1.81893036  5.17280607  9.21876368
   0.12027070  8.17894145  9.21346886
   6.93398246  2.17374589  9.21355156
   5.23352658  5.17466011  9.21079351
   3.53352601  8.17952373  9.20877464
   0.45728020  1.80693925 16.68129710
  -1.24596411  4.81045150 16.67949619
  -2.94735767  7.81475537 16.68379408
   3.87404517  1.80294742 16.67668138
   2.17351766  4.81096610 16.68109587
   0.47262235  7.81448924 16.68092967
   7.29267109  1.81111001 16.68184100
   5.58813775  4.80492265 16.68046330
   3.88642609  7.81433151 16.67787241
   0.12993618  2.23292498 12.77623784
  -1.57367961  5.24399160 12.76736155
  -3.26795480  8.24034198 12.76853962
   3.55632928  2.23273449 12.77704370
   1.85124791  5.23916740 12.77441179
   0.15331765  8.24882846 12.77058590
   6.97469322  2.23437819 12.77327717
   5.27112238  5.23870114 12.77133621
   3.56922093  8.23706604 12.77459827
   0.48953502  1.86960765 20.24165428
  -1.21536452  4.87043696 20.24228670
  -2.91012170  7.87973674 20.24226418
   3.91662216  1.87375247 20.23508669
   2.20421959  4.88062836 20.24730492
   0.50765799  7.87731189 20.23977561
   7.32436323  1.86874280 20.23811031
   5.62721310  4.87487306 20.24383416
   3.92547531  7.87227187 20.23881907
  10.35940473  0.20583349 10.99248252
  -1.59019427  3.21330752 10.99458308
  -3.28619379  6.20961758 10.98480753
  -1.57456455  9.21004753 10.98949399
   1.82812391  3.19813916 10.98465830
   0.12278105  6.21004805 10.98426531
   1.84481551  9.20979730 10.98899115
   5.24858119  3.20674066 10.99480145
   3.54558716  6.21147995 10.98810898
   2.18630365  2.84109009 18.46126785
   0.49087384  5.83869860 18.46719272
  -1.21837856  8.85094787 18.46849813
   5.59848613  2.83872055 18.46320735
   3.89651485  5.84254068 18.46389368
   2.20079226  8.85520779 18.45807007
   9.02336311  2.84088505 18.46182880
   7.31487867  5.84301200 18.45855621
  -4.62936561  8.84508539 18.46814875
 


--------------------------------------------------------------------------------------------------------


 k-point   1 :   0.0000 0.0000 0.0000  plane waves:   79733
 k-point   2 :   0.3333 0.0000 0.0000  plane waves:   79725
 k-point   3 :   0.0000 0.3333-0.0000  plane waves:   79774
 k-point   4 :   0.3333 0.3333 0.0000  plane waves:   79718
 k-point   5 :  -0.3333 0.3333-0.0000  plane waves:   79709

 maximum and minimum number of plane-waves per node :     79774    79709

 maximum number of plane-waves:     79774
 maximum index in each direction: 
   IXMAX=   19   IYMAX=   19   IZMAX=   56
   IXMIN=  -19   IYMIN=  -20   IZMIN=  -56


 serial   3D FFT for wavefunctions
 parallel 3D FFT for charge:
    minimum data exchange during FFTs selected (reduces bandwidth)


 total amount of memory used by VASP MPI-rank0   342267. kBytes
=======================================================================

   base      :      30000. kBytes
   nonl-proj :     183859. kBytes
   fftplans  :      16533. kBytes
   grid      :      78796. kBytes
   one-center:        839. kBytes
   wavefun   :      32240. kBytes
 
     INWAV:  cpu time    0.0001: real time    0.0001
 Broyden mixing: mesh for mixing (old mesh)
   NGX = 39   NGY = 39   NGZ =113
  (NGX  =160   NGY  =160   NGZ  =480)
  gives a total of 171873 points

 initial charge density was supplied:
 charge density of overlapping atoms calculated
 number of electron     324.0000000 magnetization 
 keeping initial charge density in first step


--------------------------------------------------------------------------------------------------------


 Maximum index for augmentation-charges         1197 (set IRDMAX)


--------------------------------------------------------------------------------------------------------


 First call to EWALD:  gamma=   0.127
 Maximum number of real-space cells 4x 4x 2
 Maximum number of reciprocal cells 2x 2x 5

    FEWALD:  cpu time    0.0022: real time    0.0022


--------------------------------------- Iteration      1(   1)  ---------------------------------------


    POTLOK:  cpu time    0.2786: real time    0.2798
    SETDIJ:  cpu time    0.0109: real time    0.0110
     EDDAV:  cpu time   45.6086: real time   45.7656
       DOS:  cpu time    0.0011: real time    0.0012
    --------------------------------------------
      LOOP:  cpu time   45.8991: real time   46.0577

 eigenvalue-minimisations  :  2000
 total energy-change (2. order) : 0.2156590E+04  (-0.1175018E+05)
 number of electron     324.0000000 magnetization 
 augmentation part      324.0000000 magnetization 

 Free energy of the ion-electron system (eV)
  ---------------------------------------------------
  alpha Z        PSCENC =       263.64370041
  Ewald energy   TEWEN  =     58226.69236949
  -Hartree energ DENC   =    -69975.60410969
  -exchange      EXHF   =         0.00000000
  -V(xc)+E(xc)   XCENC  =     -2093.50162867
  PAW double counting   =      7476.04436201    -4809.59211051
  entropy T*S    EENTRO =        -0.13364428
  eigenvalues    EBANDS =      1115.95851421
  atomic energy  EATOM  =     11953.08265402
  Solvation  Ediel_sol  =         0.00000000
  ---------------------------------------------------
  free energy    TOTEN  =      2156.59010700 eV

  energy without entropy =     2156.72375128  energy(sigma->0) =     2156.65692914


--------------------------------------------------------------------------------------------------------




--------------------------------------- Iteration      1(   2)  ---------------------------------------


     EDDAV:  cpu time   64.7218: real time   64.8999
       DOS:  cpu time    0.0005: real time    0.0005
    --------------------------------------------
      LOOP:  cpu time   64.7223: real time   64.9004

 eigenvalue-minimisations  :  3080
 total energy-change (2. order) :-0.2261135E+04  (-0.2191530E+04)
 number of electron     324.0000000 magnetization 
 augmentation part      324.0000000 magnetization 

 Free energy of the ion-electron system (eV)
  ---------------------------------------------------
  alpha Z        PSCENC =       263.64370041
  Ewald energy   TEWEN  =     58226.69236949
  -Hartree energ DENC   =    -69975.60410969
  -exchange      EXHF   =         0.00000000
  -V(xc)+E(xc)   XCENC  =     -2093.50162867
  PAW double counting   =      7476.04436201    -4809.59211051
  entropy T*S    EENTRO =        -0.00008206
  eigenvalues    EBANDS =     -1145.30993774
  atomic energy  EATOM  =     11953.08265402
  Solvation  Ediel_sol  =         0.00000000
  ---------------------------------------------------
  free energy    TOTEN  =      -104.54478274 eV

  energy without entropy =     -104.54470067  energy(sigma->0) =     -104.54474171


--------------------------------------------------------------------------------------------------------




--------------------------------------- Iteration      1(   3)  ---------------------------------------


     EDDAV:  cpu time   53.4200: real time   53.5895
       DOS:  cpu time    0.0004: real time    0.0004
    --------------------------------------------
      LOOP:  cpu time   53.4203: real time   53.5899

 eigenvalue-minimisations  :  2440
 total energy-change (2. order) :-0.2164216E+03  (-0.2129367E+03)
 number of electron     324.0000000 magnetization 
 augmentation part      324.0000000 magnetization 

 Free energy of the ion-electron system (eV)
  ---------------------------------------------------
  alpha Z        PSCENC =       263.64370041
  Ewald energy   TEWEN  =     58226.69236949
  -Hartree energ DENC   =    -69975.60410969
  -exchange      EXHF   =         0.00000000
  -V(xc)+E(xc)   XCENC  =     -2093.50162867
  PAW double counting   =      7476.04436201    -4809.59211051
  entropy T*S    EENTRO =        -0.00000000
  eigenvalues    EBANDS =     -1361.73165982
  atomic energy  EATOM  =     11953.08265402
  Solvation  Ediel_sol  =         0.00000000
  ---------------------------------------------------
  free energy    TOTEN  =      -320.96642275 eV

  energy without entropy =     -320.96642275  energy(sigma->0) =     -320.96642275


--------------------------------------------------------------------------------------------------------




--------------------------------------- Iteration      1(   4)  ---------------------------------------


     EDDAV:  cpu time   66.0190: real time   66.2029
       DOS:  cpu time    0.0004: real time    0.0004
    --------------------------------------------
      LOOP:  cpu time   66.0194: real time   66.2032

 eigenvalue-minimisations  :  3160
 total energy-change (2. order) :-0.1186008E+02  (-0.1178463E+02)
 number of electron     324.0000000 magnetization 
 augmentation part      324.0000000 magnetization 

 Free energy of the ion-electron system (eV)
  ---------------------------------------------------
  alpha Z        PSCENC =       263.64370041
  Ewald energy   TEWEN  =     58226.69236949
  -Hartree energ DENC   =    -69975.60410969
  -exchange      EXHF   =         0.00000000
  -V(xc)+E(xc)   XCENC  =     -2093.50162867
  PAW double counting   =      7476.04436201    -4809.59211051
  entropy T*S    EENTRO =        -0.00000000
  eigenvalues    EBANDS =     -1373.59173785
  atomic energy  EATOM  =     11953.08265402
  Solvation  Ediel_sol  =         0.00000000
  ---------------------------------------------------
  free energy    TOTEN  =      -332.82650078 eV

  energy without entropy =     -332.82650078  energy(sigma->0) =     -332.82650078


--------------------------------------------------------------------------------------------------------




--------------------------------------- Iteration      1(   5)  ---------------------------------------


     EDDAV:  cpu time   61.1150: real time   61.2966
       DOS:  cpu time    0.0004: real time    0.0004
    CHARGE:  cpu time    1.1214: real time    1.1262
    MIXING:  cpu time    0.0092: real time    0.0094
    --------------------------------------------
      LOOP:  cpu time   62.2460: real time   62.4326

 eigenvalue-minimisations  :  2880
 total energy-change (2. order) :-0.2652593E+00  (-0.2649122E+00)
 number of electron     323.9999995 magnetization 
 augmentation part      -24.6163459 magnetization 

 Broyden mixing:
  rms(total) = 0.17734E+01    rms(broyden)= 0.17734E+01
  rms(prec ) = 0.18755E+01
  weight for this iteration     100.00

 Free energy of the ion-electron system (eV)
  ---------------------------------------------------
  alpha Z        PSCENC =       263.64370041
  Ewald energy   TEWEN  =     58226.69236949
  -Hartree energ DENC   =    -69975.60410969
  -exchange      EXHF   =         0.00000000
  -V(xc)+E(xc)   XCENC  =     -2093.50162867
  PAW double counting   =      7476.04436201    -4809.59211051
  entropy T*S    EENTRO =        -0.00000000
  eigenvalues    EBANDS =     -1373.85699716
  atomic energy  EATOM  =     11953.08265402
  Solvation  Ediel_sol  =         0.00000000
  ---------------------------------------------------
  free energy    TOTEN  =      -333.09176009 eV

  energy without entropy =     -333.09176009  energy(sigma->0) =     -333.09176009


--------------------------------------------------------------------------------------------------------




--------------------------------------- Iteration      1(   6)  ---------------------------------------


    POTLOK:  cpu time    0.2413: real time    0.2415
    SETDIJ:  cpu time    0.0143: real time    0.0143
    EDDIAG:  cpu time    2.4514: real time    2.4629
  RMM-DIIS:  cpu time   37.8836: real time   37.9816
    ORTHCH:  cpu time    0.2185: real time    0.2187
       DOS:  cpu time    0.0004: real time    0.0004
    CHARGE:  cpu time    1.1171: real time    1.1184
    MIXING:  cpu time    0.0070: real time    0.0072
    --------------------------------------------
      LOOP:  cpu time   41.9335: real time   42.0450

 eigenvalue-minimisations  :  2063
 total energy-change (2. order) : 0.8862143E+01  (-0.2882406E+01)
 number of electron     323.9999996 magnetization 
 augmentation part      -20.9625716 magnetization 

 Broyden mixing:
  rms(total) = 0.70436E+00    rms(broyden)= 0.70436E+00
  rms(prec ) = 0.78330E+00
  weight for this iteration     100.00

 eigenvalues of (default mixing * dielectric matrix)
  average eigenvalue GAMMA=   1.3111
  1.3111

 Free energy of the ion-electron system (eV)
  ---------------------------------------------------
  alpha Z        PSCENC =       263.64370041
  Ewald energy   TEWEN  =     58226.69236949
  -Hartree energ DENC   =    -69982.76978427
  -exchange      EXHF   =         0.00000000
  -V(xc)+E(xc)   XCENC  =     -2087.18730746
  PAW double counting   =      7819.78738307    -5166.11476254
  entropy T*S    EENTRO =        -0.00000000
  eigenvalues    EBANDS =     -1351.36386957
  atomic energy  EATOM  =     11953.08265402
  Solvation  Ediel_sol  =         0.00000000
  ---------------------------------------------------
  free energy    TOTEN  =      -324.22961684 eV

  energy without entropy =     -324.22961684  energy(sigma->0) =     -324.22961684


--------------------------------------------------------------------------------------------------------




--------------------------------------- Iteration      1(   7)  ---------------------------------------


    POTLOK:  cpu time    0.2385: real time    0.2387
    SETDIJ:  cpu time    0.0118: real time    0.0118
    EDDIAG:  cpu time    2.4333: real time    2.4358
  RMM-DIIS:  cpu time   36.2501: real time   36.3653
    ORTHCH:  cpu time    0.2168: real time    0.2171
       DOS:  cpu time    0.0005: real time    0.0005
    CHARGE:  cpu time    1.1173: real time    1.1186
    MIXING:  cpu time    0.0071: real time    0.0105
    --------------------------------------------
      LOOP:  cpu time   40.2753: real time   40.3983

 eigenvalue-minimisations  :  2000
 total energy-change (2. order) : 0.2583587E+01  (-0.9390555E+00)
 number of electron     323.9999996 magnetization 
 augmentation part      -21.6927264 magnetization 

 Broyden mixing:
  rms(total) = 0.37781E+00    rms(broyden)= 0.37781E+00
  rms(prec ) = 0.39966E+00
  weight for this iteration     100.00

 eigenvalues of (default mixing * dielectric matrix)
  average eigenvalue GAMMA=   1.5055
  0.8252  2.1857

 Free energy of the ion-electron system (eV)
  ---------------------------------------------------
  alpha Z        PSCENC =       263.64370041
  Ewald energy   TEWEN  =     58226.69236949
  -Hartree energ DENC   =    -70067.68144151
  -exchange      EXHF   =         0.00000000
  -V(xc)+E(xc)   XCENC  =     -2084.22104018
  PAW double counting   =      8215.71863545    -5570.12573002
  entropy T*S    EENTRO =        -0.00000000
  eigenvalues    EBANDS =     -1258.75517712
  atomic energy  EATOM  =     11953.08265402
  Solvation  Ediel_sol  =         0.00000000
  ---------------------------------------------------
  free energy    TOTEN  =      -321.64602945 eV

  energy without entropy =     -321.64602945  energy(sigma->0) =     -321.64602945


--------------------------------------------------------------------------------------------------------




--------------------------------------- Iteration      1(   8)  ---------------------------------------


    POTLOK:  cpu time    0.2390: real time    0.2392
    SETDIJ:  cpu time    0.0135: real time    0.0136
    EDDIAG:  cpu time    2.4280: real time    2.4350
  RMM-DIIS:  cpu time   37.0130: real time   37.1051
    ORTHCH:  cpu time    0.2217: real time    0.2258
       DOS:  cpu time    0.0004: real time    0.0004
    CHARGE:  cpu time    1.1182: real time    1.1194
    MIXING:  cpu time    0.0110: real time    0.0110
    --------------------------------------------
      LOOP:  cpu time   41.0448: real time   41.1496

 eigenvalue-minimisations  :  2013
 total energy-change (2. order) : 0.2715418E+00  (-0.4260053E+00)
 number of electron     323.9999996 magnetization 
 augmentation part      -21.1955285 magnetization 

 Broyden mixing:
  rms(total) = 0.93532E-01    rms(broyden)= 0.93532E-01
  rms(prec ) = 0.10339E+00
  weight for this iteration     100.00

 eigenvalues of (default mixing * dielectric matrix)
  average eigenvalue GAMMA=   1.4338
  2.1373  1.3660  0.7981

 Free energy of the ion-electron system (eV)
  ---------------------------------------------------
  alpha Z        PSCENC =       263.64370041
  Ewald energy   TEWEN  =     58226.69236949
  -Hartree energ DENC   =    -70113.46808863
  -exchange      EXHF   =         0.00000000
  -V(xc)+E(xc)   XCENC  =     -2080.79254949
  PAW double counting   =      8516.93583923    -5877.14847771
  entropy T*S    EENTRO =        -0.00000000
  eigenvalues    EBANDS =     -1210.31993500
  atomic energy  EATOM  =     11953.08265402
  Solvation  Ediel_sol  =         0.00000000
  ---------------------------------------------------
  free energy    TOTEN  =      -321.37448767 eV

  energy without entropy =     -321.37448767  energy(sigma->0) =     -321.37448767


--------------------------------------------------------------------------------------------------------




--------------------------------------- Iteration      1(   9)  ---------------------------------------


    POTLOK:  cpu time    0.2371: real time    0.2374
    SETDIJ:  cpu time    0.0110: real time    0.0110
    EDDIAG:  cpu time    2.4225: real time    2.4294
  RMM-DIIS:  cpu time   41.6820: real time   41.8137
    ORTHCH:  cpu time    0.2155: real time    0.2169
       DOS:  cpu time    0.0005: real time    0.0005
    CHARGE:  cpu time    1.1208: real time    1.1261
    MIXING:  cpu time    0.0067: real time    0.0067
    --------------------------------------------
      LOOP:  cpu time   45.6961: real time   45.8417

 eigenvalue-minimisations  :  2255
 total energy-change (2. order) :-0.6950301E-01  (-0.9849293E-01)
 number of electron     323.9999996 magnetization 
 augmentation part      -21.0074452 magnetization 

 Broyden mixing:
  rms(total) = 0.98067E-01    rms(broyden)= 0.98066E-01
  rms(prec ) = 0.11035E+00
  weight for this iteration     100.00

 eigenvalues of (default mixing * dielectric matrix)
  average eigenvalue GAMMA=   1.3876
  2.1647  2.1647  0.7871  0.4337

 Free energy of the ion-electron system (eV)
  ---------------------------------------------------
  alpha Z        PSCENC =       263.64370041
  Ewald energy   TEWEN  =     58226.69236949
  -Hartree energ DENC   =    -70121.84033800
  -exchange      EXHF   =         0.00000000
  -V(xc)+E(xc)   XCENC  =     -2080.37724097
  PAW double counting   =      8548.80353093    -5909.34725711
  entropy T*S    EENTRO =        -0.00000000
  eigenvalues    EBANDS =     -1202.10140947
  atomic energy  EATOM  =     11953.08265402
  Solvation  Ediel_sol  =         0.00000000
  ---------------------------------------------------
  free energy    TOTEN  =      -321.44399068 eV

  energy without entropy =     -321.44399068  energy(sigma->0) =     -321.44399068


--------------------------------------------------------------------------------------------------------




--------------------------------------- Iteration      1(  10)  ---------------------------------------


    POTLOK:  cpu time    0.2585: real time    0.2588
    SETDIJ:  cpu time    0.0134: real time    0.0134
    EDDIAG:  cpu time    2.4313: real time    2.4424
  RMM-DIIS:  cpu time   40.4723: real time   40.5857
    ORTHCH:  cpu time    0.2029: real time    0.2031
       DOS:  cpu time    0.0004: real time    0.0004
    CHARGE:  cpu time    1.1225: real time    1.1240
    MIXING:  cpu time    0.0070: real time    0.0070
    --------------------------------------------
      LOOP:  cpu time   44.5081: real time   44.6347

 eigenvalue-minimisations  :  2212
 total energy-change (2. order) : 0.2126973E-01  (-0.1906234E-01)
 number of electron     323.9999996 magnetization 
 augmentation part      -21.0609472 magnetization 

 Broyden mixing:
  rms(total) = 0.30693E-01    rms(broyden)= 0.30693E-01
  rms(prec ) = 0.36764E-01
  weight for this iteration     100.00

 eigenvalues of (default mixing * dielectric matrix)
  average eigenvalue GAMMA=   1.3457
  2.2757  2.2757  0.8823  0.8823  0.4127

 Free energy of the ion-electron system (eV)
  ---------------------------------------------------
  alpha Z        PSCENC =       263.64370041
  Ewald energy   TEWEN  =     58226.69236949
  -Hartree energ DENC   =    -70131.80999815
  -exchange      EXHF   =         0.00000000
  -V(xc)+E(xc)   XCENC  =     -2080.11459088
  PAW double counting   =      8580.49836252    -5941.13931430
  entropy T*S    EENTRO =        -0.00000000
  eigenvalues    EBANDS =     -1192.27590408
  atomic energy  EATOM  =     11953.08265402
  Solvation  Ediel_sol  =         0.00000000
  ---------------------------------------------------
  free energy    TOTEN  =      -321.42272095 eV

  energy without entropy =     -321.42272095  energy(sigma->0) =     -321.42272095


--------------------------------------------------------------------------------------------------------




--------------------------------------- Iteration      1(  11)  ---------------------------------------


    POTLOK:  cpu time    0.2398: real time    0.2400
    SETDIJ:  cpu time    0.0179: real time    0.0179
    EDDIAG:  cpu time    2.4334: real time    2.4404
  RMM-DIIS:  cpu time   45.2855: real time   45.4002
    ORTHCH:  cpu time    0.2014: real time    0.2016
       DOS:  cpu time    0.0004: real time    0.0004
    CHARGE:  cpu time    1.1137: real time    1.1233
    MIXING:  cpu time    0.0136: real time    0.0136
    --------------------------------------------
      LOOP:  cpu time   49.3057: real time   49.4375

 eigenvalue-minimisations  :  2451
 total energy-change (2. order) :-0.1675888E-02  (-0.6448676E-02)
 number of electron     323.9999996 magnetization 
 augmentation part      -21.1835257 magnetization 

 Broyden mixing:
  rms(total) = 0.18919E-01    rms(broyden)= 0.18919E-01
  rms(prec ) = 0.22551E-01
  weight for this iteration     100.00

 eigenvalues of (default mixing * dielectric matrix)
  average eigenvalue GAMMA=   1.2657
  2.4454  2.0498  1.2902  0.7793  0.6131  0.4164

 Free energy of the ion-electron system (eV)
  ---------------------------------------------------
  alpha Z        PSCENC =       263.64370041
  Ewald energy   TEWEN  =     58226.69236949
  -Hartree energ DENC   =    -70141.52561984
  -exchange      EXHF   =         0.00000000
  -V(xc)+E(xc)   XCENC  =     -2079.96324696
  PAW double counting   =      8602.80938715    -5963.51279620
  entropy T*S    EENTRO =        -0.00000000
  eigenvalues    EBANDS =     -1182.65084493
  atomic energy  EATOM  =     11953.08265402
  Solvation  Ediel_sol  =         0.00000000
  ---------------------------------------------------
  free energy    TOTEN  =      -321.42439684 eV

  energy without entropy =     -321.42439684  energy(sigma->0) =     -321.42439684


--------------------------------------------------------------------------------------------------------




--------------------------------------- Iteration      1(  12)  ---------------------------------------


    POTLOK:  cpu time    0.2425: real time    0.2428
    SETDIJ:  cpu time    0.0176: real time    0.0176
    EDDIAG:  cpu time    2.4327: real time    2.4356
  RMM-DIIS:  cpu time   45.5008: real time   45.6470
    ORTHCH:  cpu time    0.2322: real time    0.2324
       DOS:  cpu time    0.0004: real time    0.0004
    CHARGE:  cpu time    1.1239: real time    1.1293
    MIXING:  cpu time    0.0072: real time    0.0072
    --------------------------------------------
      LOOP:  cpu time   49.5573: real time   49.7124

 eigenvalue-minimisations  :  2479
 total energy-change (2. order) :-0.6204630E-03  (-0.1369554E-02)
 number of electron     323.9999996 magnetization 
 augmentation part      -21.1681398 magnetization 

 Broyden mixing:
  rms(total) = 0.12805E-01    rms(broyden)= 0.12805E-01
  rms(prec ) = 0.15889E-01
  weight for this iteration     100.00

 eigenvalues of (default mixing * dielectric matrix)
  average eigenvalue GAMMA=   1.3426
  2.3231  2.3231  2.2261  0.8489  0.8489  0.4304  0.3977

 Free energy of the ion-electron system (eV)
  ---------------------------------------------------
  alpha Z        PSCENC =       263.64370041
  Ewald energy   TEWEN  =     58226.69236949
  -Hartree energ DENC   =    -70144.65901748
  -exchange      EXHF   =         0.00000000
  -V(xc)+E(xc)   XCENC  =     -2079.91174302
  PAW double counting   =      8604.86991049    -5965.54389935
  entropy T*S    EENTRO =        -0.00000000
  eigenvalues    EBANDS =     -1179.59899188
  atomic energy  EATOM  =     11953.08265402
  Solvation  Ediel_sol  =         0.00000000
  ---------------------------------------------------
  free energy    TOTEN  =      -321.42501731 eV

  energy without entropy =     -321.42501731  energy(sigma->0) =     -321.42501731


--------------------------------------------------------------------------------------------------------




--------------------------------------- Iteration      1(  13)  ---------------------------------------


    POTLOK:  cpu time    0.2457: real time    0.2460
    SETDIJ:  cpu time    0.0108: real time    0.0108
    EDDIAG:  cpu time    2.4234: real time    2.4345
  RMM-DIIS:  cpu time   41.2110: real time   41.3382
    ORTHCH:  cpu time    0.2140: real time    0.2143
       DOS:  cpu time    0.0004: real time    0.0004
    CHARGE:  cpu time    1.1256: real time    1.1268
    MIXING:  cpu time    0.0111: real time    0.0111
    --------------------------------------------
      LOOP:  cpu time   45.2420: real time   45.3821

 eigenvalue-minimisations  :  2262
 total energy-change (2. order) :-0.1127266E-02  (-0.8341881E-03)
 number of electron     323.9999996 magnetization 
 augmentation part      -21.1125000 magnetization 

 Broyden mixing:
  rms(total) = 0.11197E-01    rms(broyden)= 0.11197E-01
  rms(prec ) = 0.13776E-01
  weight for this iteration     100.00

 eigenvalues of (default mixing * dielectric matrix)
  average eigenvalue GAMMA=   1.3833
  3.0081  2.4708  1.5529  1.5529  0.8273  0.8273  0.4399  0.3875

 Free energy of the ion-electron system (eV)
  ---------------------------------------------------
  alpha Z        PSCENC =       263.64370041
  Ewald energy   TEWEN  =     58226.69236949
  -Hartree energ DENC   =    -70150.12890030
  -exchange      EXHF   =         0.00000000
  -V(xc)+E(xc)   XCENC  =     -2079.85385870
  PAW double counting   =      8602.47186983    -5963.02459627
  entropy T*S    EENTRO =        -0.00000000
  eigenvalues    EBANDS =     -1174.30938306
  atomic energy  EATOM  =     11953.08265402
  Solvation  Ediel_sol  =         0.00000000
  ---------------------------------------------------
  free energy    TOTEN  =      -321.42614457 eV

  energy without entropy =     -321.42614457  energy(sigma->0) =     -321.42614457


--------------------------------------------------------------------------------------------------------




--------------------------------------- Iteration      1(  14)  ---------------------------------------


    POTLOK:  cpu time    0.2449: real time    0.2451
    SETDIJ:  cpu time    0.0177: real time    0.0177
    EDDIAG:  cpu time    2.4641: real time    2.4713
  RMM-DIIS:  cpu time   38.0597: real time   38.1766
    ORTHCH:  cpu time    0.2171: real time    0.2174
       DOS:  cpu time    0.0004: real time    0.0004
    CHARGE:  cpu time    1.1304: real time    1.1316
    MIXING:  cpu time    0.0119: real time    0.0119
    --------------------------------------------
      LOOP:  cpu time   42.1462: real time   42.2720

 eigenvalue-minimisations  :  2045
 total energy-change (2. order) :-0.3289129E-03  (-0.3424070E-03)
 number of electron     323.9999996 magnetization 
 augmentation part      -21.1511159 magnetization 

 Broyden mixing:
  rms(total) = 0.43847E-02    rms(broyden)= 0.43847E-02
  rms(prec ) = 0.59876E-02
  weight for this iteration     100.00

 eigenvalues of (default mixing * dielectric matrix)
  average eigenvalue GAMMA=   1.3645
  3.0713  2.3715  1.7622  1.7622  0.8857  0.7995  0.7995  0.4407  0.3875

 Free energy of the ion-electron system (eV)
  ---------------------------------------------------
  alpha Z        PSCENC =       263.64370041
  Ewald energy   TEWEN  =     58226.69236949
  -Hartree energ DENC   =    -70156.01109855
  -exchange      EXHF   =         0.00000000
  -V(xc)+E(xc)   XCENC  =     -2079.84018243
  PAW double counting   =      8604.55042323    -5965.05072679
  entropy T*S    EENTRO =        -0.00000000
  eigenvalues    EBANDS =     -1168.49361288
  atomic energy  EATOM  =     11953.08265402
  Solvation  Ediel_sol  =         0.00000000
  ---------------------------------------------------
  free energy    TOTEN  =      -321.42647348 eV

  energy without entropy =     -321.42647348  energy(sigma->0) =     -321.42647348


--------------------------------------------------------------------------------------------------------




--------------------------------------- Iteration      1(  15)  ---------------------------------------


    POTLOK:  cpu time    0.2495: real time    0.2524
    SETDIJ:  cpu time    0.0107: real time    0.0107
    EDDIAG:  cpu time    2.4345: real time    2.4416
  RMM-DIIS:  cpu time   44.3455: real time   44.4706
    ORTHCH:  cpu time    0.2082: real time    0.2084
       DOS:  cpu time    0.0004: real time    0.0004
    CHARGE:  cpu time    1.1191: real time    1.1244
    MIXING:  cpu time    0.0074: real time    0.0074
    --------------------------------------------
      LOOP:  cpu time   48.3753: real time   48.5158

 eigenvalue-minimisations  :  2407
 total energy-change (2. order) :-0.1299340E-02  (-0.1393269E-03)
 number of electron     323.9999996 magnetization 
 augmentation part      -21.1511307 magnetization 

 Broyden mixing:
  rms(total) = 0.37775E-02    rms(broyden)= 0.37775E-02
  rms(prec ) = 0.49375E-02
  weight for this iteration     100.00

 eigenvalues of (default mixing * dielectric matrix)
  average eigenvalue GAMMA=   1.4540
  3.6560  2.5075  2.5075  1.7549  1.1968  0.8167  0.8167  0.3884  0.4339  0.4615

 Free energy of the ion-electron system (eV)
  ---------------------------------------------------
  alpha Z        PSCENC =       263.64370041
  Ewald energy   TEWEN  =     58226.69236949
  -Hartree energ DENC   =    -70158.74074750
  -exchange      EXHF   =         0.00000000
  -V(xc)+E(xc)   XCENC  =     -2079.81825167
  PAW double counting   =      8603.59434662    -5964.11477881
  entropy T*S    EENTRO =        -0.00000000
  eigenvalues    EBANDS =     -1165.76706540
  atomic energy  EATOM  =     11953.08265402
  Solvation  Ediel_sol  =         0.00000000
  ---------------------------------------------------
  free energy    TOTEN  =      -321.42777282 eV

  energy without entropy =     -321.42777282  energy(sigma->0) =     -321.42777282


--------------------------------------------------------------------------------------------------------




--------------------------------------- Iteration      1(  16)  ---------------------------------------


    POTLOK:  cpu time    0.2425: real time    0.2427
    SETDIJ:  cpu time    0.0141: real time    0.0141
    EDDIAG:  cpu time    2.4471: real time    2.4501
  RMM-DIIS:  cpu time   38.7660: real time   38.8937
    ORTHCH:  cpu time    0.2030: real time    0.2032
       DOS:  cpu time    0.0004: real time    0.0004
    CHARGE:  cpu time    1.1157: real time    1.1171
    MIXING:  cpu time    0.0089: real time    0.0089
    --------------------------------------------
      LOOP:  cpu time   42.7977: real time   42.9303

 eigenvalue-minimisations  :  2097
 total energy-change (2. order) :-0.1716476E-02  (-0.7925550E-04)
 number of electron     323.9999996 magnetization 
 augmentation part      -21.1380260 magnetization 

 Broyden mixing:
  rms(total) = 0.26963E-02    rms(broyden)= 0.26963E-02
  rms(prec ) = 0.31204E-02
  weight for this iteration     100.00

 eigenvalues of (default mixing * dielectric matrix)
  average eigenvalue GAMMA=   1.5171
  4.8867  2.4880  2.4880  1.5508  1.5508  0.8666  0.8060  0.8060  0.4425  0.3883
  0.4143

 Free energy of the ion-electron system (eV)
  ---------------------------------------------------
  alpha Z        PSCENC =       263.64370041
  Ewald energy   TEWEN  =     58226.69236949
  -Hartree energ DENC   =    -70162.96676167
  -exchange      EXHF   =         0.00000000
  -V(xc)+E(xc)   XCENC  =     -2079.78800966
  PAW double counting   =      8601.55325635    -5962.08996674
  entropy T*S    EENTRO =        -0.00000000
  eigenvalues    EBANDS =     -1161.55673150
  atomic energy  EATOM  =     11953.08265402
  Solvation  Ediel_sol  =         0.00000000
  ---------------------------------------------------
  free energy    TOTEN  =      -321.42948930 eV

  energy without entropy =     -321.42948930  energy(sigma->0) =     -321.42948930


--------------------------------------------------------------------------------------------------------




--------------------------------------- Iteration      1(  17)  ---------------------------------------


    POTLOK:  cpu time    0.2503: real time    0.2506
    SETDIJ:  cpu time    0.0107: real time    0.0107
    EDDIAG:  cpu time    2.4270: real time    2.4341
  RMM-DIIS:  cpu time   43.6859: real time   43.8078
    ORTHCH:  cpu time    0.2223: real time    0.2226
       DOS:  cpu time    0.0004: real time    0.0004
    CHARGE:  cpu time    1.1197: real time    1.1209
    MIXING:  cpu time    0.0087: real time    0.0087
    --------------------------------------------
      LOOP:  cpu time   47.7250: real time   47.8557

 eigenvalue-minimisations  :  2359
 total energy-change (2. order) :-0.6179707E-03  (-0.2274042E-04)
 number of electron     323.9999996 magnetization 
 augmentation part      -21.1395964 magnetization 

 Broyden mixing:
  rms(total) = 0.15552E-02    rms(broyden)= 0.15552E-02
  rms(prec ) = 0.18106E-02
  weight for this iteration     100.00

 eigenvalues of (default mixing * dielectric matrix)
  average eigenvalue GAMMA=   1.5271
  5.3959  2.6599  2.2298  1.7497  1.7497  0.9618  0.8176  0.8176  0.6979  0.3881
  0.4410  0.4158

 Free energy of the ion-electron system (eV)
  ---------------------------------------------------
  alpha Z        PSCENC =       263.64370041
  Ewald energy   TEWEN  =     58226.69236949
  -Hartree energ DENC   =    -70164.45166342
  -exchange      EXHF   =         0.00000000
  -V(xc)+E(xc)   XCENC  =     -2079.78914565
  PAW double counting   =      8601.10422273    -5961.62314996
  entropy T*S    EENTRO =        -0.00000000
  eigenvalues    EBANDS =     -1160.08909490
  atomic energy  EATOM  =     11953.08265402
  Solvation  Ediel_sol  =         0.00000000
  ---------------------------------------------------
  free energy    TOTEN  =      -321.43010727 eV

  energy without entropy =     -321.43010727  energy(sigma->0) =     -321.43010727


--------------------------------------------------------------------------------------------------------




--------------------------------------- Iteration      1(  18)  ---------------------------------------


    POTLOK:  cpu time    0.2517: real time    0.2520
    SETDIJ:  cpu time    0.0149: real time    0.0149
    EDDIAG:  cpu time    2.4380: real time    2.4413
  RMM-DIIS:  cpu time   41.2525: real time   41.3533
    ORTHCH:  cpu time    0.2269: real time    0.2273
       DOS:  cpu time    0.0004: real time    0.0004
    CHARGE:  cpu time    1.1157: real time    1.1169
    MIXING:  cpu time    0.0082: real time    0.0082
    --------------------------------------------
      LOOP:  cpu time   45.3084: real time   45.4144

 eigenvalue-minimisations  :  2226
 total energy-change (2. order) :-0.3432371E-03  (-0.8004058E-05)
 number of electron     323.9999996 magnetization 
 augmentation part      -21.1430384 magnetization 

 Broyden mixing:
  rms(total) = 0.83392E-03    rms(broyden)= 0.83392E-03
  rms(prec ) = 0.10633E-02
  weight for this iteration     100.00

 eigenvalues of (default mixing * dielectric matrix)
  average eigenvalue GAMMA=   1.5881
  6.1976  2.8748  2.2158  2.2158  1.8059  1.1137  0.9025  0.8173  0.8173  0.3881
  0.4425  0.4391  0.4149

 Free energy of the ion-electron system (eV)
  ---------------------------------------------------
  alpha Z        PSCENC =       263.64370041
  Ewald energy   TEWEN  =     58226.69236949
  -Hartree energ DENC   =    -70164.84822270
  -exchange      EXHF   =         0.00000000
  -V(xc)+E(xc)   XCENC  =     -2079.79303220
  PAW double counting   =      8601.20710252    -5961.71975692
  entropy T*S    EENTRO =        -0.00000000
  eigenvalues    EBANDS =     -1159.69526514
  atomic energy  EATOM  =     11953.08265402
  Solvation  Ediel_sol  =         0.00000000
  ---------------------------------------------------
  free energy    TOTEN  =      -321.43045051 eV

  energy without entropy =     -321.43045051  energy(sigma->0) =     -321.43045051


--------------------------------------------------------------------------------------------------------




--------------------------------------- Iteration      1(  19)  ---------------------------------------


    POTLOK:  cpu time    0.2516: real time    0.2529
    SETDIJ:  cpu time    0.0109: real time    0.0109
    EDDIAG:  cpu time    2.4374: real time    2.4442
  RMM-DIIS:  cpu time   40.3130: real time   40.4244
    ORTHCH:  cpu time    0.2127: real time    0.2129
       DOS:  cpu time    0.0004: real time    0.0004
    CHARGE:  cpu time    1.1152: real time    1.1207
    MIXING:  cpu time    0.0106: real time    0.0106
    --------------------------------------------
      LOOP:  cpu time   44.3517: real time   44.4771

 eigenvalue-minimisations  :  2186
 total energy-change (2. order) :-0.3674350E-03  (-0.4512367E-05)
 number of electron     323.9999996 magnetization 
 augmentation part      -21.1450683 magnetization 

 Broyden mixing:
  rms(total) = 0.71920E-03    rms(broyden)= 0.71920E-03
  rms(prec ) = 0.84425E-03
  weight for this iteration     100.00

 eigenvalues of (default mixing * dielectric matrix)
  average eigenvalue GAMMA=   1.6131
  6.6158  3.2239  2.4284  1.9093  1.9093  1.2389  1.2046  0.8149  0.8149  0.7574
  0.4442  0.4356  0.3886  0.3967

 Free energy of the ion-electron system (eV)
  ---------------------------------------------------
  alpha Z        PSCENC =       263.64370041
  Ewald energy   TEWEN  =     58226.69236949
  -Hartree energ DENC   =    -70165.22988892
  -exchange      EXHF   =         0.00000000
  -V(xc)+E(xc)   XCENC  =     -2079.79487041
  PAW double counting   =      8601.36060957    -5961.87412525
  entropy T*S    EENTRO =        -0.00000000
  eigenvalues    EBANDS =     -1159.31126686
  atomic energy  EATOM  =     11953.08265402
  Solvation  Ediel_sol  =         0.00000000
  ---------------------------------------------------
  free energy    TOTEN  =      -321.43081794 eV

  energy without entropy =     -321.43081794  energy(sigma->0) =     -321.43081794


--------------------------------------------------------------------------------------------------------




--------------------------------------- Iteration      1(  20)  ---------------------------------------


    POTLOK:  cpu time    0.2447: real time    0.2449
    SETDIJ:  cpu time    0.0109: real time    0.0109
    EDDIAG:  cpu time    2.4198: real time    2.4312
  RMM-DIIS:  cpu time   36.1216: real time   36.2121
    ORTHCH:  cpu time    0.2200: real time    0.2202
       DOS:  cpu time    0.0004: real time    0.0004
    CHARGE:  cpu time    1.1189: real time    1.1200
    MIXING:  cpu time    0.0128: real time    0.0128
    --------------------------------------------
      LOOP:  cpu time   40.1491: real time   40.2526

 eigenvalue-minimisations  :  1955
 total energy-change (2. order) :-0.1535572E-03  (-0.2485839E-05)
 number of electron     323.9999996 magnetization 
 augmentation part      -21.1427670 magnetization 

 Broyden mixing:
  rms(total) = 0.33359E-03    rms(broyden)= 0.33359E-03
  rms(prec ) = 0.40941E-03
  weight for this iteration     100.00

 eigenvalues of (default mixing * dielectric matrix)
  average eigenvalue GAMMA=   1.6563
  6.6798  3.3881  2.5028  2.2422  2.2422  1.6819  1.1094  0.9484  0.8125  0.8125
  0.7581  0.4452  0.4348  0.3884  0.3980

 Free energy of the ion-electron system (eV)
  ---------------------------------------------------
  alpha Z        PSCENC =       263.64370041
  Ewald energy   TEWEN  =     58226.69236949
  -Hartree energ DENC   =    -70165.47077257
  -exchange      EXHF   =         0.00000000
  -V(xc)+E(xc)   XCENC  =     -2079.79257327
  PAW double counting   =      8601.39492413    -5961.91473085
  entropy T*S    EENTRO =        -0.00000000
  eigenvalues    EBANDS =     -1159.06654286
  atomic energy  EATOM  =     11953.08265402
  Solvation  Ediel_sol  =         0.00000000
  ---------------------------------------------------
  free energy    TOTEN  =      -321.43097150 eV

  energy without entropy =     -321.43097150  energy(sigma->0) =     -321.43097150


--------------------------------------------------------------------------------------------------------




--------------------------------------- Iteration      1(  21)  ---------------------------------------


    POTLOK:  cpu time    0.2498: real time    0.2501
    SETDIJ:  cpu time    0.0108: real time    0.0108
    EDDIAG:  cpu time    2.4353: real time    2.4425
  RMM-DIIS:  cpu time   32.0312: real time   32.1335
    ORTHCH:  cpu time    0.2310: real time    0.2312
       DOS:  cpu time    0.0007: real time    0.0007
    CHARGE:  cpu time    1.1137: real time    1.1184
    MIXING:  cpu time    0.0099: real time    0.0099
    --------------------------------------------
      LOOP:  cpu time   36.0824: real time   36.1972

 eigenvalue-minimisations  :  1655
 total energy-change (2. order) :-0.8917592E-04  (-0.7134230E-06)
 number of electron     323.9999996 magnetization 
 augmentation part      -21.1429922 magnetization 

 Broyden mixing:
  rms(total) = 0.17361E-03    rms(broyden)= 0.17361E-03
  rms(prec ) = 0.23353E-03
  weight for this iteration     100.00

 eigenvalues of (default mixing * dielectric matrix)
  average eigenvalue GAMMA=   1.6739
  6.9595  3.7923  2.7707  2.3833  1.9330  1.9330  1.0886  1.0886  0.8103  0.8103
  0.7733  0.7733  0.4448  0.4343  0.3884  0.3986

 Free energy of the ion-electron system (eV)
  ---------------------------------------------------
  alpha Z        PSCENC =       263.64370041
  Ewald energy   TEWEN  =     58226.69236949
  -Hartree energ DENC   =    -70165.62085861
  -exchange      EXHF   =         0.00000000
  -V(xc)+E(xc)   XCENC  =     -2079.79370548
  PAW double counting   =      8601.51664444    -5962.03451821
  entropy T*S    EENTRO =        -0.00000000
  eigenvalues    EBANDS =     -1158.91734675
  atomic energy  EATOM  =     11953.08265402
  Solvation  Ediel_sol  =         0.00000000
  ---------------------------------------------------
[...]
  0.000  -0.000   0.000   0.000   0.000   0.011  -0.000  -0.000
  0.000  -0.000   0.000   0.000   0.000  -0.000   0.011  -0.000
  0.000   0.000   0.000   0.000   0.000  -0.000  -0.000   0.011
 -0.000  -0.000  -0.001  -0.000   0.000   0.000   0.000  -0.000
 -0.000  -0.000   0.017   0.000  -0.000   0.000  -0.000   0.000
 -0.010  -0.000  -0.000   0.021   0.000   0.000   0.000  -0.000
 -0.000  -0.000  -0.000  -0.001   0.017   0.000   0.000   0.000
  0.000  -0.000  -0.000  -0.000  -0.001  -0.000   0.000   0.000
 total augmentation occupancy for first ion, spin component:           1
  1.929   0.260  -0.004  -0.198  -0.004  -0.002  -0.056   0.002  -0.001  -0.000   0.008  -0.001  -0.001
  0.260   1.496   0.018   0.978  -0.000  -0.004  -0.402   0.018  -0.002   0.002  -0.026  -0.000   0.001
 -0.004   0.018   1.349  -0.000  -0.003  -0.515  -0.004   0.007   0.001   0.125  -0.002  -0.003   0.042
 -0.198   0.978  -0.000   1.524  -0.009  -0.004  -0.577   0.003  -0.004   0.001   0.042  -0.004  -0.002
 -0.004  -0.000  -0.003  -0.009   1.347   0.007   0.002  -0.508   0.048  -0.003  -0.001   0.123  -0.001
 -0.002  -0.004  -0.515  -0.004   0.007   0.352   0.002  -0.003   0.004  -0.043  -0.000   0.001  -0.008
 -0.056  -0.402  -0.004  -0.577   0.002   0.002   0.321  -0.000   0.000  -0.001  -0.051   0.001   0.000
  0.002   0.018   0.007   0.003  -0.508  -0.003  -0.000   0.350  -0.008   0.000  -0.002  -0.042   0.001
 -0.001  -0.002   0.001  -0.004   0.048   0.004   0.000  -0.008   0.023   0.000   0.001  -0.000  -0.000
 -0.000   0.002   0.125   0.001  -0.003  -0.043  -0.001   0.000   0.000   0.021  -0.000  -0.000  -0.001
  0.008  -0.026  -0.002   0.042  -0.001  -0.000  -0.051  -0.002   0.001  -0.000   0.023  -0.000  -0.000
 -0.001  -0.000  -0.003  -0.004   0.123   0.001   0.001  -0.042  -0.000  -0.000  -0.000   0.021  -0.000
 -0.001   0.001   0.042  -0.002  -0.001  -0.008   0.000   0.001  -0.000  -0.001  -0.000  -0.000   0.024


------------------------ aborting loop because EDIFF is reached ----------------------------------------


    CHARGE:  cpu time    1.1180: real time    1.1193
    FORLOC:  cpu time    0.0789: real time    0.0790
    FORNL :  cpu time   12.5952: real time   12.6146
    STRESS:  cpu time   66.6198: real time   66.8110
    FORCOR:  cpu time    0.2826: real time    0.2829
    FORHAR:  cpu time    0.1177: real time    0.1178
    MIXING:  cpu time    0.0071: real time    0.0071
    OFIELD:  cpu time    0.0000: real time    0.0000

  Number of pair interactions contributing to vdW energy:  286987
  Edisp (eV):  -19.39765
    FORVDW:  cpu time    0.0309: real time    0.0309

  FORCE on cell =-STRESS in cart. coord.  units (eV):
  Direction    XX          YY          ZZ          XY          YZ          ZX
  --------------------------------------------------------------------------------------
  Alpha Z   263.64370   263.64370   263.64370
  Ewald   67393.03003 67345.55493-76693.50093    -3.27598   -39.82982   -11.80955
  Hartree 69655.96067 69643.89556-69306.75409    -1.32131    -5.76199     0.45719
  E(xc)   -1368.90258 -1368.08344 -1389.49200     0.01321     1.28328     0.80382
  Local  ************************140906.61665     4.59570    43.67515    11.03504
  n-local  3590.74284  3591.51994  3789.11043     0.43058    -9.00967    -5.85285
  augment  -759.04131  -760.21805  -803.97504    -0.13644     1.37201     1.05755
  Kinetic  3334.17710  3321.16999  3294.96753    -1.56602    -7.08928    -1.59647
  Fock        0.00000     0.00000     0.00000     0.00000     0.00000     0.00000
  vdW       -12.89894   -13.05673   -10.52504    -0.00608     0.15581     0.44695
  -------------------------------------------------------------------------------------
  Total      56.24600    41.43515    50.09120    -1.26636   -15.20453    -5.45833
  in kB      33.10527    24.38790    29.48268    -0.74535    -8.94908    -3.21266
  external pressure =       28.99 kB  Pullay stress =        0.00 kB

  kinetic pressure (ideal gas correction) =      0.33 kB
  total pressure  =     29.32 kB
  Total+kin.    33.376      24.569      30.023      -0.756      -9.029      -3.278

 VOLUME and BASIS-vectors are now :
 -----------------------------------------------------------------------------
  energy-cutoff  :      550.00
  volume of cell :     2722.11
      direct lattice vectors                 reciprocal lattice vectors
    10.255927391  0.000000000  0.000000000     0.097504590  0.055220334 -0.001987982
    -5.103532622  9.011496787  0.000000000     0.000000000  0.110969357 -0.002029021
     0.295516929  0.538538495 29.453249170     0.000000000  0.000000000  0.033952112

  length of vectors
    10.255927391 10.356308202 29.459654456     0.112073112  0.110987905  0.033952112


 FORCES acting on ions
    electron-ion (+dipol)            ewald-force                    non-local-force                 convergence-correction
 -----------------------------------------------------------------------------------------------
   -.285E+01 0.127E+01 0.849E+03   0.285E+01 -.131E+01 -.854E+03   0.400E+00 0.108E+00 0.454E+01   -.938E-04 -.125E-03 -.431E-03
   -.540E+00 -.173E+01 0.848E+03   0.534E+00 0.173E+01 -.854E+03   0.982E-01 0.435E+00 0.413E+01   -.488E-03 0.109E-03 -.282E-03
   0.528E+00 -.119E+01 0.847E+03   -.521E+00 0.118E+01 -.852E+03   0.422E-01 0.281E+00 0.426E+01   0.377E-03 -.734E-04 0.176E-04
   0.156E+01 0.633E-01 0.849E+03   -.161E+01 -.576E-01 -.855E+03   0.201E-02 0.353E-01 0.472E+01   -.281E-03 -.733E-03 -.581E-03
   -.277E+01 0.898E+00 0.846E+03   0.277E+01 -.920E+00 -.851E+03   0.219E+00 0.425E-01 0.435E+01   -.135E-03 -.140E-03 -.114E-02
   -.865E+00 0.253E+00 0.847E+03   0.786E+00 -.310E+00 -.852E+03   0.166E+00 0.201E+00 0.428E+01   -.526E-03 0.348E-03 -.370E-03
   -.568E+00 0.475E+00 0.845E+03   0.512E+00 -.552E+00 -.851E+03   0.307E+00 0.231E+00 0.433E+01   0.407E-03 -.922E-04 -.601E-03
   0.257E+01 -.541E+00 0.848E+03   -.262E+01 0.541E+00 -.853E+03   -.128E+00 0.152E+00 0.464E+01   0.612E-03 0.415E-03 -.830E-03
   -.223E+00 0.141E+01 0.848E+03   0.190E+00 -.146E+01 -.854E+03   0.764E-01 0.955E-01 0.491E+01   0.134E-03 0.313E-03 -.776E-03
   -.794E+00 0.875E+00 -.915E+02   0.802E+00 -.976E+00 0.861E+02   0.188E+00 0.267E+00 0.508E+01   0.179E-03 -.553E-03 -.288E-03
   -.841E-01 -.297E+01 -.902E+02   0.944E-01 0.284E+01 0.848E+02   -.399E-01 0.677E+00 0.440E+01   -.120E-03 0.458E-03 -.391E-03
   -.169E+01 -.499E+00 -.940E+02   0.167E+01 0.462E+00 0.885E+02   0.111E+00 0.298E+00 0.487E+01   -.660E-04 0.128E-03 0.154E-03
   0.283E+01 0.253E+01 -.897E+02   -.290E+01 -.261E+01 0.843E+02   -.254E-01 0.449E-01 0.448E+01   -.320E-03 -.510E-03 -.512E-03
   0.269E+01 -.179E+00 -.910E+02   -.275E+01 0.112E+00 0.856E+02   0.726E-02 0.130E+00 0.477E+01   -.466E-03 -.175E-04 -.616E-03
   -.165E+00 0.305E+01 -.908E+02   0.135E+00 -.310E+01 0.853E+02   0.236E+00 0.597E-01 0.490E+01   -.469E-03 -.198E-03 -.415E-03
   -.398E+01 -.591E+00 -.896E+02   0.395E+01 0.500E+00 0.842E+02   0.480E+00 0.446E+00 0.468E+01   0.140E-03 0.464E-04 -.848E-03
   -.290E+01 0.530E+00 -.871E+02   0.298E+01 -.534E+00 0.817E+02   0.232E+00 -.124E+00 0.462E+01   0.600E-03 0.240E-03 -.634E-03
   -.340E+00 -.135E+01 -.910E+02   0.348E+00 0.134E+01 0.855E+02   0.109E+00 0.250E+00 0.476E+01   0.531E-03 0.407E-03 -.510E-03
   0.133E+01 0.393E+00 0.898E+02   -.134E+01 -.260E+00 -.844E+02   -.184E+00 -.297E+00 -.493E+01   -.372E-03 -.111E-03 0.528E-03
   0.941E+00 0.133E+01 0.898E+02   -.948E+00 -.120E+01 -.844E+02   -.133E+00 -.436E+00 -.472E+01   -.539E-03 -.100E-04 0.410E-03
   0.308E+00 0.257E+01 0.894E+02   -.283E+00 -.247E+01 -.840E+02   -.740E-01 -.489E+00 -.485E+01   0.374E-03 -.165E-03 0.808E-04
   -.117E+01 -.469E+00 0.906E+02   0.122E+01 0.641E+00 -.853E+02   -.104E-01 -.356E+00 -.502E+01   0.775E-05 -.670E-03 0.648E-03
   -.218E+01 0.131E+01 0.915E+02   0.221E+01 -.122E+01 -.861E+02   0.110E+00 -.382E+00 -.497E+01   -.163E-03 -.612E-04 0.122E-02
   -.269E+00 0.190E+01 0.898E+02   0.268E+00 -.177E+01 -.844E+02   -.159E+00 -.534E+00 -.475E+01   -.425E-03 0.380E-03 0.465E-03
   0.125E+01 -.768E+00 0.911E+02   -.122E+01 0.844E+00 -.856E+02   -.342E+00 -.967E-01 -.482E+01   0.370E-03 -.441E-04 0.683E-03
   0.142E+01 0.154E+01 0.919E+02   -.143E+01 -.148E+01 -.865E+02   -.226E+00 -.242E+00 -.510E+01   0.686E-03 0.240E-03 0.822E-03
   0.141E+01 0.101E+01 0.920E+02   -.141E+01 -.979E+00 -.866E+02   -.292E+00 -.824E-01 -.478E+01   0.436E-04 0.437E-03 0.847E-03
   0.261E+01 -.583E-01 -.846E+03   -.261E+01 0.159E+00 0.852E+03   -.344E+00 -.200E+00 -.459E+01   0.797E-04 -.350E-03 0.521E-03
   -.341E+00 -.178E+01 -.849E+03   0.392E+00 0.183E+01 0.854E+03   -.113E+00 -.124E+00 -.470E+01   -.625E-04 0.482E-03 0.611E-03
   -.347E+01 0.377E+01 -.847E+03   0.350E+01 -.369E+01 0.852E+03   0.138E+00 -.559E+00 -.499E+01   0.254E-04 -.114E-03 0.417E-04
   -.131E+01 0.293E+01 -.851E+03   0.139E+01 -.286E+01 0.856E+03   -.583E-01 -.420E+00 -.450E+01   -.720E-04 -.394E-03 0.736E-03
   0.270E+01 -.180E+01 -.848E+03   -.271E+01 0.190E+01 0.853E+03   -.218E+00 -.148E+00 -.460E+01   -.414E-03 0.105E-03 0.935E-03
   0.154E+01 0.364E+01 -.845E+03   -.153E+01 -.354E+01 0.851E+03   -.222E+00 -.424E+00 -.439E+01   -.456E-03 -.234E-03 0.674E-03
   0.113E+00 -.254E+00 -.847E+03   -.114E+00 0.334E+00 0.852E+03   -.232E+00 -.990E-01 -.453E+01   -.242E-04 0.635E-04 0.101E-02
   -.104E+01 0.211E+01 -.847E+03   0.114E+01 -.203E+01 0.853E+03   -.234E+00 -.596E+00 -.431E+01   0.500E-03 0.253E-03 0.873E-03
   0.165E+01 0.182E+01 -.847E+03   -.162E+01 -.176E+01 0.853E+03   -.255E+00 -.367E+00 -.455E+01   0.438E-03 0.167E-03 0.693E-03
   0.103E+01 -.106E+01 0.468E+03   -.103E+01 0.117E+01 -.468E+03   -.201E+00 0.752E-01 -.112E+00   0.335E-03 0.421E-04 0.193E-03
   0.220E+00 0.679E+00 0.467E+03   -.189E+00 -.751E+00 -.467E+03   -.131E+00 -.407E-01 0.318E+00   -.825E-04 0.523E-05 0.433E-03
   0.291E+01 -.109E+01 0.470E+03   -.297E+01 0.114E+01 -.470E+03   -.937E-01 0.560E-01 0.403E+00   0.401E-03 0.304E-03 0.282E-03
   0.785E+00 -.424E+01 0.470E+03   -.821E+00 0.447E+01 -.470E+03   -.571E-01 0.362E+00 0.176E+00   -.219E-03 -.331E-03 0.196E-03
   -.189E+01 -.120E+01 0.472E+03   0.192E+01 0.123E+01 -.472E+03   -.541E-01 0.554E-01 0.229E+00   -.240E-03 -.557E-03 0.126E-03
   -.996E+00 -.214E+01 0.469E+03   0.938E+00 0.227E+01 -.469E+03   0.451E-01 0.153E+00 0.289E+00   -.749E-03 0.297E-03 0.247E-03
   -.243E+01 0.113E+01 0.467E+03   0.258E+01 -.120E+01 -.467E+03   0.209E+00 -.186E+00 -.582E-01   -.855E-04 0.162E-03 0.356E-03
   0.262E+01 -.268E+01 0.466E+03   -.276E+01 0.277E+01 -.466E+03   0.202E+00 0.122E+00 0.228E+00   0.298E-03 -.227E-03 0.477E-03
   -.927E+00 0.205E+00 0.471E+03   0.101E+01 -.209E+00 -.471E+03   0.769E-01 -.570E-01 0.849E-01   0.333E-03 0.285E-03 0.219E-03
   0.350E+01 -.113E+00 -.472E+03   -.354E+01 0.140E+00 0.472E+03   -.890E-01 -.205E-01 -.298E+00   -.348E-03 -.443E-03 -.263E-03
   0.114E+01 -.258E+01 -.468E+03   -.116E+01 0.257E+01 0.468E+03   0.796E-01 0.246E+00 0.127E+00   -.413E-03 0.180E-03 -.825E-05
   0.364E+01 0.299E+01 -.470E+03   -.377E+01 -.291E+01 0.470E+03   -.296E+00 -.182E+00 0.124E+00   -.592E-03 -.498E-03 -.123E-03
   -.253E+01 -.252E+01 -.467E+03   0.260E+01 0.269E+01 0.468E+03   0.568E-02 0.327E+00 0.315E+00   0.148E-03 -.306E-04 0.297E-04
   0.269E+01 -.355E+01 -.468E+03   -.275E+01 0.370E+01 0.468E+03   -.165E+00 0.249E-01 0.170E+00   0.131E-03 0.367E-03 0.605E-04
   -.976E+00 0.108E+01 -.470E+03   0.991E+00 -.109E+01 0.470E+03   0.230E+00 -.297E+00 -.159E+00   0.236E-05 -.127E-03 -.102E-03
   -.982E+00 0.195E+01 -.469E+03   0.103E+01 -.212E+01 0.469E+03   -.760E-01 -.571E+00 0.111E+00   0.205E-03 -.450E-05 -.137E-03
   -.453E+01 -.462E+01 -.467E+03   0.468E+01 0.472E+01 0.467E+03   0.533E+00 0.307E+00 0.275E+00   0.337E-03 0.661E-03 -.613E-04
   -.107E+01 -.201E+01 -.467E+03   0.111E+01 0.209E+01 0.467E+03   0.387E-01 0.111E+00 -.655E-01   0.554E-03 -.119E-03 -.329E-03
 -----------------------------------------------------------------------------------------------
   0.104E+00 0.173E+01 0.230E+00   -.282E-13 0.298E-13 -.131E-11   -.110E+00 -.174E+01 -.238E+00   0.263E-04 -.366E-04 0.434E-02
 
 
 POSITION                                       TOTAL-FORCE (eV/Angst)
 -----------------------------------------------------------------------------------
      0.07323      2.17219      9.18881         0.376295      0.068122     -0.749240
     -1.59291      5.14868      9.21396         0.094352      0.413903     -1.214704
     -3.29364      8.16919      9.21472         0.048468      0.256956     -1.041012
      3.51884      2.17349      9.17277        -0.050926      0.030154     -0.541486
      1.81210      5.19824      9.21392         0.207437      0.018973     -1.021578
      0.12722      8.18563      9.21813         0.089524      0.136595     -1.060752
      6.90869      2.18512      9.22153         0.236145      0.151302     -1.017349
      5.25291      5.18002      9.18620        -0.165834      0.142145     -0.662392
      3.54190      8.21394      9.17276         0.043249      0.049781     -0.388903
      0.47003      1.80775     16.65851         0.202013      0.152229     -0.382982
     -1.24355      4.78242     16.67658        -0.025911      0.514619     -1.033357
     -2.93101      7.80206     16.67978         0.100678      0.238212     -0.644786
      3.89402      1.82058     16.67741        -0.083337     -0.041875     -0.918938
      2.19341      4.80625     16.67298        -0.037886      0.042838     -0.691268
      0.47190      7.81520     16.66408         0.208343      0.000568     -0.601346
      7.28227      1.79139     16.66682         0.440650      0.330485     -0.765083
      5.56242      4.82240     16.65634         0.302737     -0.139804     -0.815709
      3.89093      7.82317     16.67243         0.119924      0.219102     -0.720296
      0.13712      2.23381     12.79717        -0.189913     -0.149648      0.452463
     -1.57342      5.24400     12.77808        -0.141955     -0.282121      0.703625
     -3.27195      8.24153     12.79347        -0.051511     -0.374241      0.557451
      3.51494      2.22426     12.80264         0.022605     -0.181391      0.335728
      1.82188      5.24742     12.78709         0.119113     -0.273716      0.456121
      0.14884      8.25846     12.78517        -0.160627     -0.382547      0.685181
      6.97531      2.23226     12.77908        -0.303905     -0.009656      0.673946
      5.27047      5.23523     12.79509        -0.234528     -0.173482      0.320068
      3.58075      8.22866     12.77938        -0.285808     -0.045574      0.665092
      0.51327      1.85768     20.25627        -0.329856     -0.101495      0.691786
     -1.23558      4.86700     20.27111        -0.070139     -0.070625      0.534487
     -2.92853      7.89127     20.27834         0.160370     -0.455573      0.291695
      3.92386      1.87335     20.27006         0.030021     -0.340034      0.747763
      2.22000      4.85899     20.25568        -0.213425     -0.053243      0.704970
      0.51588      7.86302     20.23346        -0.204508     -0.319843      0.939257
      7.34925      1.86123     20.24322        -0.220649     -0.017660      0.771908
      5.60898      4.87574     20.23677        -0.137296     -0.500333      0.922355
      3.93051      7.88252     20.25330        -0.219441     -0.300865      0.751513
      0.12331      0.20444     10.99845        -0.226762      0.178288     -0.183587
     -1.58675      3.20743     10.97905        -0.123219     -0.114034      0.547290
     -3.28672      6.19936     10.96992        -0.171844      0.102615      0.585641
     -1.57490      9.19552     10.98394        -0.096178      0.611069      0.198739
      1.81904      3.20349     10.97342        -0.020755      0.092225      0.209112
      0.11760      6.20891     10.98010         0.005986      0.284723      0.392220
      6.93966      0.22239     10.99758         0.371800     -0.267814     -0.052996
      5.21408      3.20396     10.98433         0.093852      0.220760      0.420888
      3.54107      6.22753     10.98098         0.154829     -0.063599      0.076152
      2.21167      2.83717     18.48500        -0.157394      0.011967     -0.459723
      0.47336      5.82121     18.45366         0.078352      0.286089      0.193034
     -1.19562      8.86199     18.46167        -0.470110     -0.146926      0.216648
      5.60301      2.82473     18.44043         0.090477      0.515611      0.507206
      3.90488      5.84981     18.44972        -0.253012      0.174995      0.282810
      2.19663      8.86270     18.46803         0.270943     -0.323379     -0.210075
     -1.22065      2.87255     18.45658        -0.038805     -0.790151      0.225084
      7.28102      5.81827     18.44722         0.729805      0.456271      0.312253
      5.62060      8.84727     18.46608         0.081783      0.210320     -0.198652
 -----------------------------------------------------------------------------------
    total drift:                               -0.005782     -0.008711     -0.003728


--------------------------------------------------------------------------------------------------------



  FREE ENERGIE OF THE ION-ELECTRON SYSTEM (eV)
  ---------------------------------------------------
  free  energy   TOTEN  =      -341.06140871 eV

  energy  without entropy=     -341.06140871  energy(sigma->0) =     -341.06140871
 
 d Force = 0.3638725E-01[ 0.331E-01, 0.397E-01]  d Energy = 0.3628715E-01 0.100E-03
 d Force = 0.3347087E+02[ 0.335E+02, 0.335E+02]  d Ewald  = 0.3347087E+02-0.273E-05


--------------------------------------------------------------------------------------------------------


    POTLOK:  cpu time    0.2535: real time    0.2538


--------------------------------------------------------------------------------------------------------


           RANDOM_SEED =         231006590              324                0
   IONSTEP:  cpu time    0.0001: real time    0.0001

  ENERGY OF THE ELECTRON-ION-THERMOSTAT SYSTEM (eV)
  ---------------------------------------------------
% ion-electron   TOTEN  =      -341.061409  see above
  kinetic energy EKIN   =         0.850201
  kin. lattice  EKIN_LAT=         0.000000  (temperature  124.10 K)
  nose potential ES     =         0.050839
  nose kinetic   EPS    =         0.009304
  ---------------------------------------------------
  total energy   ETOTAL =      -340.151065 eV

  maximum distance moved by ions :      0.56E-03


 mean value of Nose-termostat <S>:     1.053 mean value of <T> :   124.102
 mean temperature <T/S>/<1/S>  :   124.102

    WAVPRE:  cpu time    0.0939: real time    0.0969
    FEWALD:  cpu time    0.0010: real time    0.0010
    ORTHCH:  cpu time    7.4749: real time    7.4958
    POTLOK:  cpu time    0.2613: real time    0.2615
    EDDIAG:  cpu time    2.4440: real time    2.4509
     LOOP+:  cpu time  468.3892: real time  469.6780
    4ORBIT:  cpu time    0.0000: real time    0.0000

 total amount of memory used by VASP MPI-rank0   342267. kBytes
=======================================================================

   base      :      30000. kBytes
   nonl-proj :     183859. kBytes
   fftplans  :      16533. kBytes
   grid      :      78796. kBytes
   one-center:        839. kBytes
   wavefun   :      32240. kBytes
 
  
  
 General timing and accounting informations for this job:
 ========================================================
  
                  Total CPU time used (sec):     5342.542
                            User time (sec):     5330.455
                          System time (sec):       12.088
                         Elapsed time (sec):     5358.086
  
                   Maximum memory used (kb):      773284.
                   Average memory used (kb):           0.
  
                          Minor page faults:       445486
                          Major page faults:            0
                 Voluntary context switches:          886
