-3.347536741999999776e+02
-3.347504165400000034e+02
-3.347403404400000113e+02
-3.347239456099999870e+02
-3.347020309499999939e+02
-3.346752503899999738e+02
-3.346441635400000223e+02
-3.346096150899999770e+02
-3.345722594700000059e+02
-3.345332498899999791e+02
-3.334303317299999776e+02
-3.334365991799999733e+02
-3.334434841400000096e+02
-3.334509159699999827e+02
-3.334587424499999884e+02
-3.334671645600000147e+02
-3.334765322599999990e+02
-3.334866923899999733e+02
-3.334978698499999723e+02
-3.335101961699999720e+02
-3.343223113399999988e+02
-3.343170388199999934e+02
-3.343073526300000253e+02
-3.342933613000000150e+02
-3.342756000599999879e+02
-3.342543945699999881e+02
-3.342303978200000074e+02
-3.342042506500000059e+02
-3.341764063599999872e+02
-3.341476234900000009e+02
-3.338451148400000079e+02
-3.338486613100000113e+02
-3.338494389800000022e+02
-3.338477701599999818e+02
-3.338435724400000026e+02
-3.338371880000000260e+02
-3.338287433699999838e+02
-3.338186037799999895e+02
-3.338072417800000267e+02
-3.337951657500000238e+02
-3.335178169000000139e+02
-3.335269668799999749e+02
-3.335347944299999767e+02
-3.335414141300000210e+02
-3.335464834100000076e+02
-3.335501888499999836e+02
-3.335526771500000223e+02
-3.335541080599999759e+02
-3.335548509199999785e+02
-3.335546971100000064e+02
-3.343943889999999897e+02
-3.343918526200000088e+02
-3.343849559000000227e+02
-3.343735483500000214e+02
-3.343580115400000068e+02
-3.343385762699999759e+02
-3.343160240899999849e+02
-3.342909251300000051e+02
-3.342638745099999937e+02
-3.342356069499999762e+02
-3.339643813299999806e+02
-3.339644941999999901e+02
-3.339615425100000152e+02
-3.339561219199999869e+02
-3.339483885000000214e+02
-3.339386447100000055e+02
-3.339272961400000099e+02
-3.339149279800000159e+02
-3.339020791699999791e+02
-3.338892027300000223e+02
-3.338907470400000079e+02
-3.338896738700000242e+02
-3.338862438599999791e+02
-3.338804401699999858e+02
-3.338724105800000075e+02
-3.338625460800000155e+02
-3.338512251000000219e+02
-3.338384623200000192e+02
-3.338245052400000077e+02
-3.338098151099999882e+02
-3.342763256499999898e+02
-3.342748719300000175e+02
-3.342691512999999759e+02
-3.342593363899999872e+02
-3.342456309600000282e+02
-3.342281219700000179e+02
-3.342074344600000018e+02
-3.341839560799999731e+02
-3.341582582500000171e+02
-3.341306564700000195e+02
-3.332373241500000063e+02
-3.332227909299999737e+02
-3.332097436500000072e+02
-3.331985937200000194e+02
-3.331898517700000184e+02
-3.331837226600000008e+02
-3.331803118899999845e+02
-3.331797247299999754e+02
-3.331821140700000115e+02
-3.331876922999999806e+02
-3.328966515199999776e+02
-3.329101535400000103e+02
-3.329266860999999835e+02
-3.329459825800000203e+02
-3.329678684300000100e+02
-3.329922286699999745e+02
-3.330184482199999820e+02
-3.330464484400000060e+02
-3.330760037699999998e+02
-3.331069164300000125e+02
-3.333979617900000108e+02
-3.334103734000000259e+02
-3.334253302500000018e+02
-3.334426808200000210e+02
-3.334621407800000270e+02
-3.334829889399999843e+02
-3.335058521799999767e+02
-3.335309263500000156e+02
-3.335576845200000093e+02
-3.335862467900000183e+02
-3.342014216000000033e+02
-3.342067885100000240e+02
-3.342091475799999785e+02
-3.342081998200000044e+02
-3.342039047100000175e+02
-3.341964198900000156e+02
-3.341860663900000077e+02
-3.341731131999999889e+02
-3.341581429799999796e+02
-3.341415874900000063e+02
-3.344359244199999921e+02
-3.344331080900000188e+02
-3.344264146200000027e+02
-3.344159978399999886e+02
-3.344025539200000026e+02
-3.343864654399999949e+02
-3.343682026700000165e+02
-3.343485250800000017e+02
-3.343276841100000070e+02
-3.343066348500000231e+02
-3.339166369100000225e+02
-3.339156947299999842e+02
-3.339124904500000071e+02
-3.339074763099999927e+02
-3.339004823800000281e+02
-3.338916350900000225e+02
-3.338812182600000256e+02
-3.338693943100000183e+02
-3.338561092200000076e+02
-3.338418473899999981e+02
-3.341998529100000042e+02
-3.342003215899999873e+02
-3.341973422099999880e+02
-3.341910351799999717e+02
-3.341819974200000161e+02
-3.341706529300000170e+02
-3.341577377200000001e+02
-3.341435303800000156e+02
-3.341284487400000103e+02
-3.341130451299999891e+02
-3.326730941499999972e+02
-3.326742901399999823e+02
-3.326795464200000083e+02
-3.326886667399999737e+02
-3.327018400100000122e+02
-3.327189797500000168e+02
-3.327402407100000232e+02
-3.327644240899999772e+02
-3.327927525100000139e+02
-3.328247703700000102e+02
-3.337820703300000105e+02
-3.337853046500000005e+02
-3.337884990700000003e+02
-3.337915814599999749e+02
-3.337947953400000074e+02
-3.337981773299999873e+02
-3.338016980200000035e+02
-3.338056114199999911e+02
-3.338098311200000126e+02
-3.338145566800000097e+02
-3.336834524700000202e+02
-3.336732914899999969e+02
-3.336639139499999942e+02
-3.336558313799999951e+02
-3.336493493699999817e+02
-3.336451090599999816e+02
-3.336435638599999720e+02
-3.336446461300000124e+02
-3.336491991500000154e+02
-3.336572863399999846e+02
-3.326245997099999840e+02
-3.326153150999999752e+02
-3.326092589599999769e+02
-3.326067659700000263e+02
-3.326078813799999807e+02
-3.326131160799999975e+02
-3.326228977999999756e+02
-3.326375013699999954e+02
-3.326569460299999719e+02
-3.326813906200000019e+02
-3.323764590100000191e+02
-3.323794290899999737e+02
-3.323898602500000266e+02
-3.324077438499999744e+02
-3.324328128299999889e+02
-3.324647158800000284e+02
-3.325038404599999922e+02
-3.325493765300000177e+02
-3.326009072900000092e+02
-3.326582870600000206e+02
-3.331285298199999829e+02
-3.331369781299999886e+02
-3.331482818100000145e+02
-3.331626255200000060e+02
-3.331799979799999960e+02
-3.332003845599999750e+02
-3.332236109500000225e+02
-3.332498345500000028e+02
-3.332792089999999803e+02
-3.333116771499999800e+02
-3.340426302700000178e+02
-3.340405991000000085e+02
-3.340348280300000283e+02
-3.340254984100000115e+02
-3.340131435000000124e+02
-3.339982322399999930e+02
-3.339813755100000208e+02
-3.339627637199999981e+02
-3.339434585299999867e+02
-3.339237948100000040e+02
-3.339619918199999802e+02
-3.339616555999999719e+02
-3.339590308499999765e+02
-3.339542185299999915e+02
-3.339473378399999888e+02
-3.339386954299999957e+02
-3.339283778600000119e+02
-3.339169115000000261e+02
-3.339045761200000015e+02
-3.338917748200000233e+02
-3.343168896700000232e+02
-3.343151463199999966e+02
-3.343082840800000213e+02
-3.342966886400000135e+02
-3.342807217100000230e+02
-3.342610457800000177e+02
-3.342383103700000220e+02
-3.342131947099999820e+02
-3.341864307600000075e+02
-3.341590829599999779e+02
-3.342056879200000026e+02
-3.342075949300000275e+02
-3.342060246500000176e+02
-3.342013005900000167e+02
-3.341934585000000197e+02
-3.341829772699999808e+02
-3.341700384499999927e+02
-3.341553136900000140e+02
-3.341389564199999995e+02
-3.341215787599999771e+02
-3.340695255499999803e+02
-3.340690744300000006e+02
-3.340653473699999836e+02
-3.340584291499999949e+02
-3.340485069499999895e+02
-3.340359022200000254e+02
-3.340208907100000033e+02
-3.340037699700000076e+02
-3.339855790500000126e+02
-3.339666712200000234e+02
-3.344167389500000240e+02
-3.344115834099999915e+02
-3.344024835499999995e+02
-3.343897528200000124e+02
-3.343736741499999994e+02
-3.343543600799999922e+02
-3.343321708099999796e+02
-3.343073639899999989e+02
-3.342805308200000241e+02
-3.342524886799999990e+02
-3.341933849800000189e+02
-3.341891475300000138e+02
-3.341818601300000182e+02
-3.341717461700000058e+02
-3.341592414200000007e+02
-3.341446835899999996e+02
-3.341285787300000152e+02
-3.341114350899999863e+02
-3.340938591699999733e+02
-3.340759409099999857e+02
-3.339935817799999995e+02
-3.339908511099999942e+02
-3.339889488300000266e+02
-3.339877504599999725e+02
-3.339874802200000090e+02
-3.339882082899999887e+02
-3.339900101999999720e+02
-3.339928804300000138e+02
-3.339971738099999925e+02
-3.340028895899999952e+02
-3.331414899100000184e+02
-3.331520609500000205e+02
-3.331670992400000273e+02
-3.331865105399999720e+02
-3.332099882800000046e+02
-3.332371886500000073e+02
-3.332680527300000222e+02
-3.333015060399999925e+02
-3.333378296399999954e+02
-3.333765746899999840e+02
-3.340987606699999901e+02
-3.340927375399999733e+02
-3.340849450000000047e+02
-3.340756625899999790e+02
-3.340651478199999929e+02
-3.340535933400000204e+02
-3.340411782300000141e+02
-3.340285309700000198e+02
-3.340158730300000229e+02
-3.340036426600000254e+02
-3.342170031200000153e+02
-3.342240614099999902e+02
-3.342269811099999970e+02
-3.342259158200000115e+02
-3.342213431100000207e+02
-3.342132758899999772e+02
-3.342022702400000185e+02
-3.341889355499999965e+02
-3.341739709600000197e+02
-3.341580574600000091e+02
-3.337792374300000233e+02
-3.337765601599999741e+02
-3.337730267300000264e+02
-3.337687622000000260e+02
-3.337642153400000211e+02
-3.337594300100000169e+02
-3.337547991199999728e+02
-3.337507672599999751e+02
-3.337475972400000046e+02
-3.337455818399999998e+02
-3.339452369699999963e+02
-3.339447407700000099e+02
-3.339417668300000059e+02
-3.339363701300000002e+02
-3.339289244700000268e+02
-3.339198332799999775e+02
-3.339092824499999779e+02
-3.338981066399999804e+02
-3.338862108499999977e+02
-3.338739688399999750e+02
-3.321206459399999744e+02
-3.321381258399999865e+02
-3.321563755199999832e+02
-3.321756114799999864e+02
-3.321955911100000094e+02
-3.322161012099999766e+02
-3.322377426699999887e+02
-3.322610010500000044e+02
-3.322861565200000200e+02
-3.323132386400000087e+02
-3.336797284300000115e+02
-3.336817705000000274e+02
-3.336822684300000219e+02
-3.336812549100000069e+02
-3.336789340799999763e+02
-3.336752758900000231e+02
-3.336705256899999767e+02
-3.336652959499999724e+02
-3.336597752299999797e+02
-3.336545430400000214e+02
-3.339626653299999930e+02
-3.339627575000000093e+02
-3.339579739399999880e+02
-3.339485571199999754e+02
-3.339350814599999921e+02
-3.339181788600000118e+02
-3.338985591100000079e+02
-3.338769062200000235e+02
-3.338541497300000174e+02
-3.338311416700000223e+02
-3.320534235399999829e+02
-3.320622377899999833e+02
-3.320752171500000145e+02
-3.320924189699999829e+02
-3.321138438500000234e+02
-3.321395243399999799e+02
-3.321696583500000202e+02
-3.322042039500000215e+02
-3.322429140799999914e+02
-3.322853233100000239e+02
-3.342483236200000078e+02
-3.342467870899999980e+02
-3.342418781299999750e+02
-3.342337504600000102e+02
-3.342228059500000086e+02
-3.342091828200000236e+02
-3.341936933200000226e+02
-3.341768837899999767e+02
-3.341595020099999829e+02
-3.341420995899999866e+02
-3.313470297100000153e+02
-3.313814368500000000e+02
-3.314287832100000060e+02
-3.314881686800000011e+02
-3.315589036499999906e+02
-3.316395305899999926e+02
-3.317284347899999943e+02
-3.318240920999999730e+02
-3.319247257700000091e+02
-3.320283928000000060e+02
-3.345968435600000248e+02
-3.345980099199999813e+02
-3.345951685599999905e+02
-3.345882359999999949e+02
-3.345775858900000230e+02
-3.345634749299999839e+02
-3.345462625399999865e+02
-3.345262074400000074e+02
-3.345038880399999925e+02
-3.344800916799999868e+02
-3.341211480499999880e+02
-3.341282158600000116e+02
-3.341340254099999925e+02
-3.341385746099999778e+02
-3.341421394999999848e+02
-3.341444895600000109e+02
-3.341461198900000227e+02
-3.341472524000000135e+02
-3.341480392500000107e+02
-3.341487490900000239e+02
-3.344049758799999950e+02
-3.344051579999999717e+02
-3.344022538400000144e+02
-3.343962440899999820e+02
-3.343874281099999735e+02
-3.343758661699999948e+02
-3.343616958000000068e+02
-3.343454368899999736e+02
-3.343272263000000066e+02
-3.343076136799999745e+02
-3.340100705099999914e+02
-3.339974765499999876e+02
-3.339824176899999770e+02
-3.339650749099999985e+02
-3.339460497900000178e+02
-3.339256045500000027e+02
-3.339043019399999821e+02
-3.338828163000000018e+02
-3.338615325000000098e+02
-3.338408567600000083e+02
-3.340804559399999789e+02
-3.340719769799999881e+02
-3.340605697699999723e+02
-3.340460681299999806e+02
-3.340290883700000109e+02
-3.340102481700000112e+02
-3.339900143200000002e+02
-3.339688653399999794e+02
-3.339473940699999730e+02
-3.339261894200000143e+02
-3.341091586200000165e+02
-3.341119110500000033e+02
-3.341118147500000077e+02
-3.341087514399999918e+02
-3.341028424699999846e+02
-3.340945245799999839e+02
-3.340839940000000183e+02
-3.340713695399999779e+02
-3.340571241600000008e+02
-3.340415132200000130e+02
-3.340017480600000113e+02
-3.340015351399999872e+02
-3.339982864400000153e+02
-3.339921397200000115e+02
-3.339834165799999823e+02
-3.339721354999999789e+02
-3.339587281899999880e+02
-3.339439067399999885e+02
-3.339282062600000245e+02
-3.339121325799999909e+02
-3.335737942900000235e+02
-3.335711667300000158e+02
-3.335625638999999865e+02
-3.335485263200000077e+02
-3.335293004399999859e+02
-3.335056772099999876e+02
-3.334783712999999921e+02
-3.334481861300000105e+02
-3.334157031999999958e+02
-3.333816190399999755e+02
-3.331443846600000143e+02
-3.331423785299999736e+02
-3.331411089100000140e+02
-3.331405946300000096e+02
-3.331409320299999877e+02
-3.331428270499999940e+02
-3.331463308099999949e+02
-3.331522178499999995e+02
-3.331611797599999818e+02
-3.331733770100000243e+02
-3.329067422800000031e+02
-3.329261005000000182e+02
-3.329504350400000021e+02
-3.329796180100000242e+02
-3.330128615400000172e+02
-3.330504258299999947e+02
-3.330915579599999887e+02
-3.331361034000000245e+02
-3.331835729599999922e+02
-3.332339822999999797e+02
-3.329039722300000221e+02
-3.329118460099999766e+02
-3.329236974199999963e+02
-3.329396211600000015e+02
-3.329593893900000126e+02
-3.329829148000000032e+02
-3.330103946099999916e+02
-3.330414203500000099e+02
-3.330759801899999957e+02
-3.331140357200000039e+02
-3.339418454199999928e+02
-3.339507814799999892e+02
-3.339558321999999748e+02
-3.339567149999999742e+02
-3.339535515800000098e+02
-3.339468651600000157e+02
-3.339365464599999882e+02
-3.339235632300000134e+02
-3.339083858800000257e+02
-3.338916955899999834e+02
-3.335446418299999891e+02
-3.335566435000000070e+02
-3.335702814200000148e+02
-3.335852822499999775e+02
-3.336012424699999883e+02
-3.336181042399999797e+02
-3.336354747999999972e+02
-3.336532700600000112e+02
-3.336711669300000267e+02
-3.336889706100000126e+02
-3.338486044800000059e+02
-3.338537205499999914e+02
-3.338569477099999858e+02
-3.338582672000000002e+02
-3.338579549300000053e+02
-3.338559411900000100e+02
-3.338530657399999768e+02
-3.338494651500000145e+02
-3.338457146700000067e+02
-3.338420514700000012e+02
-3.326509133299999803e+02
-3.326627156299999797e+02
-3.326743038000000183e+02
-3.326854563800000051e+02
-3.326960811700000136e+02
-3.327063037500000178e+02
-3.327163382400000273e+02
-3.327263850800000000e+02
-3.327368652200000270e+02
-3.327481126100000210e+02
-3.330244477200000119e+02
-3.330294980099999975e+02
-3.330365791899999977e+02
-3.330454503999999929e+02
-3.330561560200000031e+02
-3.330687556400000062e+02
-3.330834540500000003e+02
-3.331001645100000133e+02
-3.331187613800000236e+02
-3.331393028699999945e+02
-3.336963570899999922e+02
-3.336932810299999801e+02
-3.336883233799999857e+02
-3.336816784299999767e+02
-3.336737929999999892e+02
-3.336650394700000106e+02
-3.336558479700000248e+02
-3.336467836900000066e+02
-3.336380917399999930e+02
-3.336305552200000193e+02
-3.342357548200000110e+02
-3.342341263999999796e+02
-3.342273047799999972e+02
-3.342157205799999815e+02
-3.341995340400000032e+02
-3.341791652900000145e+02
-3.341552541600000268e+02
-3.341281201799999963e+02
-3.340985917699999845e+02
-3.340674936199999934e+02
-3.343600338100000045e+02
-3.343625593599999775e+02
-3.343608644099999765e+02
-3.343550735800000098e+02
-3.343456040500000199e+02
-3.343326890999999819e+02
-3.343170385399999986e+02
-3.342989570699999717e+02
-3.342787906300000031e+02
-3.342572179399999754e+02
-3.324759389899999746e+02
-3.324734070200000247e+02
-3.324691694499999812e+02
-3.324635173400000099e+02
-3.324568618000000129e+02
-3.324498441299999740e+02
-3.324435700000000224e+02
-3.324388089600000171e+02
-3.324362257299999897e+02
-3.324365497699999992e+02
-3.341710980299999960e+02
-3.341662195200000269e+02
-3.341588663900000142e+02
-3.341491214299999797e+02
-3.341372037900000009e+02
-3.341231068999999820e+02
-3.341073213799999735e+02
-3.340900169700000220e+02
-3.340717802400000096e+02
-3.340530655499999853e+02
-3.341054538700000194e+02
-3.340978383300000019e+02
-3.340870270600000254e+02
-3.340733297699999866e+02
-3.340569434500000057e+02
-3.340381882500000188e+02
-3.340174840099999756e+02
-3.339953862500000241e+02
-3.339723280399999794e+02
-3.339486896000000229e+02
-3.342486029400000120e+02
-3.342431371100000206e+02
-3.342334616900000128e+02
-3.342198799399999984e+02
-3.342028704800000014e+02
-3.341827119999999809e+02
-3.341601718499999834e+02
-3.341359931900000220e+02
-3.341108441599999992e+02
-3.340855797199999984e+02
-3.344618500799999765e+02
-3.344549181400000180e+02
-3.344432415300000230e+02
-3.344270098800000142e+02
-3.344068482900000276e+02
-3.343831104299999879e+02
-3.343564752099999851e+02
-3.343272304999999847e+02
-3.342963185899999985e+02
-3.342642636400000242e+02
-3.344137290900000039e+02
-3.344132761100000266e+02
-3.344091093900000260e+02
-3.344012854000000061e+02
-3.343900395800000069e+02
-3.343757463800000096e+02
-3.343587957500000130e+02
-3.343398134600000162e+02
-3.343194344999999998e+02
-3.342987165100000198e+02
-3.346341364099999964e+02
-3.346347733000000062e+02
-3.346296376899999814e+02
-3.346190475299999889e+02
-3.346033290099999817e+02
-3.345829627100000039e+02
-3.345583379299999933e+02
-3.345297895499999754e+02
-3.344983385900000030e+02
-3.344646531899999786e+02
-3.339644284999999968e+02
-3.339679256900000155e+02
-3.339690334300000245e+02
-3.339676522799999816e+02
-3.339639832600000204e+02
-3.339580748500000027e+02
-3.339501471699999797e+02
-3.339405384400000116e+02
-3.339295097099999907e+02
-3.339174944100000175e+02
-3.342329972399999747e+02
-3.342277329500000178e+02
-3.342194916299999932e+02
-3.342079504299999826e+02
-3.341936595199999829e+02
-3.341768469799999934e+02
-3.341579107599999929e+02
-3.341372669799999926e+02
-3.341153709700000149e+02
-3.340928619000000026e+02
-3.333803453099999956e+02
-3.333802548799999954e+02
-3.333823303300000020e+02
-3.333864950000000249e+02
-3.333928425799999786e+02
-3.334016649499999971e+02
-3.334133456800000204e+02
-3.334279240500000014e+02
-3.334457313300000010e+02
-3.334668098999999870e+02
-3.344658682799999951e+02
-3.344655875999999921e+02
-3.344619176699999912e+02
-3.344547877599999879e+02
-3.344445872399999757e+02
-3.344315718400000037e+02
-3.344161366600000065e+02
-3.343987326299999836e+02
-3.343798180300000240e+02
-3.343600839499999893e+02
-3.334882184699999925e+02
-3.334861986899999806e+02
-3.334834929699999861e+02
-3.334805316299999731e+02
-3.334775837600000159e+02
-3.334752975600000013e+02
-3.334741146399999820e+02
-3.334746534700000211e+02
-3.334770094099999937e+02
-3.334813442500000065e+02
-3.343245844799999986e+02
-3.343199802600000226e+02
-3.343120585199999937e+02
-3.343010541200000034e+02
-3.342868994699999803e+02
-3.342701010999999767e+02
-3.342508993499999974e+02
-3.342297153700000081e+02
-3.342069876400000226e+02
-3.341827893999999901e+02
-3.338860579899999834e+02
-3.338837470899999857e+02
-3.338794968799999765e+02
-3.338734164599999872e+02
-3.338658398499999862e+02
-3.338571883100000264e+02
-3.338479248099999950e+02
-3.338387019099999975e+02
-3.338299808200000030e+02
-3.338222095699999841e+02
-3.339400402599999893e+02
-3.339421301099999937e+02
-3.339403392500000223e+02
-3.339348549800000114e+02
-3.339260214799999744e+02
-3.339141815599999745e+02
-3.338995492999999897e+02
-3.338829118699999867e+02
-3.338647851599999967e+02
-3.338456139200000052e+02
-3.341093482800000061e+02
-3.341048919300000080e+02
-3.340979110499999933e+02
-3.340888378600000124e+02
-3.340778306700000257e+02
-3.340651518899999814e+02
-3.340507216199999903e+02
-3.340350804700000253e+02
-3.340186667500000226e+02
-3.340018797800000243e+02
-3.336636586999999849e+02
-3.336563728099999935e+02
-3.336489807300000052e+02
-3.336419876300000169e+02
-3.336359579900000085e+02
-3.336311787500000037e+02
-3.336282772199999727e+02
-3.336278202099999817e+02
-3.336303014100000155e+02
-3.336362416900000198e+02
-3.341315609100000188e+02
-3.341281539400000042e+02
-3.341202258199999733e+02
-3.341080762099999788e+02
-3.340918217400000003e+02
-3.340719965900000261e+02
-3.340487597700000038e+02
-3.340229979900000217e+02
-3.339952806399999758e+02
-3.339662756500000000e+02
-3.342022979399999940e+02
-3.342001174299999775e+02
-3.341965947699999901e+02
-3.341921616700000186e+02
-3.341868303499999797e+02
-3.341806505800000195e+02
-3.341738856700000042e+02
-3.341666722499999764e+02
-3.341594777999999906e+02
-3.341524208299999827e+02
-3.343218999900000199e+02
-3.343200171400000045e+02
-3.343155868900000200e+02
-3.343087574499999732e+02
-3.342995647700000177e+02
-3.342886372699999811e+02
-3.342764177500000073e+02
-3.342629378299999985e+02
-3.342486089700000207e+02
-3.342336230999999884e+02
-3.337712528800000200e+02
-3.337666588899999738e+02
-3.337582970700000260e+02
-3.337465807899999959e+02
-3.337319466800000214e+02
-3.337150275700000179e+02
-3.336966748699999812e+02
-3.336774202600000194e+02
-3.336579314900000099e+02
-3.336390341100000114e+02
-3.337519275600000128e+02
-3.337537692799999718e+02
-3.337527817800000207e+02
-3.337491577100000200e+02
-3.337428597900000113e+02
-3.337342461900000217e+02
-3.337235750699999812e+02
-3.337111129099999971e+02
-3.336973974100000078e+02
-3.336825876999999991e+02
-3.327333797200000163e+02
-3.327305729199999860e+02
-3.327283714199999736e+02
-3.327265941699999985e+02
-3.327253706600000100e+02
-3.327253308200000106e+02
-3.327271060400000238e+02
-3.327311330800000064e+02
-3.327374967100000163e+02
-3.327470552400000088e+02
-3.335932786100000271e+02
-3.336118292200000042e+02
-3.336290497200000118e+02
-3.336444131499999912e+02
-3.336583518200000071e+02
-3.336708567700000003e+02
-3.336819438399999740e+02
-3.336915040200000249e+02
-3.336997101000000043e+02
-3.337070602800000074e+02
-3.337269862599999897e+02
-3.337329948400000035e+02
-3.337359820199999945e+02
-3.337361911799999916e+02
-3.337335593199999835e+02
-3.337283815100000197e+02
-3.337208166400000096e+02
-3.337111435200000074e+02
-3.336998723899999959e+02
-3.336874282399999743e+02
-3.337950760200000104e+02
-3.337942420800000036e+02
-3.337903028900000209e+02
-3.337834314699999823e+02
-3.337737052200000107e+02
-3.337615687300000218e+02
-3.337474590699999908e+02
-3.337317794200000094e+02
-3.337151054600000180e+02
-3.336975020799999925e+02
-3.335981314200000156e+02
-3.335936952399999882e+02
-3.335892080699999838e+02
-3.335848669700000073e+02
-3.335811764900000185e+02
-3.335782149400000094e+02
-3.335766004100000259e+02
-3.335769549099999836e+02
-3.335795436600000130e+02
-3.335846977799999991e+02
-3.337202262499999961e+02
-3.337244730900000036e+02
-3.337266361800000141e+02
-3.337266410899999869e+02
-3.337247676100000149e+02
-3.337213242400000013e+02
-3.337163276800000062e+02
-3.337106405100000188e+02
-3.337044680100000278e+02
-3.336981739500000117e+02
-3.341562920499999905e+02
-3.341512280499999861e+02
-3.341406044199999883e+02
-3.341248709800000256e+02
-3.341047974699999941e+02
-3.340808477400000243e+02
-3.340533702500000004e+02
-3.340229495799999881e+02
-3.339904786899999749e+02
-3.339568274999999744e+02
-3.328050200900000277e+02
-3.328096069000000057e+02
-3.328161763900000096e+02
-3.328245594699999970e+02
-3.328348062200000186e+02
-3.328469531900000220e+02
-3.328614427900000123e+02
-3.328783856800000081e+02
-3.328978178400000161e+02
-3.329198862999999733e+02
-3.338927458699999988e+02
-3.338892667800000140e+02
-3.338840678500000081e+02
-3.338772589399999902e+02
-3.338691439799999898e+02
-3.338600672100000111e+02
-3.338503227900000070e+02
-3.338402513899999917e+02
-3.338301129899999751e+02
-3.338202880499999878e+02
-3.339312237799999821e+02
-3.339322217999999793e+02
-3.339317637899999909e+02
-3.339298202300000185e+02
-3.339263244800000052e+02
-3.339214797199999794e+02
-3.339154178399999751e+02
-3.339083140700000172e+02
-3.339003987300000063e+02
-3.338918645399999718e+02
-3.341851763500000061e+02
-3.341825983499999779e+02
-3.341762275199999976e+02
-3.341659955399999831e+02
-3.341521155300000032e+02
-3.341350191700000209e+02
-3.341152594900000281e+02
-3.340932011300000113e+02
-3.340692669800000090e+02
-3.340439038600000003e+02
-3.328709478000000104e+02
-3.328695554999999899e+02
-3.328716210200000205e+02
-3.328774530000000027e+02
-3.328871306300000015e+02
-3.329007483099999831e+02
-3.329184887499999945e+02
-3.329409482199999957e+02
-3.329680140699999811e+02
-3.329998338099999842e+02
-3.337217489000000228e+02
-3.337140983200000051e+02
-3.337052753799999891e+02
-3.336952325999999971e+02
-3.336845359800000210e+02
-3.336736527300000148e+02
-3.336631407200000012e+02
-3.336534905199999912e+02
-3.336455773900000281e+02
-3.336398676700000010e+02
-3.330621627300000114e+02
-3.330702238299999749e+02
-3.330799872599999958e+02
-3.330914468199999874e+02
-3.331047848000000045e+02
-3.331197587699999758e+02
-3.331364554099999964e+02
-3.331551126100000033e+02
-3.331756957800000123e+02
-3.331981558900000095e+02
-3.335550870499999974e+02
-3.335651493099999811e+02
-3.335776656499999717e+02
-3.335920006200000216e+02
-3.336083422099999893e+02
-3.336264007799999831e+02
-3.336459289100000092e+02
-3.336667910099999972e+02
-3.336886794499999951e+02
-3.337115807700000119e+02
-3.343756951899999876e+02
-3.343779664599999819e+02
-3.343761943999999744e+02
-3.343702796000000035e+02
-3.343604091000000267e+02
-3.343468520299999795e+02
-3.343301421699999878e+02
-3.343107071700000006e+02
-3.342892586400000141e+02
-3.342664706599999818e+02
-3.340536850799999797e+02
-3.340586225900000272e+02
-3.340634109800000147e+02
-3.340682611600000200e+02
-3.340731789999999819e+02
-3.340783680200000276e+02
-3.340840340899999887e+02
-3.340898999500000173e+02
-3.340957530100000099e+02
-3.341020938699999761e+02
-3.342308121799999867e+02
-3.342235106699999960e+02
-3.342099187100000108e+02
-3.341902781100000084e+02
-3.341649625100000094e+02
-3.341347043900000244e+02
-3.341004223599999818e+02
-3.340631327599999736e+02
-3.340238693900000158e+02
-3.339839543599999843e+02
-3.338423505900000237e+02
-3.338442324000000099e+02
-3.338445834500000160e+02
-3.338435184599999843e+02
-3.338410895200000255e+02
-3.338374046100000214e+02
-3.338330122200000005e+02
-3.338279355199999827e+02
-3.338226661799999988e+02
-3.338177119299999731e+02
-3.342555319100000020e+02
-3.342556481099999814e+02
-3.342514719800000194e+02
-3.342430679500000110e+02
-3.342310745199999928e+02
-3.342157333299999777e+02
-3.341978158499999836e+02
-3.341781349099999829e+02
-3.341575227100000234e+02
-3.341368332200000282e+02
-3.341286435299999766e+02
-3.341232710099999963e+02
-3.341135763899999915e+02
-3.340998064799999838e+02
-3.340823545100000160e+02
-3.340615285299999755e+02
-3.340380330200000003e+02
-3.340123631299999829e+02
-3.339848131300000205e+02
-3.339561825100000192e+02
-3.328054812799999809e+02
-3.328052311999999802e+02
-3.328086209599999847e+02
-3.328158568700000046e+02
-3.328270760400000086e+02
-3.328421667200000229e+02
-3.328612776599999847e+02
-3.328839738099999863e+02
-3.329101220699999999e+02
-3.329395552899999871e+02
-3.343667221499999869e+02
-3.343658086099999878e+02
-3.343616810600000235e+02
-3.343543686900000012e+02
-3.343440322000000151e+02
-3.343311464500000056e+02
-3.343158858900000041e+02
-3.342989336599999888e+02
-3.342805741099999750e+02
-3.342616334699999925e+02
-3.334307109599999990e+02
-3.334253017999999997e+02
-3.334229912999999783e+02
-3.334240088299999911e+02
-3.334283627699999784e+02
-3.334365049799999952e+02
-3.334486481399999889e+02
-3.334649002300000120e+02
-3.334850804800000219e+02
-3.335089515799999731e+02
-3.341775038000000109e+02
-3.341767389899999898e+02
-3.341728869199999963e+02
-3.341663068299999964e+02
-3.341571217599999954e+02
-3.341455709900000102e+02
-3.341319391600000017e+02
-3.341165665699999749e+02
-3.341001168600000142e+02
-3.340828126800000177e+02
-3.339419764099999952e+02
-3.339486407900000131e+02
-3.339533762799999863e+02
-3.339562752499999760e+02
-3.339571570800000018e+02
-3.339565852100000143e+02
-3.339546129700000279e+02
-3.339516174999999976e+02
-3.339480470299999979e+02
-3.339440981800000259e+02
-3.342372450699999717e+02
-3.342330145299999913e+02
-3.342251216600000134e+02
-3.342138686299999790e+02
-3.341997439799999938e+02
-3.341829695900000274e+02
-3.341641973200000280e+02
-3.341438453299999765e+02
-3.341224007899999719e+02
-3.341005282400000169e+02
-3.339577647899999988e+02
-3.339639955499999928e+02
-3.339664836800000103e+02
-3.339653142099999741e+02
-3.339606608500000107e+02
-3.339527213700000061e+02
-3.339418668499999967e+02
-3.339285201700000130e+02
-3.339131708099999969e+02
-3.338962346999999795e+02
-3.337137316299999839e+02
-3.337150151499999993e+02
-3.337140054199999781e+02
-3.337112991199999783e+02
-3.337074503399999799e+02
-3.337025903399999720e+02
-3.336976018600000202e+02
-3.336934016000000156e+02
-3.336906597299999930e+02
-3.336902593600000273e+02
-3.332350498100000209e+02
-3.332526078999999868e+02
-3.332729162399999723e+02
-3.332957738100000142e+02
-3.333208919300000161e+02
-3.333482102599999735e+02
-3.333773005900000044e+02
-3.334079812599999855e+02
-3.334400165700000116e+02
-3.334730171699999914e+02
-3.337719260599999984e+02
-3.337859230299999922e+02
-3.338000450299999784e+02
-3.338142793299999767e+02
-3.338281634599999848e+02
-3.338415565299999912e+02
-3.338543802799999867e+02
-3.338666060200000061e+02
-3.338783239599999888e+02
-3.338896073700000215e+02
-3.340771950500000003e+02
-3.340768997299999796e+02
-3.340719108600000027e+02
-3.340623260300000084e+02
-3.340485307600000056e+02
-3.340313606600000185e+02
-3.340109000300000162e+02
-3.339879844499999990e+02
-3.339633453299999815e+02
-3.339379469900000004e+02
-3.336692927799999779e+02
-3.336671588699999802e+02
-3.336603569600000014e+02
-3.336492186400000151e+02
-3.336344149199999833e+02
-3.336164200800000117e+02
-3.335959207999999876e+02
-3.335740536399999883e+02
-3.335511375599999724e+02
-3.335279397699999890e+02
-3.340553041200000166e+02
-3.340593810699999722e+02
-3.340588098900000205e+02