0.000000000000000000e+00 2.032270000000000021e+00 9.330489999999999284e+00 -1.760000000000000009e+00 5.080680000000000085e+00 9.330489999999999284e+00 -3.520000000000000018e+00 8.129089999999999705e+00 9.330489999999999284e+00 3.520000000000000018e+00 2.032270000000000021e+00 9.330489999999999284e+00 1.760000000000000009e+00 5.080680000000000085e+00 9.330489999999999284e+00 0.000000000000000000e+00 8.129089999999999705e+00 9.330489999999999284e+00 7.040000000000000036e+00 2.032270000000000021e+00 9.330489999999999284e+00 5.280000000000000249e+00 5.080680000000000085e+00 9.330489999999999284e+00 3.520000000000000018e+00 8.129089999999999705e+00 9.330489999999999284e+00 3.519999999999999796e-01 2.032270000000000021e+00 1.704890999999999934e+01 -1.407999999999999918e+00 5.080680000000000085e+00 1.704890999999999934e+01 -3.168000000000000149e+00 8.129089999999999705e+00 1.704890999999999934e+01 3.871999999999999886e+00 2.032270000000000021e+00 1.704890999999999934e+01 2.112000000000000099e+00 5.080680000000000085e+00 1.704890999999999934e+01 3.519999999999999796e-01 8.129089999999999705e+00 1.704890999999999934e+01 7.392000000000000348e+00 2.032270000000000021e+00 1.704890999999999934e+01 5.631999999999999673e+00 5.080680000000000085e+00 1.704890999999999934e+01 3.871999999999999886e+00 8.129089999999999705e+00 1.704890999999999934e+01 0.000000000000000000e+00 2.032270000000000021e+00 1.295110999999999990e+01 -1.760000000000000009e+00 5.080680000000000085e+00 1.295110999999999990e+01 -3.520000000000000018e+00 8.129089999999999705e+00 1.295110999999999990e+01 3.520000000000000018e+00 2.032270000000000021e+00 1.295110999999999990e+01 1.760000000000000009e+00 5.080680000000000085e+00 1.295110999999999990e+01 0.000000000000000000e+00 8.129089999999999705e+00 1.295110999999999990e+01 7.040000000000000036e+00 2.032270000000000021e+00 1.295110999999999990e+01 5.280000000000000249e+00 5.080680000000000085e+00 1.295110999999999990e+01 3.520000000000000018e+00 8.129089999999999705e+00 1.295110999999999990e+01 3.519999999999999796e-01 2.032270000000000021e+00 2.066953000000000173e+01 -1.407999999999999918e+00 5.080680000000000085e+00 2.066953000000000173e+01 -3.168000000000000149e+00 8.129089999999999705e+00 2.066953000000000173e+01 3.871999999999999886e+00 2.032270000000000021e+00 2.066953000000000173e+01 2.112000000000000099e+00 5.080680000000000085e+00 2.066953000000000173e+01 3.519999999999999796e-01 8.129089999999999705e+00 2.066953000000000173e+01 7.392000000000000348e+00 2.032270000000000021e+00 2.066953000000000173e+01 5.631999999999999673e+00 5.080680000000000085e+00 2.066953000000000173e+01 3.871999999999999886e+00 8.129089999999999705e+00 2.066953000000000173e+01 0.000000000000000000e+00 0.000000000000000000e+00 1.114098000000000077e+01 -1.760000000000000009e+00 3.048410000000000064e+00 1.114098000000000077e+01 -3.520000000000000018e+00 6.096820000000000128e+00 1.114098000000000077e+01 3.520000000000000018e+00 0.000000000000000000e+00 1.114098000000000077e+01 1.760000000000000009e+00 3.048410000000000064e+00 1.114098000000000077e+01 0.000000000000000000e+00 6.096820000000000128e+00 1.114098000000000077e+01 7.040000000000000036e+00 0.000000000000000000e+00 1.114098000000000077e+01 5.280000000000000249e+00 3.048410000000000064e+00 1.114098000000000077e+01 3.520000000000000018e+00 6.096820000000000128e+00 1.114098000000000077e+01 3.519999999999999796e-01 0.000000000000000000e+00 1.885904000000000025e+01 -1.407999999999999918e+00 3.048410000000000064e+00 1.885904000000000025e+01 -3.168000000000000149e+00 6.096820000000000128e+00 1.885904000000000025e+01 3.871999999999999886e+00 0.000000000000000000e+00 1.885904000000000025e+01 2.112000000000000099e+00 3.048410000000000064e+00 1.885904000000000025e+01 3.519999999999999796e-01 6.096820000000000128e+00 1.885904000000000025e+01 7.392000000000000348e+00 0.000000000000000000e+00 1.885904000000000025e+01 5.631999999999999673e+00 3.048410000000000064e+00 1.885904000000000025e+01 3.871999999999999886e+00 6.096820000000000128e+00 1.885904000000000025e+01
-1.319999999999999993e-03 2.031730000000000036e+00 9.330759999999999721e+00 -1.757179999999999964e+00 5.079080000000000261e+00 9.330199999999999605e+00 -3.517520000000000202e+00 8.130969999999999587e+00 9.333280000000000243e+00 3.519559999999999800e+00 2.030040000000000067e+00 9.328480000000000771e+00 1.758219999999999894e+00 5.083029999999999937e+00 9.330180000000000362e+00 -8.300000000000000086e-04 8.127499999999999503e+00 9.329639999999999489e+00 7.037340000000000373e+00 2.030699999999999950e+00 9.333909999999999485e+00 5.279519999999999769e+00 5.081170000000000186e+00 9.328189999999999316e+00 3.521799999999999820e+00 8.131059999999999732e+00 9.330790000000000362e+00 3.499599999999999933e-01 2.032540000000000013e+00 1.704710999999999999e+01 -1.410530000000000062e+00 5.080160000000000231e+00 1.704777999999999949e+01 -3.166850000000000165e+00 8.130150000000000432e+00 1.704594000000000165e+01 3.871929999999999872e+00 2.034089999999999954e+00 1.704811000000000121e+01 2.112309999999999910e+00 5.080280000000000129e+00 1.704926000000000030e+01 3.541799999999999948e-01 8.127779999999999561e+00 1.704834999999999923e+01 7.391899999999999693e+00 2.031979999999999897e+00 1.705075000000000074e+01 5.631529999999999703e+00 5.079019999999999868e+00 1.704918999999999940e+01 3.876259999999999817e+00 8.131859999999999644e+00 1.704711999999999961e+01 0.000000000000000000e+00 2.031029999999999891e+00 1.295109000000000066e+01 -1.757970000000000033e+00 5.081889999999999574e+00 1.295045000000000002e+01 -3.520859999999999879e+00 8.129459999999999908e+00 1.295002999999999993e+01 3.522629999999999928e+00 2.030899999999999928e+00 1.295262999999999920e+01 1.759649999999999936e+00 5.082699999999999996e+00 1.294993000000000016e+01 -8.099999999999999561e-04 8.127679999999999794e+00 1.295189000000000057e+01 7.041380000000000194e+00 2.032929999999999904e+00 1.295425000000000004e+01 5.281100000000000350e+00 5.080659999999999954e+00 1.295144999999999946e+01 3.519890000000000185e+00 8.129960000000000520e+00 1.295350999999999964e+01 3.543299999999999783e-01 2.033240000000000158e+00 2.066766000000000147e+01 -1.406700000000000061e+00 5.082609999999999850e+00 2.067079000000000022e+01 -3.165970000000000173e+00 8.130819999999999936e+00 2.067073999999999856e+01 3.870499999999999829e+00 2.033490000000000020e+00 2.067003000000000057e+01 2.112499999999999822e+00 5.078719999999999679e+00 2.067026999999999859e+01 3.487199999999999744e-01 8.126419999999999533e+00 2.067097000000000051e+01 7.390360000000000262e+00 2.031509999999999927e+00 2.066685000000000016e+01 5.631750000000000256e+00 5.080510000000000304e+00 2.067199000000000098e+01 3.871980000000000199e+00 8.130269999999999442e+00 2.066854999999999976e+01 5.280680000000000263e+00 9.141659999999999897e+00 1.114085999999999999e+01 8.798360000000000625e+00 3.045609999999999928e+00 1.113995000000000068e+01 -3.519470000000000098e+00 6.098499999999999588e+00 1.114136000000000060e+01 3.521009999999999973e+00 9.100000000000000016e-04 1.114085999999999999e+01 1.758769999999999945e+00 3.047070000000000167e+00 1.114208999999999961e+01 -1.499999999999999869e-04 6.094249999999999723e+00 1.114278000000000013e+01 1.756420000000000092e+00 9.143810000000000215e+00 1.114293999999999940e+01 5.278229999999999755e+00 3.049980000000000135e+00 1.114020000000000010e+01 3.518710000000000004e+00 6.097380000000000244e+00 1.113861999999999952e+01 3.506000000000000227e-01 2.109999999999999896e-03 1.885713000000000150e+01 -1.409329999999999972e+00 3.051039999999999974e+00 1.885841999999999885e+01 -3.167990000000000084e+00 6.096370000000000289e+00 1.885952999999999946e+01 -1.408900000000000041e+00 9.142659999999999343e+00 1.885698999999999970e+01 2.109399999999999942e+00 3.047019999999999840e+00 1.885722000000000165e+01 3.520199999999999996e-01 6.101759999999999629e+00 1.885980999999999952e+01 2.113440000000000207e+00 9.142279999999999518e+00 1.885846000000000089e+01 5.633720000000000283e+00 3.048939999999999984e+00 1.886263999999999896e+01 3.873429999999999929e+00 6.096429999999999794e+00 1.885780000000000101e+01
-2.629999999999999959e-03 2.031179999999999986e+00 9.331039999999999779e+00 -1.754369999999999985e+00 5.077469999999999928e+00 9.329919999999999547e+00 -3.515039999999999942e+00 8.132839999999999847e+00 9.336069999999999425e+00 3.519120000000000026e+00 2.027820000000000178e+00 9.326480000000000103e+00 1.756450000000000067e+00 5.085370000000000168e+00 9.329869999999999663e+00 -1.660000000000000017e-03 8.125920000000000698e+00 9.328799999999999315e+00 7.034670000000000201e+00 2.029139999999999944e+00 9.337320000000000064e+00 5.279040000000000177e+00 5.081660000000000288e+00 9.325900000000000745e+00 3.523600000000000065e+00 8.133020000000000138e+00 9.331099999999999284e+00 3.479200000000000070e-01 2.032820000000000071e+00 1.704531000000000063e+01 -1.413049999999999917e+00 5.079640000000000377e+00 1.704665999999999926e+01 -3.165700000000000180e+00 8.131209999999999383e+00 1.704298000000000002e+01 3.871869999999999923e+00 2.035899999999999821e+00 1.704732999999999876e+01 2.112629999999999786e+00 5.079880000000000173e+00 1.704960000000000164e+01 3.563700000000000201e-01 8.126480000000000814e+00 1.704777999999999949e+01 7.391810000000000436e+00 2.031680000000000152e+00 1.705257999999999896e+01 5.631059999999999732e+00 5.077370000000000161e+00 1.704945999999999984e+01 3.880520000000000191e+00 8.134629999999999583e+00 1.704532000000000025e+01 0.000000000000000000e+00 2.029780000000000140e+00 1.295107999999999926e+01 -1.755959999999999965e+00 5.083090000000000330e+00 1.294979999999999976e+01 -3.521720000000000184e+00 8.129820000000000491e+00 1.294895999999999958e+01 3.525250000000000217e+00 2.029539999999999900e+00 1.295415000000000028e+01 1.759290000000000020e+00 5.084719999999999906e+00 1.294875000000000043e+01 -1.629999999999999939e-03 8.126269999999999882e+00 1.295266999999999946e+01 7.042740000000000222e+00 2.033589999999999787e+00 1.295739000000000019e+01 5.282199999999999562e+00 5.080630000000000202e+00 1.295179000000000080e+01 3.519779999999999909e+00 8.130829999999999558e+00 1.295590999999999937e+01 3.566599999999999770e-01 2.034209999999999852e+00 2.066580000000000084e+01 -1.405399999999999983e+00 5.084529999999999994e+00 2.067203999999999908e+01 -3.163949999999999818e+00 8.132540000000000546e+00 2.067194999999999894e+01 3.869009999999999838e+00 2.034689999999999888e+00 2.067051999999999978e+01 2.113010000000000055e+00 5.076760000000000161e+00 2.067100999999999900e+01 3.454499999999999793e-01 8.123770000000000380e+00 2.067240999999999929e+01 7.388729999999999798e+00 2.030740000000000212e+00 2.066419000000000139e+01 5.631509999999999572e+00 5.080339999999999634e+00 2.067444000000000059e+01 3.871970000000000134e+00 8.131449999999999179e+00 2.066758000000000095e+01 5.281349999999999767e+00 9.138130000000000308e+00 1.114076000000000022e+01 8.796730000000000160e+00 3.042819999999999858e+00 1.113893999999999984e+01 -3.518940000000000179e+00 6.100179999999999936e+00 1.114174000000000042e+01 3.522009999999999863e+00 1.809999999999999977e-03 1.114075000000000060e+01 1.757540000000000102e+00 3.045739999999999892e+00 1.114319000000000059e+01 -2.999999999999999737e-04 6.091700000000000337e+00 1.114456999999999987e+01 1.752860000000000085e+00 9.142390000000000683e+00 1.114489000000000019e+01 5.276469999999999771e+00 3.051540000000000141e+00 1.113943000000000083e+01 3.517419999999999991e+00 6.097949999999999982e+00 1.113627999999999929e+01 3.492299999999999849e-01 4.199999999999999740e-03 1.885522999999999882e+01 -1.410639999999999894e+00 3.053669999999999884e+00 1.885781000000000063e+01 -3.167980000000000018e+00 6.095930000000000071e+00 1.886001999999999867e+01 -1.409780000000000033e+00 9.140109999999999957e+00 1.885493999999999915e+01 2.106809999999999850e+00 3.045630000000000059e+00 1.885539999999999949e+01 3.520499999999999741e-01 6.106659999999999755e+00 1.886057999999999879e+01 2.114869999999999806e+00 9.139340000000000686e+00 1.885788000000000153e+01 5.635410000000000252e+00 3.049469999999999903e+00 1.886621999999999844e+01 3.874859999999999971e+00 6.096059999999999590e+00 1.885657000000000139e+01
-3.939999999999999926e-03 2.030619999999999870e+00 9.331310000000000215e+00 -1.751589999999999980e+00 5.075870000000000104e+00 9.329650000000000887e+00 -3.512570000000000192e+00 8.134700000000000486e+00 9.338829999999999742e+00 3.518679999999999808e+00 2.025619999999999976e+00 9.324490000000000833e+00 1.754680000000000017e+00 5.087690000000000268e+00 9.329560000000000741e+00 -2.480000000000000000e-03 8.124320000000000874e+00 9.327959999999999141e+00 7.032009999999999650e+00 2.027569999999999872e+00 9.340709999999999624e+00 5.278570000000000206e+00 5.082160000000000011e+00 9.323620000000000019e+00 3.525370000000000115e+00 8.134969999999999146e+00 9.331400000000000361e+00 3.458899999999999753e-01 2.033100000000000129e+00 1.704351000000000127e+01 -1.415540000000000020e+00 5.079130000000000145e+00 1.704554999999999865e+01 -3.164559999999999818e+00 8.132250000000000867e+00 1.704004000000000119e+01 3.871820000000000039e+00 2.037700000000000067e+00 1.704654999999999987e+01 2.112940000000000040e+00 5.079480000000000217e+00 1.704994999999999905e+01 3.585499999999999798e-01 8.125189999999999912e+00 1.704720999999999975e+01 7.391720000000000290e+00 2.031379999999999963e+00 1.705441000000000074e+01 5.630609999999999893e+00 5.075709999999999944e+00 1.704973999999999990e+01 3.884770000000000056e+00 8.137370000000000658e+00 1.704353000000000051e+01 -2.000000000000000164e-05 2.028529999999999944e+00 1.295106000000000002e+01 -1.753970000000000029e+00 5.084270000000000067e+00 1.294914999999999949e+01 -3.522569999999999979e+00 8.130190000000000694e+00 1.294791000000000025e+01 3.527849999999999930e+00 2.028179999999999872e+00 1.295565999999999995e+01 1.758939999999999948e+00 5.086719999999999686e+00 1.294758000000000031e+01 -2.459999999999999947e-03 8.124859999999999971e+00 1.295345000000000013e+01 7.044089999999999741e+00 2.034250000000000114e+00 1.296050999999999931e+01 5.283269999999999911e+00 5.080619999999999692e+00 1.295212000000000074e+01 3.519649999999999945e+00 8.131679999999999353e+00 1.295828999999999986e+01 3.589499999999999913e-01 2.035169999999999924e+00 2.066394999999999982e+01 -1.404099999999999904e+00 5.086450000000000138e+00 2.067330000000000112e+01 -3.161950000000000038e+00 8.134259999999999380e+00 2.067314000000000007e+01 3.867509999999999781e+00 2.035880000000000134e+00 2.067099999999999937e+01 2.113510000000000222e+00 5.074819999999999887e+00 2.067173000000000016e+01 3.422000000000000042e-01 8.121130000000000848e+00 2.067385000000000161e+01 7.387120000000000353e+00 2.029970000000000052e+00 2.066154999999999831e+01 5.631269999999999776e+00 5.080180000000000362e+00 2.067689999999999984e+01 3.871970000000000134e+00 8.132619999999999294e+00 2.066660999999999859e+01 5.282009999999999650e+00 9.134629999999999583e+00 1.114067000000000007e+01 8.795109999999999317e+00 3.040059999999999985e+00 1.113795999999999964e+01 -3.518409999999999815e+00 6.101820000000000022e+00 1.114208999999999961e+01 3.523019999999999818e+00 2.700000000000000143e-03 1.114066000000000045e+01 1.756350000000000078e+00 3.044430000000000192e+00 1.114427000000000056e+01 -4.499999999999999877e-04 6.089199999999999946e+00 1.114633000000000074e+01 1.749330000000000052e+00 9.140969999999999374e+00 1.114685000000000059e+01 5.274720000000000297e+00 3.053080000000000016e+00 1.113868000000000080e+01 3.516150000000000109e+00 6.098519999999999719e+00 1.113397999999999932e+01 3.478999999999999870e-01 6.279999999999999992e-03 1.885335999999999856e+01 -1.411920000000000064e+00 3.056270000000000042e+00 1.885720999999999847e+01 -3.167980000000000018e+00 6.095519999999999605e+00 1.886051000000000144e+01 -1.410630000000000051e+00 9.137589999999999435e+00 1.885291000000000139e+01 2.104249999999999954e+00 3.044259999999999966e+00 1.885358000000000089e+01 3.520699999999999941e-01 6.111480000000000246e+00 1.886132999999999882e+01 2.116280000000000161e+00 9.136409999999999698e+00 1.885730999999999824e+01 5.637069999999999581e+00 3.049999999999999822e+00 1.886974999999999980e+01 3.876290000000000013e+00 6.095690000000000275e+00 1.885536000000000101e+01
-5.250000000000000326e-03 2.030050000000000132e+00 9.331590000000000273e+00 -1.748820000000000041e+00 5.074270000000000280e+00 9.329380000000000450e+00 -3.510099999999999998e+00 8.136549999999999727e+00 9.341559999999999420e+00 3.518229999999999968e+00 2.023439999999999905e+00 9.322520000000000806e+00 1.752920000000000034e+00 5.089979999999999727e+00 9.329250000000000043e+00 -3.299999999999999982e-03 8.122730000000000672e+00 9.327139999999999986e+00 7.029340000000000366e+00 2.025990000000000180e+00 9.344079999999999941e+00 5.278100000000000236e+00 5.082659999999999734e+00 9.321350000000000691e+00 3.527109999999999967e+00 8.136919999999999931e+00 9.331699999999999662e+00 3.438499999999999890e-01 2.033399999999999874e+00 1.704169999999999874e+01 -1.418009999999999993e+00 5.078649999999999665e+00 1.704445000000000121e+01 -3.163429999999999964e+00 8.133269999999999555e+00 1.703710999999999842e+01 3.871789999999999843e+00 2.039480000000000182e+00 1.704579999999999984e+01 2.113249999999999851e+00 5.079100000000000392e+00 1.705030999999999963e+01 3.607299999999999951e-01 8.123910000000000409e+00 1.704662000000000077e+01 7.391630000000000145e+00 2.031080000000000219e+00 1.705623999999999896e+01 5.630180000000000184e+00 5.074060000000000237e+00 1.705001999999999995e+01 3.888999999999999790e+00 8.140079999999999316e+00 1.704173000000000116e+01 -4.000000000000000327e-05 2.027270000000000127e+00 1.295104000000000077e+01 -1.752010000000000067e+00 5.085420000000000051e+00 1.294849999999999923e+01 -3.523410000000000153e+00 8.130549999999999500e+00 1.294687000000000054e+01 3.530429999999999957e+00 2.026850000000000041e+00 1.295715000000000039e+01 1.758599999999999941e+00 5.088689999999999714e+00 1.294642999999999944e+01 -3.299999999999999982e-03 8.123450000000000060e+00 1.295425000000000004e+01 7.045399999999999885e+00 2.034899999999999931e+00 1.296359999999999957e+01 5.284329999999999750e+00 5.080619999999999692e+00 1.295242999999999967e+01 3.519509999999999916e+00 8.132519999999999527e+00 1.296063999999999972e+01 3.612099999999999755e-01 2.036140000000000061e+00 2.066210999999999842e+01 -1.402819999999999956e+00 5.088359999999999772e+00 2.067454000000000036e+01 -3.159980000000000011e+00 8.135970000000000368e+00 2.067430999999999841e+01 3.866019999999999790e+00 2.037049999999999805e+00 2.067145999999999972e+01 2.113999999999999879e+00 5.072890000000000121e+00 2.067241999999999891e+01 3.389699999999999935e-01 8.118539999999999424e+00 2.067529000000000039e+01 7.385530000000000150e+00 2.029180000000000206e+00 2.065894000000000119e+01 5.631029999999999980e+00 5.080029999999999824e+00 2.067933999999999983e+01 3.871970000000000134e+00 8.133770000000000167e+00 2.066563999999999979e+01 5.282639999999999780e+00 9.131209999999999383e+00 1.114059999999999917e+01 8.793509999999999494e+00 3.037339999999999929e+00 1.113701999999999970e+01 -3.517869999999999830e+00 6.103410000000000224e+00 1.114242999999999917e+01 3.524030000000000218e+00 3.569999999999999823e-03 1.114058999999999955e+01 1.755179999999999962e+00 3.043130000000000113e+00 1.114532999999999952e+01 -5.999999999999999474e-04 6.086750000000000327e+00 1.114803000000000033e+01 1.745870000000000033e+00 9.139570000000000860e+00 1.114879999999999960e+01 5.272990000000000066e+00 3.054600000000000204e+00 1.113796999999999926e+01 3.514920000000000044e+00 6.099099999999999966e+00 1.113171999999999962e+01 3.466299999999999937e-01 8.340000000000000191e-03 1.885152000000000072e+01 -1.413170000000000037e+00 3.058850000000000069e+00 1.885662999999999911e+01 -3.168000000000000149e+00 6.095119999999999649e+00 1.886100000000000065e+01 -1.411440000000000028e+00 9.135139999999999816e+00 1.885089999999999932e+01 2.101719999999999811e+00 3.042920000000000069e+00 1.885178000000000154e+01 3.520800000000000041e-01 6.116200000000000081e+00 1.886204999999999998e+01 2.117649999999999810e+00 9.133509999999999351e+00 1.885675000000000168e+01 5.638679999999999914e+00 3.050530000000000186e+00 1.887321000000000026e+01 3.877720000000000056e+00 6.095340000000000202e+00 1.885417999999999950e+01
-6.539999999999999807e-03 2.029459999999999820e+00 9.331860000000000710e+00 -1.746099999999999985e+00 5.072669999999999568e+00 9.329119999999999635e+00 -3.507639999999999869e+00 8.138379999999999725e+00 9.344239999999999213e+00 3.517770000000000064e+00 2.021300000000000097e+00 9.320570000000000022e+00 1.751169999999999893e+00 5.092229999999999812e+00 9.328950000000000742e+00 -4.120000000000000398e-03 8.121119999999999450e+00 9.326340000000000074e+00 7.026679999999999815e+00 2.024420000000000108e+00 9.347409999999999997e+00 5.277650000000000396e+00 5.083169999999999966e+00 9.319100000000000605e+00 3.528820000000000068e+00 8.138859999999999317e+00 9.332000000000000739e+00 3.418100000000000027e-01 2.033710000000000129e+00 1.703988999999999976e+01 -1.420439999999999925e+00 5.078210000000000335e+00 1.704336999999999946e+01 -3.162310000000000176e+00 8.134270000000000778e+00 1.703422000000000125e+01 3.871780000000000221e+00 2.041249999999999787e+00 1.704506999999999906e+01 2.113539999999999974e+00 5.078739999999999810e+00 1.705066000000000059e+01 3.629000000000000004e-01 8.122659999999999769e+00 1.704600999999999900e+01 7.391530000000000378e+00 2.030769999999999964e+00 1.705806000000000111e+01 5.629760000000000097e+00 5.072409999999999641e+00 1.705030999999999963e+01 3.893200000000000216e+00 8.142760000000000886e+00 1.703994000000000142e+01 -8.000000000000000654e-05 2.025999999999999801e+00 1.295101000000000013e+01 -1.750080000000000080e+00 5.086540000000000283e+00 1.294786999999999999e+01 -3.524239999999999817e+00 8.130919999999999703e+00 1.294585999999999970e+01 3.532970000000000166e+00 2.025529999999999831e+00 1.295864000000000082e+01 1.758280000000000065e+00 5.090629999999999988e+00 1.294529999999999959e+01 -4.159999999999999636e-03 8.122030000000000527e+00 1.295505999999999958e+01 7.046680000000000277e+00 2.035550000000000193e+00 1.296664999999999957e+01 5.285359999999999836e+00 5.080630000000000202e+00 1.295271999999999935e+01 3.519359999999999822e+00 8.133330000000000837e+00 1.296296000000000070e+01 3.634299999999999753e-01 2.037110000000000198e+00 2.066028999999999982e+01 -1.401529999999999943e+00 5.090270000000000294e+00 2.067576999999999998e+01 -3.158049999999999802e+00 8.137660000000000338e+00 2.067543999999999826e+01 3.864520000000000177e+00 2.038190000000000168e+00 2.067189000000000121e+01 2.114500000000000046e+00 5.070979999999999599e+00 2.067306999999999917e+01 3.357600000000000029e-01 8.115999999999999659e+00 2.067672999999999917e+01 7.383980000000000210e+00 2.028379999999999850e+00 2.065636999999999901e+01 5.630799999999999805e+00 5.079900000000000304e+00 2.068177000000000021e+01 3.871989999999999821e+00 8.134909999999999641e+00 2.066468000000000060e+01 5.283249999999999780e+00 9.127879999999999328e+00 1.114054999999999929e+01 8.791930000000000689e+00 3.034660000000000135e+00 1.113615000000000066e+01 -3.517329999999999846e+00 6.104949999999999655e+00 1.114272000000000062e+01 3.525040000000000173e+00 4.429999999999999910e-03 1.114054999999999929e+01 1.754070000000000018e+00 3.041850000000000165e+00 1.114634999999999998e+01 -7.500000000000000156e-04 6.084369999999999834e+00 1.114968000000000004e+01 1.742469999999999963e+00 9.138170000000000570e+00 1.115074000000000076e+01 5.271270000000000344e+00 3.056090000000000195e+00 1.113729000000000013e+01 3.513720000000000176e+00 6.099689999999999834e+00 1.112953000000000081e+01 3.454400000000000248e-01 1.037000000000000074e-02 1.884972000000000136e+01 -1.414360000000000062e+00 3.061399999999999899e+00 1.885608999999999824e+01 -3.168039999999999967e+00 6.094769999999999577e+00 1.886148000000000025e+01 -1.412199999999999900e+00 9.132749999999999702e+00 1.884891999999999967e+01 2.099239999999999995e+00 3.041609999999999925e+00 1.884997999999999863e+01 3.520900000000000141e-01 6.120770000000000266e+00 1.886273999999999873e+01 2.118959999999999955e+00 9.130620000000000402e+00 1.885620000000000118e+01 5.640200000000000102e+00 3.051070000000000171e+00 1.887658000000000058e+01 3.879160000000000164e+00 6.095010000000000261e+00 1.885303000000000040e+01
-7.810000000000000102e-03 2.028849999999999820e+00 9.332150000000000389e+00 -1.743409999999999904e+00 5.071069999999999744e+00 9.328870000000000218e+00 -3.505189999999999806e+00 8.140180000000000859e+00 9.346869999999999123e+00 3.517290000000000028e+00 2.019190000000000040e+00 9.318640000000000256e+00 1.749430000000000041e+00 5.094430000000000014e+00 9.328649999999999665e+00 -4.930000000000000354e-03 8.119510000000000005e+00 9.325549999999999784e+00 7.024009999999999643e+00 2.022839999999999971e+00 9.350709999999999411e+00 5.277199999999999669e+00 5.083689999999999820e+00 9.316869999999999763e+00 3.530479999999999841e+00 8.140790000000000859e+00 9.332300000000000040e+00 3.397700000000000164e-01 2.034050000000000136e+00 1.703807000000000116e+01 -1.422840000000000105e+00 5.077799999999999869e+00 1.704231000000000051e+01 -3.161220000000000141e+00 8.135249999999999204e+00 1.703134999999999977e+01 3.871799999999999908e+00 2.043000000000000149e+00 1.704438000000000031e+01 2.113830000000000098e+00 5.078400000000000247e+00 1.705102000000000118e+01 3.650700000000000056e-01 8.121430000000000149e+00 1.704536999999999836e+01 7.391420000000000101e+00 2.030460000000000154e+00 1.705987000000000009e+01 5.629380000000000273e+00 5.070770000000000444e+00 1.705059999999999931e+01 3.897370000000000001e+00 8.145390000000000796e+00 1.703813999999999851e+01 -1.399999999999999877e-04 2.024719999999999853e+00 1.295096999999999987e+01 -1.748199999999999976e+00 5.087620000000000253e+00 1.294724000000000075e+01 -3.525040000000000173e+00 8.131280000000000285e+00 1.294487999999999950e+01 3.535480000000000178e+00 2.024239999999999817e+00 1.296010000000000062e+01 1.757980000000000098e+00 5.092539999999999623e+00 1.294419000000000075e+01 -5.029999999999999749e-03 8.120609999999999218e+00 1.295588000000000051e+01 7.047909999999999897e+00 2.036200000000000010e+00 1.296965999999999930e+01 5.286360000000000170e+00 5.080669999999999575e+00 1.295298000000000016e+01 3.519190000000000040e+00 8.134119999999999351e+00 1.296524999999999928e+01 3.655900000000000261e-01 2.038079999999999892e+00 2.065848000000000084e+01 -1.400260000000000060e+00 5.092179999999999929e+00 2.067698999999999998e+01 -3.156159999999999854e+00 8.139350000000000307e+00 2.067652999999999963e+01 3.863030000000000186e+00 2.039289999999999825e+00 2.067228000000000065e+01 2.114990000000000148e+00 5.069090000000000096e+00 2.067368000000000094e+01 3.325899999999999967e-01 8.113509999999999778e+00 2.067815999999999832e+01 7.382469999999999644e+00 2.027569999999999872e+00 2.065383999999999887e+01 5.630580000000000140e+00 5.079799999999999649e+00 2.068420000000000059e+01 3.872030000000000083e+00 8.136020000000000252e+00 2.066373000000000104e+01 5.283820000000000405e+00 9.124670000000000059e+00 1.114053999999999967e+01 8.790380000000000749e+00 3.032039999999999846e+00 1.113533999999999935e+01 -3.516770000000000174e+00 6.106419999999999959e+00 1.114297999999999966e+01 3.526050000000000129e+00 5.259999999999999919e-03 1.114054999999999929e+01 1.753020000000000023e+00 3.040599999999999969e+00 1.114733000000000018e+01 -8.999999999999999754e-04 6.082089999999999996e+00 1.115124999999999922e+01 1.739160000000000039e+00 9.136799999999999145e+00 1.115268000000000015e+01 5.269580000000000375e+00 3.057549999999999990e+00 1.113665999999999912e+01 3.512560000000000127e+00 6.100299999999999834e+00 1.112740999999999936e+01 3.443599999999999994e-01 1.235999999999999946e-02 1.884797000000000011e+01 -1.415480000000000071e+00 3.063919999999999977e+00 1.885557000000000016e+01 -3.168109999999999982e+00 6.094450000000000145e+00 1.886195999999999984e+01 -1.412889999999999979e+00 9.130459999999999354e+00 1.884696999999999889e+01 2.096810000000000063e+00 3.040340000000000042e+00 1.884818999999999889e+01 3.520900000000000141e-01 6.125169999999999781e+00 1.886337999999999937e+01 2.120210000000000150e+00 9.127769999999999939e+00 1.885566999999999993e+01 5.641630000000000145e+00 3.051600000000000090e+00 1.887985000000000113e+01 3.880599999999999827e+00 6.094710000000000072e+00 1.885192999999999941e+01