-3.380239374999999882e+02
-3.380213221000000203e+02
-3.380135310599999912e+02
-3.380007570600000122e+02
-3.379833076099999971e+02
-3.379615886099999784e+02
-3.379360853399999769e+02
-3.379073454200000128e+02
-3.378759509199999798e+02
-3.378425022700000113e+02
-3.374186776600000144e+02
-3.374206199800000263e+02
-3.374187299700000153e+02
-3.374131544400000280e+02
-3.374041305399999828e+02
-3.373919817799999805e+02
-3.373770999899999765e+02
-3.373599262100000260e+02
-3.373409314200000040e+02
-3.373205959499999835e+02
-3.374579251600000021e+02
-3.374586507399999959e+02
-3.374553072100000009e+02
-3.374480434500000001e+02
-3.374371055400000046e+02
-3.374228366899999969e+02
-3.374056470200000035e+02
-3.373860008899999912e+02
-3.373643991999999798e+02
-3.373413514499999906e+02
-3.373164731499999789e+02
-3.373189653599999929e+02
-3.373170926600000143e+02
-3.373110922100000266e+02
-3.373013402600000177e+02
-3.372883435400000280e+02
-3.372727081099999964e+02
-3.372551184199999739e+02
-3.372363036400000169e+02
-3.372170129099999940e+02
-3.372562208100000021e+02
-3.372515510599999971e+02
-3.372422719300000153e+02
-3.372286070100000188e+02
-3.372109136899999839e+02
-3.371896555999999805e+02
-3.371653907099999969e+02
-3.371387435099999834e+02
-3.371103820800000221e+02
-3.370809946100000047e+02
-3.371606985999999893e+02
-3.371627303999999867e+02
-3.371622777100000121e+02
-3.371593858800000021e+02
-3.371541599899999824e+02
-3.371467681199999902e+02
-3.371374321499999951e+02
-3.371264208599999961e+02
-3.371140307200000166e+02
-3.371005849000000012e+02
-3.372247533400000066e+02
-3.372267534299999738e+02
-3.372250470600000085e+02
-3.372196654200000125e+02
-3.372107517100000109e+02
-3.371985546399999976e+02
-3.371834185100000241e+02
-3.371657622299999844e+02
-3.371460647999999765e+02
-3.371248505899999941e+02
-3.372772540999999933e+02
-3.372835519500000032e+02
-3.372866584700000203e+02
-3.372865611199999876e+02
-3.372833359699999960e+02
-3.372771570500000280e+02
-3.372682878800000026e+02
-3.372570675100000130e+02
-3.372439037500000154e+02
-3.372292479899999762e+02
-3.372811467399999970e+02
-3.372799617900000158e+02
-3.372735077199999978e+02
-3.372619468999999981e+02
-3.372455701700000077e+02
-3.372247863900000198e+02
-3.372001009699999940e+02
-3.371720941400000129e+02
-3.371413971100000140e+02
-3.371086734099999944e+02
-3.369142167200000131e+02
-3.369220893099999898e+02
-3.369280920200000082e+02
-3.369321833399999946e+02
-3.369343942300000094e+02
-3.369348218299999758e+02
-3.369336204900000098e+02
-3.369310022099999742e+02
-3.369272233400000118e+02
-3.369225716500000090e+02
-3.349213972699999999e+02
-3.349550463900000068e+02
-3.350010375400000271e+02
-3.350585198599999899e+02
-3.351264315700000225e+02
-3.352035047300000201e+02
-3.352882628500000237e+02
-3.353790549199999873e+02
-3.354741045800000165e+02
-3.355715888999999947e+02
-3.349194002899999987e+02
-3.349226612699999919e+02
-3.349336866599999780e+02
-3.349523610599999870e+02
-3.349784814899999787e+02
-3.350117624200000250e+02
-3.350518206300000088e+02
-3.350981885799999986e+02
-3.351502979800000048e+02
-3.352074984199999790e+02
-3.376656743799999845e+02
-3.376631568600000151e+02
-3.376568544699999848e+02
-3.376470162599999867e+02
-3.376340293499999916e+02
-3.376183883699999910e+02
-3.376006748199999947e+02
-3.375815243000000123e+02
-3.375615961699999730e+02
-3.375415429399999994e+02
-3.370194555799999989e+02
-3.370177124599999843e+02
-3.370147710499999789e+02
-3.370107432199999948e+02
-3.370058159100000239e+02
-3.370002206999999999e+02
-3.369942362099999968e+02
-3.369881657299999915e+02
-3.369823097299999972e+02
-3.369769592600000010e+02
-3.363839060899999822e+02
-3.363951959600000237e+02
-3.364114651799999933e+02
-3.364325698999999759e+02
-3.364583877399999778e+02
-3.364888107400000195e+02
-3.365237136100000157e+02
-3.365629307699999799e+02
-3.366062204500000234e+02
-3.366532439399999816e+02
-3.372072530400000119e+02
-3.372217107299999839e+02
-3.372349470300000007e+02
-3.372467994400000180e+02
-3.372571626199999741e+02
-3.372659970600000179e+02
-3.372733301399999846e+02
-3.372792508800000064e+02
-3.372839058299999806e+02
-3.372874959999999760e+02
-3.372163842300000169e+02
-3.372212842600000045e+02
-3.372226105899999880e+02
-3.372204689199999734e+02
-3.372151153600000271e+02
-3.372069249699999887e+02
-3.371963833300000033e+02
-3.371840473799999813e+02
-3.371705228000000147e+02
-3.371564261500000157e+02
-3.367594647399999985e+02
-3.367636541200000124e+02
-3.367682630799999970e+02
-3.367731836099999896e+02
-3.367783391500000221e+02
-3.367836886499999878e+02
-3.367892261000000076e+02
-3.367949834400000100e+02
-3.368010213499999850e+02
-3.368074315800000136e+02
-3.374433669200000168e+02
-3.374421505799999750e+02
-3.374367686499999763e+02
-3.374273887300000183e+02
-3.374142755799999804e+02
-3.373977806500000156e+02
-3.373783217299999819e+02
-3.373563689999999724e+02
-3.373324262400000180e+02
-3.373070107400000097e+02
-3.366454907799999887e+02
-3.366431481199999780e+02
-3.366414303099999756e+02
-3.366404100899999889e+02
-3.366401633400000151e+02
-3.366407840300000203e+02
-3.366423717900000270e+02
-3.366450347400000283e+02
-3.366488779200000181e+02
-3.366540056200000208e+02
-3.375162231099999985e+02
-3.375271213899999907e+02
-3.375339723600000070e+02
-3.375367120999999884e+02
-3.375354148900000268e+02
-3.375302905699999769e+02
-3.375216641700000082e+02
-3.375099549099999763e+02
-3.374956541700000230e+02
-3.374792970999999966e+02
-3.371105756599999950e+02
-3.371071541100000104e+02
-3.371034940200000278e+02
-3.370997069200000169e+02
-3.370959957100000111e+02
-3.370926483900000221e+02
-3.370900207500000079e+02
-3.370885100099999931e+02
-3.370885331399999814e+02
-3.370904999900000121e+02
-3.366094370700000127e+02
-3.366261216300000001e+02
-3.366455505399999879e+02
-3.366674641299999848e+02
-3.366916159500000276e+02
-3.367177636700000107e+02
-3.367456672399999889e+02
-3.367750825400000281e+02
-3.368057499600000142e+02
-3.368373867799999744e+02
-3.374737384399999769e+02
-3.374741388900000061e+02
-3.374706316200000060e+02
-3.374634145599999897e+02
-3.374528213699999810e+02
-3.374392923300000007e+02
-3.374233647199999950e+02
-3.374056484399999931e+02
-3.373867948000000183e+02
-3.373674715099999730e+02
-3.374919946200000140e+02
-3.374875134299999786e+02
-3.374778928299999734e+02
-3.374634288699999729e+02
-3.374445799599999987e+02
-3.374219403700000157e+02
-3.373962188900000001e+02
-3.373682039199999849e+02
-3.373387406200000100e+02
-3.373086999899999796e+02
-3.369594841100000053e+02
-3.369669289099999787e+02
-3.369735359800000083e+02
-3.369794418899999755e+02
-3.369849090199999750e+02
-3.369903000099999986e+02
-3.369960488199999986e+02
-3.370026381199999719e+02
-3.370105615699999930e+02
-3.370202962100000263e+02
-3.373770382399999903e+02
-3.373784170100000210e+02
-3.373764784499999791e+02
-3.373714201600000138e+02
-3.373635484199999723e+02
-3.373532681600000274e+02
-3.373410625600000117e+02
-3.373274685000000090e+02
-3.373130483699999900e+02
-3.372983713799999919e+02
-3.371519127299999923e+02
-3.371473132200000009e+02
-3.371381399900000133e+02
-3.371246726100000046e+02
-3.371073659200000066e+02
-3.370868311199999994e+02
-3.370637948599999731e+02
-3.370390716300000236e+02
-3.370135290299999724e+02
-3.369880500500000267e+02
-3.374887439400000062e+02
-3.374843886799999950e+02
-3.374771033299999772e+02
-3.374672156099999825e+02
-3.374551871900000037e+02
-3.374415929900000037e+02
-3.374270947699999965e+02
-3.374124152900000126e+02
-3.373982976099999860e+02
-3.373854832499999929e+02
-3.372999065999999857e+02
-3.373011934300000121e+02
-3.372984363900000062e+02
-3.372917588700000238e+02
-3.372814293700000121e+02
-3.372678367299999991e+02
-3.372514715199999955e+02
-3.372329049499999769e+02
-3.372127500999999938e+02
-3.371916444199999887e+02
-3.368021780799999760e+02
-3.368049269599999889e+02
-3.368039460900000108e+02
-3.367993967599999792e+02
-3.367916273800000226e+02
-3.367811528799999792e+02
-3.367686246499999925e+02
-3.367547954699999764e+02
-3.367404741700000272e+02
-3.367264919099999929e+02
-3.367121386200000188e+02
-3.367034568600000171e+02
-3.366895857200000250e+02
-3.366709369399999900e+02
-3.366481148199999893e+02
-3.366218859499999780e+02
-3.365931360999999811e+02
-3.365628314499999760e+02
-3.365319666400000074e+02
-3.365015379199999757e+02
-3.369963891200000035e+02
-3.369949714800000038e+02
-3.369891728599999965e+02
-3.369791777400000115e+02
-3.369652888699999949e+02
-3.369479085300000065e+02
-3.369275251899999830e+02
-3.369046878999999990e+02
-3.368799780300000180e+02
-3.368539989299999888e+02
-3.376295866400000136e+02
-3.376360961600000223e+02
-3.376384520299999963e+02
-3.376366819099999930e+02
-3.376309477799999854e+02
-3.376215375900000026e+02
-3.376088497100000154e+02
-3.375933673800000179e+02
-3.375756390199999828e+02
-3.375562490099999877e+02
-3.374371438300000250e+02
-3.374412087800000108e+02
-3.374410218699999859e+02
-3.374366204899999957e+02
-3.374282164499999794e+02
-3.374161928600000238e+02
-3.374010865399999943e+02
-3.373835642899999812e+02
-3.373643944199999964e+02
-3.373444089199999780e+02
-3.364659825200000114e+02
-3.364755753300000265e+02
-3.364865732800000160e+02
-3.364990912900000239e+02
-3.365133546399999886e+02
-3.365296588799999995e+02
-3.365483424899999818e+02
-3.365697430800000234e+02
-3.365941545700000006e+02
-3.366217907299999865e+02
-3.376846676299999785e+02
-3.376801957800000196e+02
-3.376709359500000005e+02
-3.376571321200000284e+02
-3.376391597900000079e+02
-3.376175141599999847e+02
-3.375927713400000130e+02
-3.375655840599999920e+02
-3.375366440999999895e+02
-3.375066592900000160e+02
-3.372046515200000272e+02
-3.372016260099999840e+02
-3.371947440700000129e+02
-3.371841940499999737e+02
-3.371702649900000210e+02
-3.371533365199999821e+02
-3.371338594800000124e+02
-3.371123386400000186e+02
-3.370893118500000014e+02
-3.370653307700000028e+02
-3.364470938399999795e+02
-3.364499837100000263e+02
-3.364542991299999812e+02
-3.364600229600000034e+02
-3.364671481799999810e+02
-3.364756716699999970e+02
-3.364855985699999792e+02
-3.364969357100000025e+02
-3.365096897000000240e+02
-3.365238659400000074e+02
-3.374462653499999760e+02
-3.374457200100000023e+02
-3.374415484900000024e+02
-3.374339108699999770e+02
-3.374230676199999834e+02
-3.374093747100000087e+02
-3.373932613599999968e+02
-3.373752128500000254e+02
-3.373557572000000278e+02
-3.373354346599999758e+02
-3.368742218900000012e+02
-3.368686196500000278e+02
-3.368605295899999987e+02
-3.368501792199999727e+02
-3.368378798699999948e+02
-3.368240151800000035e+02
-3.368090248500000143e+02
-3.367933939600000031e+02
-3.367776344200000267e+02
-3.367622764399999937e+02
-3.377491661000000249e+02
-3.377484146599999804e+02
-3.377428929999999809e+02
-3.377328240800000003e+02
-3.377185659200000032e+02
-3.377005943199999933e+02
-3.376794889099999750e+02
-3.376558978300000149e+02
-3.376305207500000165e+02
-3.376040702299999907e+02
-3.372788506100000063e+02
-3.372778633099999865e+02
-3.372746513600000071e+02
-3.372693748199999959e+02
-3.372623014900000271e+02
-3.372537764100000004e+02
-3.372442077700000027e+02
-3.372340402300000051e+02
-3.372237314500000025e+02
-3.372137316299999839e+02
-3.361739777999999887e+02
-3.361822803499999850e+02
-3.361980876999999737e+02
-3.362212353499999722e+02
-3.362514730299999997e+02
-3.362884567099999913e+02
-3.363317355400000110e+02
-3.363807357700000011e+02
-3.364347543700000074e+02
-3.364929614900000274e+02
-3.377439910499999769e+02
-3.377418062500000246e+02
-3.377331568100000254e+02
-3.377183290799999895e+02
-3.376977993699999843e+02
-3.376722000299999991e+02
-3.376422939700000256e+02
-3.376089323200000081e+02
-3.375730235500000163e+02
-3.375354961200000048e+02
-3.369577522800000224e+02
-3.369488994399999910e+02
-3.369373547100000224e+02
-3.369233503199999973e+02
-3.369071981100000244e+02
-3.368892782199999942e+02
-3.368700228000000152e+02
-3.368499075799999787e+02
-3.368294334000000276e+02
-3.368091153899999881e+02
-3.363756894300000226e+02
-3.363795759199999793e+02
-3.363862736400000131e+02
-3.363957522700000027e+02
-3.364079729000000043e+02
-3.364228816799999890e+02
-3.364404151100000036e+02
-3.364604942899999855e+02
-3.364830235599999924e+02
-3.365078938099999846e+02
-3.366093875199999843e+02
-3.366160914800000228e+02
-3.366200324000000137e+02
-3.366212769499999808e+02
-3.366199743099999750e+02
-3.366163543100000197e+02
-3.366107115899999940e+02
-3.366033999499999823e+02
-3.365948098900000218e+02
-3.365853526199999806e+02
-3.376872796700000094e+02
-3.376825916299999903e+02
-3.376737318899999991e+02
-3.376609087200000090e+02
-3.376444421599999828e+02
-3.376247515300000259e+02
-3.376023354700000141e+02
-3.375777528500000244e+02
-3.375516072300000019e+02
-3.375245240300000091e+02
-3.368094322499999862e+02
-3.368074095399999806e+02
-3.368058797499999741e+02
-3.368050171200000023e+02
-3.368050380700000233e+02
-3.368061962799999947e+02
-3.368087474899999734e+02
-3.368129350400000135e+02
-3.368189723400000162e+02
-3.368270218499999942e+02
