4.589999999999999896e-04 8.799999999999999771e-05 -4.081000000000000426e-03 4.580000000000000195e-04 8.500000000000000611e-05 -4.081999999999999691e-03 4.609999999999999840e-04 8.600000000000000331e-05 -4.083999999999999957e-03 4.580000000000000195e-04 8.500000000000000611e-05 -4.081000000000000426e-03 4.600000000000000139e-04 8.299999999999999815e-05 -4.083999999999999957e-03 4.580000000000000195e-04 8.799999999999999771e-05 -4.085000000000000089e-03 4.609999999999999840e-04 8.600000000000000331e-05 -4.080000000000000293e-03 4.600000000000000139e-04 8.700000000000000051e-05 -4.082999999999999824e-03 4.600000000000000139e-04 8.600000000000000331e-05 -4.085000000000000089e-03 1.719400000000000095e-02 -2.020000000000000040e-04 -2.093999999999999941e-03 1.718899999999999942e-02 -2.020000000000000040e-04 -2.093999999999999941e-03 1.719100000000000142e-02 -2.030000000000000012e-04 -2.092000000000000109e-03 1.719000000000000042e-02 -2.039999999999999984e-04 -2.089000000000000145e-03 1.718899999999999942e-02 -2.049999999999999956e-04 -2.095000000000000074e-03 1.719199999999999895e-02 -2.049999999999999956e-04 -2.092999999999999809e-03 1.718799999999999842e-02 -2.049999999999999956e-04 -2.096000000000000207e-03 1.719100000000000142e-02 -2.030000000000000012e-04 -2.092999999999999809e-03 1.718700000000000089e-02 -2.020000000000000040e-04 -2.096000000000000207e-03 -1.720000000000000001e-02 -1.640000000000000019e-04 2.092999999999999809e-03 -1.719800000000000148e-02 -1.669999999999999935e-04 2.092999999999999809e-03 -1.719899999999999901e-02 -1.659999999999999963e-04 2.096000000000000207e-03 -1.720100000000000101e-02 -1.679999999999999907e-04 2.092000000000000109e-03 -1.720100000000000101e-02 -1.669999999999999935e-04 2.093999999999999941e-03 -1.720199999999999854e-02 -1.649999999999999991e-04 2.096999999999999906e-03 -1.719899999999999901e-02 -1.659999999999999963e-04 2.092000000000000109e-03 -1.719899999999999901e-02 -1.659999999999999963e-04 2.095000000000000074e-03 -1.720199999999999854e-02 -1.679999999999999907e-04 2.096999999999999906e-03 -4.659999999999999971e-04 5.300000000000000078e-05 4.096999999999999947e-03 -4.719999999999999803e-04 5.500000000000000196e-05 4.094000000000000417e-03 -4.690000000000000158e-04 4.899999999999999842e-05 4.095999999999999815e-03 -4.710000000000000102e-04 5.399999999999999798e-05 4.093000000000000284e-03 -4.650000000000000270e-04 5.000000000000000240e-05 4.094999999999999682e-03 -4.699999999999999859e-04 5.099999999999999960e-05 4.094999999999999682e-03 -4.710000000000000102e-04 5.000000000000000240e-05 4.095999999999999815e-03 -4.690000000000000158e-04 5.199999999999999680e-05 4.094999999999999682e-03 -4.699999999999999859e-04 4.800000000000000122e-05 4.095999999999999815e-03 -5.119000000000000286e-03 1.000000000000000048e-04 1.191999999999999917e-03 -5.126999999999999613e-03 1.029999999999999964e-04 1.195000000000000099e-03 -5.120000000000000419e-03 9.799999999999999684e-05 1.191000000000000001e-03 -5.126000000000000348e-03 9.899999999999999404e-05 1.195000000000000099e-03 -5.121999999999999817e-03 1.000000000000000048e-04 1.196000000000000014e-03 -5.126999999999999613e-03 9.600000000000000243e-05 1.196000000000000014e-03 -5.131000000000000144e-03 9.699999999999999963e-05 1.195000000000000099e-03 -5.125000000000000215e-03 9.600000000000000243e-05 1.198000000000000063e-03 -5.127999999999999746e-03 9.399999999999999448e-05 1.198999999999999979e-03 5.111000000000000092e-03 1.079999999999999960e-04 -1.175999999999999962e-03 5.107000000000000428e-03 1.110000000000000011e-04 -1.167999999999999984e-03 5.106000000000000295e-03 1.060000000000000016e-04 -1.168999999999999900e-03 5.107999999999999693e-03 1.079999999999999960e-04 -1.175000000000000046e-03 5.105000000000000163e-03 1.060000000000000016e-04 -1.170999999999999949e-03 5.105000000000000163e-03 1.029999999999999964e-04 -1.170999999999999949e-03 5.106000000000000295e-03 1.050000000000000044e-04 -1.170999999999999949e-03 5.107999999999999693e-03 1.079999999999999960e-04 -1.167999999999999984e-03 5.105000000000000163e-03 1.069999999999999988e-04 -1.170999999999999949e-03
1.028300000000000047e-02 -1.404900000000000072e-02 -1.304000000000000038e-03 -3.131300000000000056e-02 2.814000000000000095e-03 6.050999999999999955e-03 -8.302999999999999617e-03 -1.826099999999999945e-02 -4.211899999999999672e-02 -7.820999999999999827e-03 3.002399999999999861e-02 1.614099999999999910e-02 9.910000000000000406e-03 -3.588299999999999823e-02 -7.739999999999999485e-04 4.926999999999999956e-03 -4.964999999999999795e-03 1.227899999999999998e-02 7.669999999999999951e-04 -1.229000000000000058e-03 -3.270599999999999896e-02 8.286999999999999228e-03 7.140999999999999778e-03 1.429300000000000015e-02 -3.358300000000000174e-02 -8.335000000000000395e-03 -5.185000000000000372e-03 1.245899999999999959e-02 1.362299999999999969e-02 -4.976999999999999653e-03 4.401599999999999957e-02 2.701999999999999888e-02 1.345400000000000068e-02 -2.031999999999999952e-03 -1.986200000000000118e-02 2.321900000000000006e-02 3.172900000000000026e-02 -1.609599999999999920e-02 2.295099999999999918e-02 4.357999999999999895e-03 1.381199999999999962e-02 1.307000000000000002e-03 5.936999999999999569e-03 1.824200000000000127e-02 -1.759600000000000053e-02 9.716999999999999943e-03 -4.277000000000000419e-03 -7.952000000000000735e-03 3.097499999999999906e-02 4.686000000000000061e-03 1.165999999999999936e-03 -1.135000000000000071e-02 -3.363900000000000223e-02 -1.221999999999999996e-03 -2.414900000000000033e-02 -7.693000000000000185e-03 -4.605999999999999851e-03 -4.516900000000000082e-02 -2.985600000000000059e-02 6.870000000000000238e-03 1.606000000000000006e-03 -1.343000000000000010e-03 2.329300000000000120e-02 -4.068299999999999694e-02 1.855899999999999911e-02 -1.234200000000000054e-02 2.000000000000000096e-04 -2.760299999999999906e-02 1.755500000000000116e-02 -2.570899999999999921e-02 -9.049999999999999885e-04 1.055599999999999941e-02 -4.566400000000000320e-02 -2.880999999999999880e-03 -3.206699999999999828e-02 -3.527600000000000180e-02 1.393499999999999947e-02 -1.744000000000000064e-02 -2.529100000000000098e-02 -1.960999999999999896e-02 -2.773899999999999977e-02 -4.072699999999999931e-02 1.579999999999999916e-04 1.619800000000000059e-02 -7.766000000000000333e-03 -5.551000000000000378e-03 -7.520999999999999908e-03 -3.417099999999999999e-02 -1.074400000000000008e-02 -2.654300000000000062e-02 1.422000000000000087e-03 -2.599800000000000028e-02 -2.234600000000000128e-02 -3.488999999999999914e-03 1.869699999999999834e-02 -2.815700000000000147e-02 2.700899999999999829e-02 4.301399999999999668e-02 -2.069999999999999792e-03 2.881600000000000134e-02 -1.126899999999999950e-02 3.686899999999999900e-02 4.938999999999999814e-03 1.585599999999999857e-02 -7.186999999999999812e-03 1.128999999999999969e-02 -1.680900000000000102e-02 7.686000000000000124e-03 -2.243399999999999908e-02 6.034500000000000280e-02 1.810700000000000157e-02 1.312199999999999998e-02 3.127599999999999825e-02 3.925100000000000117e-02 6.750000000000000357e-04 -3.797699999999999687e-02 -2.137999999999999970e-02 -2.511000000000000211e-03 -1.343600000000000003e-02 1.912300000000000111e-02 2.777800000000000061e-02 1.559600000000000049e-02 -2.140099999999999988e-02 -3.526000000000000054e-03 4.936999999999999722e-02 -3.991399999999999809e-02 4.471599999999999880e-02 8.196000000000000160e-03 -3.761000000000000020e-03 1.084500000000000047e-02 -2.003100000000000019e-02 2.685299999999999840e-02 2.116900000000000032e-02 7.088999999999999815e-03 4.228300000000000114e-02 5.726900000000000046e-02 -2.133799999999999933e-02 2.707999999999999990e-02 3.857399999999999718e-02 -2.171100000000000113e-02 1.708300000000000096e-02 -1.097500000000000038e-02 2.294699999999999865e-02 -2.605000000000000111e-03 3.782900000000000151e-02 4.870900000000000230e-02 1.759399999999999853e-02 3.348399999999999987e-02 2.151799999999999893e-02 6.850000000000000186e-03 -1.384999999999999946e-03 -9.275200000000000111e-02 -2.321399999999999852e-02 -3.026900000000000077e-02 1.670800000000000063e-02 7.403999999999999991e-03 -4.513500000000000151e-02 3.800000000000000209e-05 -5.955200000000000077e-02 4.635000000000000231e-03 1.464299999999999977e-02 2.256999999999999978e-02
2.007099999999999856e-02 -2.795200000000000115e-02 1.368999999999999991e-03 -6.273800000000000210e-02 5.303000000000000422e-03 1.583400000000000085e-02 -1.713999999999999899e-02 -3.657799999999999940e-02 -8.026899999999999313e-02 -1.584299999999999944e-02 5.961099999999999732e-02 3.602099999999999747e-02 1.947799999999999879e-02 -7.128600000000000214e-02 2.132999999999999913e-03 9.395000000000000573e-03 -9.683000000000000634e-03 2.835899999999999879e-02 1.056999999999999997e-03 -2.589999999999999854e-03 -6.129799999999999832e-02 1.584400000000000044e-02 1.404099999999999966e-02 3.244400000000000062e-02 -6.740899999999999670e-02 -1.700700000000000128e-02 -6.644999999999999865e-03 7.849999999999999339e-03 2.743699999999999958e-02 -7.846000000000000543e-03 7.008699999999999652e-02 5.385199999999999709e-02 2.840600000000000069e-02 -2.098699999999999871e-02 -3.924199999999999910e-02 4.799900000000000000e-02 4.583999999999999880e-02 -3.190899999999999986e-02 4.741900000000000281e-02 -8.236999999999999530e-03 2.768199999999999827e-02 4.588000000000000064e-03 -5.220999999999999946e-03 3.665299999999999808e-02 -3.328799999999999815e-02 2.236000000000000140e-03 -8.384000000000000827e-03 -1.384600000000000067e-02 4.462800000000000100e-02 9.589000000000000301e-03 4.277000000000000419e-03 -4.008199999999999957e-02 -6.682599999999999651e-02 -6.419999999999999925e-04 -3.099299999999999972e-02 -1.506200000000000074e-02 -1.114099999999999986e-02 -7.334999999999999853e-02 -5.940100000000000241e-02 1.220199999999999931e-02 2.051700000000000051e-02 -2.622000000000000199e-03 4.463600000000000206e-02 -6.384499999999999897e-02 3.703000000000000042e-02 -2.652399999999999897e-02 1.786599999999999994e-02 -5.493699999999999972e-02 3.311499999999999860e-02 -3.422900000000000248e-02 -1.649999999999999991e-03 1.909299999999999886e-02 -7.338500000000000578e-02 -5.695999999999999674e-03 -6.543799999999999617e-02 -5.293300000000000088e-02 2.780600000000000085e-02 -3.658800000000000247e-02 -3.333400000000000252e-02 -3.873299999999999660e-02 -5.703799999999999842e-02 -8.077900000000000358e-02 7.600000000000000418e-05 2.878000000000000003e-02 -1.511299999999999970e-02 -1.116299999999999931e-02 -1.907899999999999874e-02 -6.725200000000000622e-02 -2.161700000000000080e-02 -5.646500000000000130e-02 3.383999999999999855e-03 -5.139599999999999724e-02 -4.814199999999999730e-02 -6.462999999999999995e-03 3.709599999999999703e-02 -5.985200000000000242e-02 5.403899999999999676e-02 8.588899999999999313e-02 -7.412000000000000186e-03 5.847900000000000320e-02 -2.289300000000000015e-02 7.003900000000000403e-02 1.032399999999999984e-02 3.150599999999999928e-02 -1.835699999999999832e-02 2.310399999999999954e-02 -3.351599999999999718e-02 1.142899999999999992e-02 -3.979300000000000198e-02 1.201289999999999997e-01 3.483499999999999791e-02 3.119900000000000104e-02 6.207200000000000217e-02 7.677100000000000590e-02 6.460999999999999729e-03 -7.566699999999999815e-02 -4.347499999999999976e-02 2.559999999999999884e-04 -2.665800000000000114e-02 3.704799999999999760e-02 5.999899999999999678e-02 3.081899999999999917e-02 -4.360200000000000187e-02 -1.925999999999999978e-03 9.836100000000000398e-02 -8.099699999999999955e-02 9.394299999999999873e-02 1.616000000000000075e-02 -8.815999999999999184e-03 2.604700000000000071e-02 -3.961800000000000044e-02 5.182599999999999707e-02 4.698100000000000193e-02 1.392400000000000061e-02 8.248300000000000076e-02 1.086540000000000006e-01 -4.220700000000000146e-02 5.511900000000000133e-02 7.168900000000000272e-02 -4.327799999999999703e-02 3.514599999999999669e-02 -2.678799999999999931e-02 4.534300000000000136e-02 -3.867999999999999911e-03 7.023600000000000676e-02 9.644400000000000195e-02 3.604500000000000065e-02 6.183700000000000307e-02 4.286999999999999839e-02 1.440400000000000014e-02 -7.648000000000000284e-03 -1.850610000000000033e-01 -4.485800000000000204e-02 -6.499699999999999922e-02 3.339400000000000007e-02 1.537299999999999951e-02 -9.527599999999999958e-02 3.849999999999999798e-04 -1.175479999999999997e-01 4.329999999999999648e-03 2.908699999999999827e-02 4.611799999999999927e-02
2.982200000000000129e-02 -4.151599999999999735e-02 3.959999999999999978e-03 -9.375799999999999412e-02 7.608000000000000179e-03 2.523900000000000102e-02 -2.618300000000000141e-02 -5.485000000000000292e-02 -1.182819999999999983e-01 -2.348099999999999840e-02 8.877899999999999681e-02 5.560099999999999765e-02 2.920700000000000032e-02 -1.060119999999999951e-01 4.677999999999999867e-03 1.392400000000000061e-02 -1.394899999999999959e-02 4.415100000000000274e-02 1.438999999999999958e-03 -3.919999999999999873e-03 -8.973699999999999732e-02 2.313199999999999978e-02 2.066899999999999987e-02 5.041600000000000248e-02 -1.008819999999999995e-01 -2.592900000000000066e-02 -8.422999999999999932e-03 3.481999999999999852e-03 4.114199999999999802e-02 -1.056600000000000074e-02 9.535799999999999832e-02 8.012900000000000578e-02 4.267599999999999866e-02 -3.953299999999999870e-02 -5.821199999999999986e-02 7.221500000000000141e-02 5.943999999999999978e-02 -4.765699999999999797e-02 7.110400000000000054e-02 -2.046500000000000055e-02 4.139600000000000224e-02 7.609999999999999577e-03 -1.636900000000000160e-02 5.492199999999999860e-02 -4.905700000000000338e-02 -5.192999999999999700e-03 -1.243599999999999914e-02 -1.977900000000000144e-02 5.804800000000000237e-02 1.459200000000000080e-02 7.139999999999999646e-03 -6.902300000000000102e-02 -9.973799999999999333e-02 -2.149999999999999947e-04 -3.761799999999999866e-02 -2.214899999999999855e-02 -1.739999999999999880e-02 -1.016380000000000061e-01 -8.863999999999999657e-02 1.808699999999999891e-02 3.940199999999999952e-02 -4.067999999999999568e-03 6.597500000000000586e-02 -8.669200000000000517e-02 5.524500000000000244e-02 -4.036499999999999810e-02 3.563399999999999901e-02 -8.211699999999999555e-02 4.875399999999999873e-02 -4.260800000000000004e-02 -2.358999999999999986e-03 2.764499999999999943e-02 -1.003529999999999978e-01 -8.637999999999999845e-03 -9.790200000000000291e-02 -7.007800000000000140e-02 4.134199999999999681e-02 -5.518100000000000088e-02 -4.122499999999999776e-02 -5.742200000000000082e-02 -8.564099999999999491e-02 -1.205019999999999980e-01 -2.400000000000000061e-04 4.182400000000000007e-02 -2.256899999999999878e-02 -1.689200000000000076e-02 -3.052799999999999958e-02 -9.956800000000000372e-02 -3.250499999999999917e-02 -8.551899999999999780e-02 5.492999999999999619e-03 -7.603899999999999548e-02 -7.320000000000000118e-02 -9.374999999999999653e-03 5.528399999999999981e-02 -9.083800000000000208e-02 8.063199999999999534e-02 1.284760000000000069e-01 -1.205600000000000074e-02 8.838500000000000523e-02 -3.465499999999999831e-02 1.034039999999999959e-01 1.562900000000000053e-02 4.687500000000000000e-02 -2.948200000000000126e-02 3.494200000000000084e-02 -5.000600000000000184e-02 1.533200000000000014e-02 -5.702700000000000130e-02 1.791200000000000014e-01 5.123899999999999982e-02 4.909299999999999775e-02 9.243800000000000627e-02 1.134799999999999975e-01 1.218299999999999939e-02 -1.127260000000000068e-01 -6.490999999999999548e-02 3.161999999999999880e-03 -3.948600000000000027e-02 5.485700000000000298e-02 9.133600000000000052e-02 4.571599999999999969e-02 -6.525100000000000344e-02 -3.429999999999999889e-04 1.468009999999999871e-01 -1.217049999999999937e-01 1.423210000000000031e-01 2.402200000000000168e-02 -1.397699999999999984e-02 4.050499999999999934e-02 -5.863199999999999662e-02 7.594299999999999662e-02 7.224400000000000266e-02 2.059100000000000166e-02 1.215549999999999964e-01 1.589559999999999862e-01 -6.235099999999999670e-02 8.275100000000000511e-02 1.041649999999999937e-01 -6.459900000000000364e-02 5.287700000000000039e-02 -4.215599999999999903e-02 6.708500000000000574e-02 -4.988000000000000246e-03 1.020670000000000049e-01 1.430939999999999990e-01 5.406600000000000295e-02 9.011600000000000166e-02 6.399000000000000521e-02 2.145800000000000138e-02 -1.361799999999999990e-02 -2.762660000000000116e-01 -6.599399999999999711e-02 -9.881099999999999606e-02 5.013700000000000101e-02 2.268900000000000083e-02 -1.449759999999999938e-01 1.159000000000000091e-03 -1.747950000000000059e-01 4.037999999999999923e-03 4.333000000000000046e-02 6.928900000000000337e-02
3.949199999999999933e-02 -5.460199999999999776e-02 6.467999999999999791e-03 -1.242579999999999935e-01 9.707999999999999616e-03 3.420200000000000323e-02 -3.547000000000000153e-02 -7.298499999999999432e-02 -1.559059999999999890e-01 -3.064199999999999910e-02 1.173789999999999972e-01 7.484100000000000474e-02 3.915600000000000330e-02 -1.398899999999999866e-01 6.892999999999999822e-03 1.853300000000000086e-02 -1.762100000000000125e-02 5.958700000000000108e-02 2.024000000000000191e-03 -5.159999999999999656e-03 -1.178970000000000018e-01 3.011000000000000135e-02 2.696600000000000039e-02 6.819699999999999374e-02 -1.338159999999999905e-01 -3.508200000000000207e-02 -1.046399999999999934e-02 -5.270000000000000162e-04 5.463300000000000101e-02 -1.303499999999999971e-02 1.197140000000000010e-01 1.056850000000000012e-01 5.624799999999999939e-02 -5.750799999999999662e-02 -7.663499999999999479e-02 9.582300000000000539e-02 7.240199999999999414e-02 -6.327800000000000091e-02 9.378699999999999537e-02 -3.219899999999999846e-02 5.489700000000000135e-02 1.031900000000000005e-02 -2.750800000000000120e-02 7.289199999999999846e-02 -6.475499999999999312e-02 -1.249499999999999916e-02 -1.639499999999999985e-02 -2.570300000000000015e-02 7.114499999999999991e-02 1.975400000000000073e-02 9.705000000000000085e-03 -9.808699999999999364e-02 -1.322190000000000032e-01 2.159999999999999919e-04 -4.391799999999999871e-02 -2.880500000000000074e-02 -2.329399999999999873e-02 -1.298559999999999992e-01 -1.173740000000000061e-01 2.447300000000000170e-02 5.816500000000000142e-02 -5.738000000000000045e-03 8.713600000000000512e-02 -1.091779999999999973e-01 7.311800000000000244e-02 -5.376800000000000329e-02 5.336300000000000071e-02 -1.090099999999999958e-01 6.433300000000000129e-02 -5.073600000000000332e-02 -3.001999999999999894e-03 3.615499999999999964e-02 -1.264669999999999961e-01 -1.172699999999999958e-02 -1.293040000000000023e-01 -8.659799999999999442e-02 5.450800000000000090e-02 -7.310300000000000131e-02 -4.889799999999999702e-02 -7.558399999999999841e-02 -1.133799999999999947e-01 -1.596650000000000014e-01 -8.050000000000000515e-04 5.532000000000000112e-02 -3.016500000000000084e-02 -2.275200000000000139e-02 -4.183599999999999819e-02 -1.309150000000000036e-01 -4.333800000000000152e-02 -1.135479999999999962e-01 7.753999999999999608e-03 -9.978599999999999970e-02 -9.736499999999999322e-02 -1.220100000000000004e-02 7.320400000000000518e-02 -1.209559999999999941e-01 1.067349999999999965e-01 1.704749999999999877e-01 -1.611900000000000138e-02 1.183160000000000045e-01 -4.641100000000000086e-02 1.367210000000000092e-01 2.082300000000000123e-02 6.183099999999999707e-02 -4.057100000000000289e-02 4.673499999999999877e-02 -6.616199999999999859e-02 1.937600000000000086e-02 -7.399500000000000521e-02 2.368589999999999862e-01 6.713199999999999723e-02 6.671000000000000540e-02 1.221929999999999961e-01 1.490460000000000118e-01 1.777000000000000107e-02 -1.488700000000000023e-01 -8.550499999999999767e-02 6.164000000000000208e-03 -5.183299999999999713e-02 7.237399999999999389e-02 1.215480000000000033e-01 6.017800000000000232e-02 -8.617700000000000360e-02 1.201000000000000028e-03 1.943080000000000085e-01 -1.616440000000000099e-01 1.894909999999999928e-01 3.169600000000000195e-02 -1.924199999999999869e-02 5.414299999999999669e-02 -7.695399999999999463e-02 9.900399999999999479e-02 9.679799999999999516e-02 2.704700000000000160e-02 1.591950000000000032e-01 2.077690000000000092e-01 -8.162600000000000411e-02 1.096860000000000057e-01 1.357029999999999903e-01 -8.556900000000000617e-02 7.009700000000000653e-02 -5.692300000000000137e-02 8.798999999999999877e-02 -5.989999999999999665e-03 1.330679999999999918e-01 1.883229999999999904e-01 7.152699999999999336e-02 1.181429999999999980e-01 8.472100000000000464e-02 2.797399999999999887e-02 -1.926999999999999894e-02 -3.656300000000000106e-01 -8.648000000000000131e-02 -1.314120000000000010e-01 6.682899999999999952e-02 2.930299999999999919e-02 -1.938130000000000130e-01 2.341999999999999898e-03 -2.308119999999999894e-01 3.697999999999999898e-03 5.727299999999999752e-02 9.186600000000000321e-02
4.904200000000000226e-02 -6.707299999999999374e-02 8.914999999999999314e-03 -1.541399999999999992e-01 1.158200000000000028e-02 4.265499999999999847e-02 -4.505200000000000177e-02 -9.090499999999999969e-02 -1.928989999999999871e-01 -3.724299999999999833e-02 1.452819999999999945e-01 9.373499999999999888e-02 4.938200000000000228e-02 -1.727839999999999931e-01 8.817999999999999450e-03 2.324700000000000030e-02 -2.056900000000000048e-02 7.459699999999999664e-02 2.919999999999999853e-03 -6.237000000000000356e-03 -1.456119999999999914e-01 3.674899999999999695e-02 3.286100000000000132e-02 8.578500000000000014e-02 -1.660500000000000032e-01 -4.444800000000000140e-02 -1.270899999999999981e-02 -4.066000000000000170e-03 6.779899999999999816e-02 -1.514899999999999927e-02 1.430579999999999907e-01 1.303779999999999939e-01 6.912300000000000388e-02 -7.476700000000000013e-02 -9.439599999999999380e-02 1.188130000000000019e-01 8.462999999999999690e-02 -7.871300000000000519e-02 1.152770000000000045e-01 -4.332500000000000240e-02 6.814099999999999324e-02 1.265800000000000085e-02 -3.864900000000000280e-02 9.039899999999999325e-02 -8.022700000000000664e-02 -1.960399999999999990e-02 -2.021500000000000033e-02 -3.157100000000000184e-02 8.383300000000000474e-02 2.513400000000000009e-02 1.192799999999999937e-02 -1.271819999999999895e-01 -1.641189999999999871e-01 8.149999999999999693e-04 -4.978899999999999992e-02 -3.488299999999999734e-02 -2.875399999999999831e-02 -1.578209999999999891e-01 -1.454270000000000007e-01 3.130399999999999849e-02 7.669800000000000229e-02 -7.687000000000000256e-03 1.079600000000000004e-01 -1.312649999999999928e-01 9.059000000000000385e-02 -6.667299999999999616e-02 7.090599999999999681e-02 -1.355000000000000093e-01 7.971899999999999820e-02 -5.849100000000000132e-02 -3.530999999999999851e-03 4.456500000000000045e-02 -1.516609999999999903e-01 -1.497799999999999999e-02 -1.595360000000000111e-01 -1.023990000000000039e-01 6.725299999999999334e-02 -9.024699999999999389e-02 -5.628500000000000170e-02 -9.314000000000000057e-02 -1.401070000000000093e-01 -1.980480000000000018e-01 -1.639999999999999965e-03 6.923999999999999599e-02 -3.793500000000000344e-02 -2.875700000000000131e-02 -5.297199999999999825e-02 -1.611180000000000112e-01 -5.404500000000000276e-02 -1.404390000000000083e-01 1.017900000000000055e-02 -1.225090000000000068e-01 -1.205190000000000011e-01 -1.492199999999999950e-02 9.081699999999999495e-02 -1.500660000000000049e-01 1.323030000000000039e-01 2.115819999999999923e-01 -1.973799999999999860e-02 1.480410000000000059e-01 -5.801800000000000013e-02 1.697529999999999872e-01 2.588000000000000023e-02 7.624799999999999633e-02 -5.163800000000000334e-02 5.842599999999999877e-02 -8.187899999999999345e-02 2.354300000000000143e-02 -9.054600000000000148e-02 2.929200000000000137e-01 8.232899999999999940e-02 8.395900000000000585e-02 1.511589999999999878e-01 1.831480000000000052e-01 2.314599999999999991e-02 -1.838519999999999877e-01 -1.051050000000000040e-01 9.221000000000000030e-03 -6.360499999999999488e-02 8.942500000000000449e-02 1.504119999999999902e-01 7.410899999999999432e-02 -1.062329999999999941e-01 2.684999999999999887e-03 2.404969999999999886e-01 -2.004190000000000138e-01 2.351199999999999957e-01 3.912299999999999806e-02 -2.461100000000000093e-02 6.690000000000000113e-02 -9.449699999999999767e-02 1.208100000000000007e-01 1.205080000000000040e-01 3.324300000000000171e-02 1.951229999999999909e-01 2.547200000000000020e-01 -9.989800000000000069e-02 1.356569999999999998e-01 1.660230000000000039e-01 -1.060930000000000067e-01 8.665499999999999592e-02 -7.093299999999999605e-02 1.078979999999999939e-01 -6.886999999999999893e-03 1.629869999999999930e-01 2.318199999999999983e-01 8.832500000000000073e-02 1.457469999999999877e-01 1.048999999999999932e-01 3.395100000000000201e-02 -2.458700000000000122e-02 -4.524219999999999908e-01 -1.061659999999999965e-01 -1.625250000000000028e-01 8.335900000000000254e-02 3.519499999999999712e-02 -2.413829999999999865e-01 3.911999999999999679e-03 -2.851060000000000261e-01 3.255000000000000081e-03 7.080699999999999494e-02 1.136599999999999971e-01
5.842900000000000177e-02 -7.880700000000000205e-02 1.132000000000000020e-02 -1.833249999999999880e-01 1.321800000000000058e-02 5.054299999999999765e-02 -5.498000000000000109e-02 -1.085330000000000045e-01 -2.290169999999999983e-01 -4.320000000000000229e-02 1.723880000000000134e-01 1.122760000000000008e-01 5.994599999999999929e-02 -2.045659999999999978e-01 1.049300000000000059e-02 2.809800000000000145e-02 -2.267900000000000124e-02 8.912200000000000677e-02 4.237999999999999580e-03 -7.079000000000000223e-03 -1.727360000000000007e-01 4.301399999999999668e-02 3.828499999999999959e-02 1.031880000000000019e-01 -1.974319999999999964e-01 -5.399899999999999839e-02 -1.509600000000000004e-02 -7.029999999999999791e-03 8.054500000000000548e-02 -1.681099999999999955e-02 1.653119999999999867e-01 1.540759999999999907e-01 8.132100000000000439e-02 -9.116900000000000004e-02 -1.113859999999999989e-01 1.412039999999999962e-01 9.603299999999999337e-02 -9.391499999999999848e-02 1.354090000000000016e-01 -5.372899999999999898e-02 8.108500000000000429e-02 1.458100000000000021e-02 -4.980600000000000305e-02 1.072980000000000045e-01 -9.532100000000000295e-02 -2.645499999999999935e-02 -2.385299999999999920e-02 -3.734099999999999919e-02 9.602800000000000225e-02 3.080000000000000099e-02 1.377800000000000032e-02 -1.562179999999999958e-01 -1.953209999999999946e-01 1.742999999999999975e-03 -5.513599999999999751e-02 -4.025000000000000105e-02 -3.372100000000000097e-02 -1.853640000000000010e-01 -1.726409999999999889e-01 3.850300000000000250e-02 9.489799999999999625e-02 -9.964999999999999900e-03 1.282870000000000121e-01 -1.529260000000000064e-01 1.076219999999999954e-01 -7.901700000000000390e-02 8.812499999999999500e-02 -1.614700000000000024e-01 9.478599999999999526e-02 -6.575999999999999901e-02 -3.911999999999999679e-03 5.283199999999999702e-02 -1.758850000000000136e-01 -1.838700000000000057e-02 -1.885209999999999941e-01 -1.174130000000000035e-01 7.952599999999999947e-02 -1.065330000000000027e-01 -6.331499999999999628e-02 -1.100190000000000057e-01 -1.657009999999999872e-01 -2.354449999999999876e-01 -2.752000000000000106e-03 8.356199999999999739e-02 -4.591699999999999948e-02 -3.493000000000000271e-02 -6.390500000000000347e-02 -1.900179999999999925e-01 -6.454999999999999627e-02 -1.661030000000000006e-01 1.277499999999999990e-02 -1.441159999999999941e-01 -1.425690000000000013e-01 -1.751399999999999832e-02 1.080890000000000045e-01 -1.780470000000000108e-01 1.573009999999999964e-01 2.515129999999999866e-01 -2.306300000000000017e-02 1.773289999999999866e-01 -6.932499999999999774e-02 2.022529999999999883e-01 3.077200000000000074e-02 9.001900000000000179e-02 -6.271100000000000285e-02 6.995899999999999341e-02 -9.706499999999999850e-02 2.781199999999999992e-02 -1.065470000000000028e-01 3.468979999999999841e-01 9.665300000000000280e-02 1.007500000000000062e-01 1.791790000000000049e-01 2.154870000000000119e-01 2.824399999999999827e-02 -2.174329999999999874e-01 -1.235689999999999983e-01 1.229399999999999937e-02 -7.472399999999999876e-02 1.058449999999999946e-01 1.777310000000000001e-01 8.741200000000000359e-02 -1.252830000000000055e-01 4.085000000000000089e-03 2.850150000000000183e-01 -2.376500000000000001e-01 2.789139999999999953e-01 4.624199999999999838e-02 -3.008800000000000016e-02 7.874100000000000543e-02 -1.111690000000000039e-01 1.411890000000000089e-01 1.432569999999999955e-01 3.914200000000000318e-02 2.290830000000000088e-01 2.994709999999999872e-01 -1.170650000000000024e-01 1.604200000000000070e-01 1.948610000000000064e-01 -1.260769999999999946e-01 1.024090000000000000e-01 -8.405300000000000271e-02 1.266559999999999908e-01 -7.695999999999999716e-03 1.915890000000000093e-01 2.733119999999999994e-01 1.043660000000000004e-01 1.727650000000000019e-01 1.243709999999999954e-01 3.938500000000000334e-02 -2.956900000000000153e-02 -5.359469999999999512e-01 -1.249170000000000003e-01 -1.919019999999999893e-01 9.962600000000000622e-02 4.035799999999999804e-02 -2.872930000000000206e-01 5.832999999999999644e-03 -3.371990000000000265e-01 2.654000000000000109e-03 8.383500000000000674e-02 1.344889999999999974e-01