0.000000000000000000e+00 2.032270000000000021e+00 9.439880000000000493e+00 -1.760000000000000009e+00 5.080680000000000085e+00 9.439880000000000493e+00 -3.520000000000000018e+00 8.129089999999999705e+00 9.439880000000000493e+00 3.520000000000000018e+00 2.032270000000000021e+00 9.439880000000000493e+00 1.760000000000000009e+00 5.080680000000000085e+00 9.439880000000000493e+00 0.000000000000000000e+00 8.129089999999999705e+00 9.439880000000000493e+00 7.040000000000000036e+00 2.032270000000000021e+00 9.439880000000000493e+00 5.280000000000000249e+00 5.080680000000000085e+00 9.439880000000000493e+00 3.520000000000000018e+00 8.129089999999999705e+00 9.439880000000000493e+00 0.000000000000000000e+00 8.129100000000000215e-01 1.693965999999999994e+01 -1.760000000000000009e+00 3.861320000000000086e+00 1.693965999999999994e+01 -3.520000000000000018e+00 6.909729999999999706e+00 1.693965999999999994e+01 3.520000000000000018e+00 8.129100000000000215e-01 1.693965999999999994e+01 1.760000000000000009e+00 3.861320000000000086e+00 1.693965999999999994e+01 0.000000000000000000e+00 6.909729999999999706e+00 1.693965999999999994e+01 7.040000000000000036e+00 8.129100000000000215e-01 1.693965999999999994e+01 5.280000000000000249e+00 3.861320000000000086e+00 1.693965999999999994e+01 3.520000000000000018e+00 6.909729999999999706e+00 1.693965999999999994e+01 0.000000000000000000e+00 2.032270000000000021e+00 1.306049999999999933e+01 -1.760000000000000009e+00 5.080680000000000085e+00 1.306049999999999933e+01 -3.520000000000000018e+00 8.129089999999999705e+00 1.306049999999999933e+01 3.520000000000000018e+00 2.032270000000000021e+00 1.306049999999999933e+01 1.760000000000000009e+00 5.080680000000000085e+00 1.306049999999999933e+01 0.000000000000000000e+00 8.129089999999999705e+00 1.306049999999999933e+01 7.040000000000000036e+00 2.032270000000000021e+00 1.306049999999999933e+01 5.280000000000000249e+00 5.080680000000000085e+00 1.306049999999999933e+01 3.520000000000000018e+00 8.129089999999999705e+00 1.306049999999999933e+01 0.000000000000000000e+00 8.129100000000000215e-01 2.056024000000000029e+01 -1.760000000000000009e+00 3.861320000000000086e+00 2.056024000000000029e+01 -3.520000000000000018e+00 6.909729999999999706e+00 2.056024000000000029e+01 3.520000000000000018e+00 8.129100000000000215e-01 2.056024000000000029e+01 1.760000000000000009e+00 3.861320000000000086e+00 2.056024000000000029e+01 0.000000000000000000e+00 6.909729999999999706e+00 2.056024000000000029e+01 7.040000000000000036e+00 8.129100000000000215e-01 2.056024000000000029e+01 5.280000000000000249e+00 3.861320000000000086e+00 2.056024000000000029e+01 3.520000000000000018e+00 6.909729999999999706e+00 2.056024000000000029e+01 0.000000000000000000e+00 0.000000000000000000e+00 1.124966000000000044e+01 -1.760000000000000009e+00 3.048410000000000064e+00 1.124966000000000044e+01 -3.520000000000000018e+00 6.096820000000000128e+00 1.124966000000000044e+01 3.520000000000000018e+00 0.000000000000000000e+00 1.124966000000000044e+01 1.760000000000000009e+00 3.048410000000000064e+00 1.124966000000000044e+01 0.000000000000000000e+00 6.096820000000000128e+00 1.124966000000000044e+01 7.040000000000000036e+00 0.000000000000000000e+00 1.124966000000000044e+01 5.280000000000000249e+00 3.048410000000000064e+00 1.124966000000000044e+01 3.520000000000000018e+00 6.096820000000000128e+00 1.124966000000000044e+01 1.760000000000000009e+00 1.829050000000000065e+00 1.875009000000000015e+01 0.000000000000000000e+00 4.877460000000000129e+00 1.875009000000000015e+01 -1.760000000000000009e+00 7.925860000000000127e+00 1.875009000000000015e+01 5.280000000000000249e+00 1.829050000000000065e+00 1.875009000000000015e+01 3.520000000000000018e+00 4.877460000000000129e+00 1.875009000000000015e+01 1.760000000000000009e+00 7.925860000000000127e+00 1.875009000000000015e+01 8.800000000000000711e+00 1.829050000000000065e+00 1.875009000000000015e+01 7.040000000000000036e+00 4.877460000000000129e+00 1.875009000000000015e+01 5.280000000000000249e+00 7.925860000000000127e+00 1.875009000000000015e+01
-4.740000000000000289e-03 2.033119999999999816e+00 9.441179999999999239e+00 -1.758559999999999901e+00 5.081470000000000375e+00 9.438169999999999504e+00 -3.521199999999999886e+00 8.132199999999999207e+00 9.438800000000000523e+00 3.519660000000000011e+00 2.034510000000000041e+00 9.438860000000000028e+00 1.757710000000000106e+00 5.081900000000000084e+00 9.437889999999999446e+00 -1.600000000000000077e-03 8.126279999999999504e+00 9.439189999999999969e+00 7.040009999999999657e+00 2.031489999999999796e+00 9.439399999999999125e+00 5.279639999999999667e+00 5.078409999999999869e+00 9.437079999999999913e+00 3.517570000000000086e+00 8.130689999999999529e+00 9.442159999999999442e+00 3.400000000000000244e-04 8.139600000000000168e-01 1.693784000000000134e+01 -1.758310000000000040e+00 3.861730000000000107e+00 1.693649999999999878e+01 -3.517500000000000071e+00 6.910479999999999734e+00 1.693716999999999828e+01 3.520070000000000032e+00 8.158300000000000551e-01 1.693880000000000052e+01 1.762170000000000014e+00 3.858900000000000219e+00 1.693965000000000032e+01 -6.000000000000000152e-05 6.910639999999999894e+00 1.693859000000000137e+01 7.042069999999999830e+00 8.138499999999999623e-01 1.694544000000000139e+01 5.279849999999999710e+00 3.861650000000000027e+00 1.694121000000000166e+01 3.522009999999999863e+00 6.907110000000000305e+00 1.693941999999999837e+01 1.399999999999999986e-03 2.032290000000000152e+00 1.306108000000000047e+01 -1.760809999999999986e+00 5.079189999999999650e+00 1.305949999999999989e+01 -3.520509999999999806e+00 8.127800000000000580e+00 1.305946999999999925e+01 3.516779999999999795e+00 2.031660000000000021e+00 1.306085999999999991e+01 1.759030000000000094e+00 5.082069999999999865e+00 1.306259999999999977e+01 9.200000000000000278e-04 8.127209999999999823e+00 1.306235999999999997e+01 7.041400000000000325e+00 2.033749999999999947e+00 1.305814999999999948e+01 5.281220000000000248e+00 5.079880000000000173e+00 1.306274999999999942e+01 3.518380000000000063e+00 8.130000000000000782e+00 1.306056000000000061e+01 1.299999999999999940e-03 8.150699999999999612e-01 2.056032000000000082e+01 -1.759989999999999943e+00 3.863239999999999785e+00 2.055874999999999986e+01 -3.521170000000000133e+00 6.909139999999999837e+00 2.056023000000000067e+01 3.518510000000000026e+00 8.126200000000000090e-01 2.055837999999999965e+01 1.759819999999999940e+00 3.860149999999999970e+00 2.056064999999999898e+01 -1.250000000000000026e-03 6.910809999999999675e+00 2.055901000000000067e+01 7.039839999999999876e+00 8.134799999999999809e-01 2.056162000000000134e+01 5.280249999999999666e+00 3.861979999999999968e+00 2.055868999999999858e+01 3.522009999999999863e+00 6.908750000000000391e+00 2.056093999999999866e+01 -5.277590000000000003e+00 9.144109999999999516e+00 1.124868999999999986e+01 -1.757460000000000022e+00 3.050739999999999785e+00 1.125216999999999956e+01 7.037420000000000009e+00 6.095570000000000377e+00 1.124796000000000085e+01 -1.760110000000000063e+00 9.142839999999999634e+00 1.124981999999999971e+01 1.760089999999999932e+00 3.045720000000000205e+00 1.125032000000000032e+01 -1.860000000000000108e-03 6.096700000000000230e+00 1.124957000000000029e+01 7.037149999999999572e+00 6.400000000000000524e-04 1.125043999999999933e+01 5.280389999999999695e+00 3.045300000000000118e+00 1.125008000000000052e+01 3.520509999999999806e+00 6.096400000000000041e+00 1.124756000000000000e+01 1.760059999999999958e+00 1.830920000000000103e+00 1.874955999999999889e+01 3.899999999999999929e-04 4.877749999999999808e+00 1.875156000000000134e+01 -1.758359999999999923e+00 7.925790000000000113e+00 1.875108000000000175e+01 5.281710000000000349e+00 1.831139999999999990e+00 1.875336000000000070e+01 3.520700000000000163e+00 4.874380000000000379e+00 1.875251000000000090e+01 1.758690000000000087e+00 7.927249999999999908e+00 1.875289000000000073e+01 8.803060000000000329e+00 1.828959999999999919e+00 1.875078999999999851e+01 7.039439999999999920e+00 4.876570000000000071e+00 1.875230000000000175e+01 5.280750000000000277e+00 7.922760000000000247e+00 1.874952000000000041e+01
-9.459999999999999659e-03 2.033959999999999990e+00 9.442470000000000141e+00 -1.757130000000000081e+00 5.082259999999999778e+00 9.436450000000000671e+00 -3.522390000000000132e+00 8.135289999999999466e+00 9.437720000000000553e+00 3.519320000000000004e+00 2.036739999999999995e+00 9.437839999999999563e+00 1.755430000000000046e+00 5.083120000000000083e+00 9.435909999999999798e+00 -3.210000000000000180e-03 8.123480000000000700e+00 9.438499999999999446e+00 7.040020000000000167e+00 2.030710000000000015e+00 9.438909999999999911e+00 5.279270000000000351e+00 5.076139999999999652e+00 9.434290000000000731e+00 3.515140000000000153e+00 8.132289999999999353e+00 9.444430000000000547e+00 6.800000000000000488e-04 8.149899999999999922e-01 1.693601999999999919e+01 -1.756620000000000070e+00 3.862140000000000128e+00 1.693335000000000079e+01 -3.514990000000000059e+00 6.911209999999999631e+00 1.693468999999999980e+01 3.520140000000000047e+00 8.187400000000000233e-01 1.693794000000000111e+01 1.764340000000000019e+00 3.856479999999999908e+00 1.693964000000000070e+01 -1.200000000000000030e-04 6.911529999999999951e+00 1.693752999999999886e+01 7.044130000000000003e+00 8.147900000000000142e-01 1.695120999999999967e+01 5.279700000000000060e+00 3.861959999999999837e+00 1.694275000000000020e+01 3.524000000000000021e+00 6.904490000000000016e+00 1.693918999999999997e+01 2.799999999999999972e-03 2.032309999999999839e+00 1.306165999999999983e+01 -1.761619999999999964e+00 5.077729999999999855e+00 1.305851000000000006e+01 -3.521020000000000039e+00 8.126509999999999678e+00 1.305845000000000056e+01 3.513580000000000148e+00 2.031060000000000088e+00 1.306123000000000012e+01 1.758070000000000022e+00 5.083470000000000155e+00 1.306467999999999918e+01 1.830000000000000029e-03 8.125349999999999184e+00 1.306423000000000023e+01 7.042799999999999727e+00 2.035250000000000004e+00 1.305582000000000065e+01 5.282429999999999737e+00 5.079080000000000261e+00 1.306499999999999950e+01 3.516760000000000108e+00 8.130910000000000082e+00 1.306062000000000012e+01 2.589999999999999854e-03 8.172199999999999465e-01 2.056040000000000134e+01 -1.759980000000000100e+00 3.865149999999999864e+00 2.055726999999999904e+01 -3.522330000000000183e+00 6.908540000000000347e+00 2.056022000000000105e+01 3.517020000000000035e+00 8.123299999999999965e-01 2.055651999999999902e+01 1.759640000000000093e+00 3.858989999999999920e+00 2.056106000000000122e+01 -2.500000000000000052e-03 6.911900000000000155e+00 2.055780000000000030e+01 7.039690000000000225e+00 8.140600000000000058e-01 2.056300999999999846e+01 5.280499999999999972e+00 3.862639999999999851e+00 2.055716999999999928e+01 3.524020000000000152e+00 6.907779999999999809e+00 2.056163000000000096e+01 -5.275199999999999889e+00 9.143000000000000682e+00 1.124773000000000067e+01 -1.754939999999999944e+00 3.053069999999999951e+00 1.125465999999999944e+01 7.034839999999999982e+00 6.094330000000000247e+00 1.124625999999999948e+01 -1.760210000000000052e+00 9.140459999999999141e+00 1.124998000000000076e+01 1.760159999999999947e+00 3.043070000000000164e+00 1.125097000000000058e+01 -3.710000000000000190e-03 6.096580000000000332e+00 1.124948000000000015e+01 7.034309999999999619e+00 1.280000000000000105e-03 1.125122000000000000e+01 5.280770000000000408e+00 3.042209999999999859e+00 1.125050000000000061e+01 3.521020000000000039e+00 6.095979999999999954e+00 1.124548000000000059e+01 1.760119999999999907e+00 1.832770000000000010e+00 1.874903000000000119e+01 7.799999999999999859e-04 4.878029999999999866e+00 1.875300999999999974e+01 -1.756739999999999968e+00 7.925709999999999589e+00 1.875205000000000055e+01 5.283400000000000318e+00 1.833220000000000072e+00 1.875659999999999883e+01 3.521399999999999864e+00 4.871310000000000251e+00 1.875490999999999886e+01 1.757390000000000008e+00 7.928609999999999935e+00 1.875568000000000168e+01 8.806119999999999948e+00 1.828880000000000061e+00 1.875149000000000044e+01 7.038890000000000313e+00 4.875680000000000014e+00 1.875448000000000093e+01 5.281500000000000306e+00 7.919669999999999987e+00 1.874894000000000105e+01
-1.416000000000000071e-02 2.034790000000000099e+00 9.443749999999999645e+00 -1.755719999999999947e+00 5.083039999999999559e+00 9.434739999999999682e+00 -3.523569999999999869e+00 8.138370000000000104e+00 9.436629999999999185e+00 3.518979999999999997e+00 2.038949999999999818e+00 9.436830000000000496e+00 1.753160000000000052e+00 5.084319999999999951e+00 9.433939999999999770e+00 -4.810000000000000039e-03 8.120689999999999742e+00 9.437810000000000699e+00 7.040040000000000298e+00 2.029939999999999856e+00 9.438439999999999941e+00 5.278909999999999769e+00 5.073859999999999815e+00 9.431499999999999773e+00 3.512729999999999908e+00 8.133879999999999555e+00 9.446680000000000632e+00 1.020000000000000073e-03 8.159899999999999931e-01 1.693421999999999983e+01 -1.754939999999999944e+00 3.862530000000000019e+00 1.693021999999999849e+01 -3.512490000000000112e+00 6.911920000000000286e+00 1.693222000000000094e+01 3.520220000000000127e+00 8.216299999999999715e-01 1.693710000000000093e+01 1.766499999999999959e+00 3.854070000000000107e+00 1.693963000000000108e+01 -1.600000000000000131e-04 6.912410000000000387e+00 1.693646999999999991e+01 7.046190000000000175e+00 8.157100000000000461e-01 1.695694999999999908e+01 5.279560000000000031e+00 3.862260000000000026e+00 1.694427999999999912e+01 3.525980000000000114e+00 6.901860000000000106e+00 1.693897000000000119e+01 4.199999999999999740e-03 2.032329999999999970e+00 1.306223999999999918e+01 -1.762440000000000007e+00 5.076290000000000191e+00 1.305752999999999986e+01 -3.521520000000000206e+00 8.125230000000000175e+00 1.305743000000000009e+01 3.510390000000000121e+00 2.030460000000000154e+00 1.306159000000000070e+01 1.757109999999999950e+00 5.084869999999999557e+00 1.306673999999999936e+01 2.729999999999999788e-03 8.123499999999999943e+00 1.306609000000000087e+01 7.044200000000000017e+00 2.036739999999999995e+00 1.305350999999999928e+01 5.283619999999999983e+00 5.078299999999999592e+00 1.306722000000000072e+01 3.515159999999999840e+00 8.131830000000000780e+00 1.306067000000000000e+01 3.889999999999999795e-03 8.193500000000000227e-01 2.056046999999999869e+01 -1.759970000000000034e+00 3.867059999999999942e+00 2.055581000000000103e+01 -3.523480000000000167e+00 6.907960000000000100e+00 2.056021000000000143e+01 3.515540000000000109e+00 8.120500000000000496e-01 2.055468000000000117e+01 1.759460000000000024e+00 3.857839999999999936e+00 2.056147999999999954e+01 -3.749999999999999861e-03 6.912969999999999615e+00 2.055660999999999916e+01 7.039550000000000196e+00 8.146400000000000308e-01 2.056440999999999875e+01 5.280750000000000277e+00 3.863290000000000113e+00 2.055567999999999884e+01 3.526009999999999867e+00 6.906799999999999606e+00 2.056232999999999933e+01 -5.272859999999999658e+00 9.141920000000000712e+00 1.124680000000000035e+01 -1.752439999999999998e+00 3.055369999999999919e+00 1.125709999999999944e+01 7.032289999999999708e+00 6.093099999999999739e+00 1.124455999999999989e+01 -1.760310000000000041e+00 9.138120000000000687e+00 1.125014000000000003e+01 1.760229999999999961e+00 3.040470000000000006e+00 1.125159000000000020e+01 -5.539999999999999786e-03 6.096470000000000056e+00 1.124939999999999962e+01 7.031480000000000175e+00 1.910000000000000022e-03 1.125198999999999927e+01 5.281130000000000102e+00 3.039169999999999927e+00 1.125090999999999930e+01 3.521529999999999827e+00 6.095550000000000246e+00 1.124343000000000004e+01 1.760170000000000012e+00 1.834589999999999943e+00 1.874849999999999994e+01 1.190000000000000085e-03 4.878320000000000434e+00 1.875441000000000003e+01 -1.755149999999999988e+00 7.925629999999999953e+00 1.875298000000000087e+01 5.285079999999999778e+00 1.835280000000000022e+00 1.875979999999999848e+01 3.522079999999999878e+00 4.868269999999999875e+00 1.875726999999999833e+01 1.756129999999999969e+00 7.929929999999999701e+00 1.875843000000000060e+01 8.809150000000000702e+00 1.828799999999999981e+00 1.875218999999999880e+01 7.038369999999999571e+00 4.874810000000000088e+00 1.875658999999999921e+01 5.282269999999999577e+00 7.916629999999999612e+00 1.874836000000000169e+01
-1.882999999999999952e-02 2.035620000000000207e+00 9.445019999999999527e+00 -1.754329999999999945e+00 5.083820000000000228e+00 9.433030000000000470e+00 -3.524739999999999984e+00 8.141410000000000480e+00 9.435529999999999973e+00 3.518639999999999990e+00 2.041119999999999823e+00 9.435819999999999652e+00 1.750899999999999901e+00 5.085499999999999687e+00 9.431990000000000762e+00 -6.400000000000000307e-03 8.117919999999999803e+00 9.437120000000000175e+00 7.040070000000000050e+00 2.029180000000000206e+00 9.437979999999999592e+00 5.278529999999999944e+00 5.071579999999999977e+00 9.428729999999999833e+00 3.510320000000000107e+00 8.135460000000000136e+00 9.448919999999999320e+00 1.369999999999999907e-03 8.169600000000000195e-01 1.693243000000000009e+01 -1.753270000000000106e+00 3.862909999999999844e+00 1.692714000000000141e+01 -3.509999999999999787e+00 6.912600000000000300e+00 1.692978000000000094e+01 3.520329999999999959e+00 8.244899999999999451e-01 1.693628000000000000e+01 1.768639999999999990e+00 3.851679999999999993e+00 1.693960999999999828e+01 -1.900000000000000105e-04 6.913280000000000314e+00 1.693543999999999983e+01 7.048230000000000217e+00 8.166200000000000125e-01 1.696265999999999963e+01 5.279429999999999623e+00 3.862540000000000084e+00 1.694579999999999842e+01 3.527930000000000010e+00 6.899219999999999686e+00 1.693878000000000128e+01 5.599999999999999943e-03 2.032350000000000101e+00 1.306283999999999956e+01 -1.763269999999999893e+00 5.074900000000000411e+00 1.305655999999999928e+01 -3.522019999999999929e+00 8.123950000000000671e+00 1.305641999999999925e+01 3.507229999999999848e+00 2.029860000000000220e+00 1.306195999999999913e+01 1.756170000000000009e+00 5.086269999999999847e+00 1.306877000000000066e+01 3.619999999999999954e-03 8.121679999999999566e+00 1.306794999999999973e+01 7.045589999999999797e+00 2.038240000000000052e+00 1.305123000000000033e+01 5.284799999999999720e+00 5.077519999999999811e+00 1.306941999999999915e+01 3.513570000000000082e+00 8.132759999999999323e+00 1.306071000000000026e+01 5.190000000000000169e-03 8.214500000000000135e-01 2.056054999999999922e+01 -1.759959999999999969e+00 3.868949999999999889e+00 2.055437999999999832e+01 -3.524620000000000086e+00 6.907379999999999853e+00 2.056022000000000105e+01 3.514069999999999805e+00 8.117699999999999916e-01 2.055285999999999902e+01 1.759269999999999889e+00 3.856689999999999952e+00 2.056193000000000026e+01 -4.980000000000000052e-03 6.914039999999999964e+00 2.055546000000000006e+01 7.039430000000000298e+00 8.152300000000000102e-01 2.056581999999999866e+01 5.281010000000000204e+00 3.863939999999999930e+00 2.055424999999999969e+01 3.527989999999999959e+00 6.905829999999999913e+00 2.056302000000000163e+01 -5.270579999999999821e+00 9.140890000000000626e+00 1.124590000000000067e+01 -1.750000000000000000e+00 3.057650000000000201e+00 1.125947000000000031e+01 7.029770000000000074e+00 6.091890000000000249e+00 1.124285000000000068e+01 -1.760399999999999965e+00 9.135809999999999320e+00 1.125028000000000006e+01 1.760270000000000001e+00 3.037949999999999928e+00 1.125219000000000058e+01 -7.349999999999999763e-03 6.096359999999999779e+00 1.124933000000000050e+01 7.028660000000000352e+00 2.530000000000000131e-03 1.125273999999999930e+01 5.281460000000000043e+00 3.036210000000000075e+00 1.125131000000000014e+01 3.522019999999999929e+00 6.095100000000000406e+00 1.124142999999999937e+01 1.760219999999999896e+00 1.836370000000000058e+00 1.874795999999999907e+01 1.610000000000000103e-03 4.878610000000000113e+00 1.875573999999999941e+01 -1.753600000000000048e+00 7.925550000000000317e+00 1.875384999999999991e+01 5.286730000000000373e+00 1.837309999999999999e+00 1.876295000000000002e+01 3.522740000000000204e+00 4.865260000000000140e+00 1.875959999999999894e+01 1.754909999999999970e+00 7.931189999999999962e+00 1.876113000000000142e+01 8.812160000000000437e+00 1.828759999999999941e+00 1.875288000000000110e+01 7.037869999999999848e+00 4.873969999999999914e+00 1.875860000000000127e+01 5.283050000000000246e+00 7.913649999999999629e+00 1.874775999999999954e+01
-2.344999999999999862e-02 2.036439999999999806e+00 9.446279999999999788e+00 -1.752960000000000074e+00 5.084590000000000387e+00 9.431340000000000501e+00 -3.525900000000000034e+00 8.144420000000000215e+00 9.434419999999999362e+00 3.518299999999999983e+00 2.043250000000000011e+00 9.434829999999999828e+00 1.748660000000000103e+00 5.086649999999999672e+00 9.430089999999999861e+00 -8.000000000000000167e-03 8.115170000000000883e+00 9.436429999999999652e+00 7.040119999999999933e+00 2.028430000000000177e+00 9.437530000000000641e+00 5.278159999999999741e+00 5.069300000000000139e+00 9.425969999999999516e+00 3.507919999999999927e+00 8.137040000000000717e+00 9.451140000000000541e+00 1.729999999999999984e-03 8.178900000000000059e-01 1.693065999999999960e+01 -1.751609999999999889e+00 3.863280000000000047e+00 1.692409999999999926e+01 -3.507509999999999906e+00 6.913260000000000183e+00 1.692737999999999943e+01 3.520459999999999923e+00 8.273200000000000554e-01 1.693550000000000111e+01 1.770759999999999890e+00 3.849310000000000009e+00 1.693959999999999866e+01 -2.100000000000000087e-04 6.914130000000000109e+00 1.693441999999999936e+01 7.050270000000000259e+00 8.175200000000000244e-01 1.696831999999999852e+01 5.279309999999999725e+00 3.862800000000000011e+00 1.694731000000000165e+01 3.529840000000000089e+00 6.896580000000000155e+00 1.693861000000000061e+01 7.000000000000000146e-03 2.032369999999999788e+00 1.306344999999999956e+01 -1.764100000000000001e+00 5.073550000000000004e+00 1.305563000000000073e+01 -3.522510000000000030e+00 8.122680000000000788e+00 1.305542999999999942e+01 3.504100000000000215e+00 2.029250000000000220e+00 1.306232999999999933e+01 1.755239999999999911e+00 5.087670000000000137e+00 1.307075000000000031e+01 4.479999999999999608e-03 8.119880000000000209e+00 1.306980000000000075e+01 7.046969999999999956e+00 2.039730000000000043e+00 1.304901000000000089e+01 5.285940000000000083e+00 5.076740000000000030e+00 1.307158000000000087e+01 3.511989999999999945e+00 8.133689999999999642e+00 1.306071999999999989e+01 6.490000000000000109e-03 8.235099999999999643e-01 2.056062000000000012e+01 -1.759940000000000060e+00 3.870810000000000084e+00 2.055298000000000158e+01 -3.525739999999999874e+00 6.906799999999999606e+00 2.056023000000000067e+01 3.512599999999999945e+00 8.115099999999999536e-01 2.055106999999999928e+01 1.759090000000000042e+00 3.855560000000000098e+00 2.056240000000000023e+01 -6.210000000000000242e-03 6.915099999999999802e+00 2.055434999999999945e+01 7.039340000000000153e+00 8.158199999999999896e-01 2.056726000000000099e+01 5.281279999999999752e+00 3.864590000000000192e+00 2.055290000000000106e+01 3.529949999999999921e+00 6.904869999999999841e+00 2.056372000000000000e+01 -5.268379999999999619e+00 9.139900000000000801e+00 1.124505000000000088e+01 -1.747610000000000108e+00 3.059890000000000221e+00 1.126174999999999926e+01 7.027300000000000324e+00 6.090700000000000003e+00 1.124112000000000045e+01 -1.760490000000000110e+00 9.133549999999999613e+00 1.125041000000000047e+01 1.760280000000000067e+00 3.035540000000000127e+00 1.125273999999999930e+01 -9.119999999999999635e-03 6.096250000000000391e+00 1.124928000000000061e+01 7.025850000000000151e+00 3.129999999999999970e-03 1.125347000000000008e+01 5.281760000000000232e+00 3.033319999999999794e+00 1.125170999999999921e+01 3.522499999999999964e+00 6.094640000000000057e+00 1.123949999999999960e+01 1.760250000000000092e+00 1.838090000000000002e+00 1.874740999999999858e+01 2.060000000000000199e-03 4.878899999999999793e+00 1.875698999999999828e+01 -1.752110000000000056e+00 7.925480000000000302e+00 1.875463999999999842e+01 5.288350000000000328e+00 1.839299999999999935e+00 1.876602000000000103e+01 3.523369999999999891e+00 4.862289999999999779e+00 1.876185999999999865e+01 1.753749999999999920e+00 7.932389999999999830e+00 1.876377000000000095e+01 8.815139999999999532e+00 1.828740000000000032e+00 1.875356999999999985e+01 7.037399999999999878e+00 4.873160000000000380e+00 1.876050000000000040e+01 5.283850000000000158e+00 7.910759999999999792e+00 1.874715000000000131e+01
-2.801000000000000018e-02 2.037240000000000162e+00 9.447520000000000806e+00 -1.751630000000000020e+00 5.085359999999999658e+00 9.429660000000000153e+00 -3.527039999999999953e+00 8.147380000000000067e+00 9.433299999999999130e+00 3.517949999999999910e+00 2.045339999999999936e+00 9.433859999999999246e+00 1.746429999999999927e+00 5.087769999999999904e+00 9.428219999999999601e+00 -9.589999999999999566e-03 8.112460000000000448e+00 9.435739999999999128e+00 7.040180000000000327e+00 2.027699999999999836e+00 9.437110000000000554e+00 5.277770000000000294e+00 5.067009999999999792e+00 9.423239999999999839e+00 3.505539999999999878e+00 8.138600000000000279e+00 9.453340000000000742e+00 2.089999999999999844e-03 8.187799999999999523e-01 1.692892000000000152e+01 -1.749959999999999960e+00 3.863630000000000120e+00 1.692113000000000156e+01 -3.505030000000000090e+00 6.913879999999999804e+00 1.692502999999999957e+01 3.520610000000000017e+00 8.301300000000000345e-01 1.693475000000000108e+01 1.772869999999999946e+00 3.846979999999999844e+00 1.693957999999999942e+01 -2.000000000000000096e-04 6.914959999999999773e+00 1.693344000000000094e+01 7.052290000000000170e+00 8.184099999999999708e-01 1.697393999999999892e+01 5.279209999999999958e+00 3.863039999999999807e+00 1.694881000000000171e+01 3.531719999999999970e+00 6.893939999999999735e+00 1.693849000000000160e+01 8.389999999999999888e-03 2.032369999999999788e+00 1.306405999999999956e+01 -1.764950000000000019e+00 5.072269999999999612e+00 1.305471999999999966e+01 -3.523000000000000131e+00 8.121389999999999887e+00 1.305443999999999960e+01 3.501009999999999955e+00 2.028640000000000221e+00 1.306269999999999953e+01 1.754329999999999945e+00 5.089059999999999917e+00 1.307268000000000008e+01 5.309999999999999616e-03 8.118100000000000094e+00 1.307164999999999999e+01 7.048350000000000115e+00 2.041220000000000034e+00 1.304682999999999993e+01 5.287060000000000315e+00 5.075969999999999871e+00 1.307368999999999915e+01 3.510440000000000005e+00 8.134619999999999962e+00 1.306071000000000026e+01 7.799999999999999642e-03 8.255299999999999860e-01 2.056069000000000102e+01 -1.759910000000000085e+00 3.872660000000000213e+00 2.055161999999999978e+01 -3.526839999999999975e+00 6.906229999999999869e+00 2.056025999999999954e+01 3.511150000000000215e+00 8.112500000000000266e-01 2.054930999999999841e+01 1.758890000000000065e+00 3.854439999999999866e+00 2.056289999999999907e+01 -7.409999999999999920e-03 6.916140000000000398e+00 2.055330000000000013e+01 7.039270000000000138e+00 8.164299999999999891e-01 2.056871999999999900e+01 5.281550000000000189e+00 3.865229999999999944e+00 2.055163999999999902e+01 3.531880000000000130e+00 6.903900000000000148e+00 2.056441999999999837e+01 -5.266289999999999694e+00 9.138980000000000103e+00 1.124424999999999919e+01 -1.745290000000000008e+00 3.062069999999999848e+00 1.126393000000000022e+01 7.024869999999999948e+00 6.089529999999999887e+00 1.123939000000000021e+01 -1.760569999999999968e+00 9.131360000000000809e+00 1.125052999999999948e+01 1.760250000000000092e+00 3.033249999999999780e+00 1.125324999999999953e+01 -1.085000000000000027e-02 6.096129999999999605e+00 1.124924999999999997e+01 7.023069999999999702e+00 3.710000000000000190e-03 1.125418999999999947e+01 5.282009999999999650e+00 3.030549999999999855e+00 1.125209000000000081e+01 3.522969999999999935e+00 6.094149999999999956e+00 1.123765000000000036e+01 1.760259999999999936e+00 1.839739999999999931e+00 1.874684999999999846e+01 2.530000000000000131e-03 4.879199999999999982e+00 1.875812000000000168e+01 -1.750699999999999923e+00 7.925410000000000288e+00 1.875534999999999997e+01 5.289920000000000400e+00 1.841250000000000053e+00 1.876901000000000153e+01 3.523969999999999825e+00 4.859379999999999811e+00 1.876405000000000101e+01 1.752660000000000107e+00 7.933500000000000441e+00 1.876633999999999958e+01 8.818080000000000140e+00 1.828759999999999941e+00 1.875425999999999860e+01 7.036990000000000300e+00 4.872379999999999711e+00 1.876223999999999847e+01 5.284670000000000201e+00 7.907989999999999853e+00 1.874652000000000029e+01