-3.347845041200000082e+02
-3.347825606200000266e+02
-3.347743184299999939e+02
-3.347606268100000193e+02
-3.347420423500000197e+02
-3.347192171600000279e+02
-3.346926053299999921e+02
-3.346631917999999928e+02
-3.346316095399999995e+02
-3.345983167300000218e+02
-3.335520645400000035e+02
-3.335588248600000156e+02
-3.335648144799999955e+02
-3.335700410499999862e+02
-3.335744824700000208e+02
-3.335782013799999959e+02
-3.335814706300000125e+02
-3.335845600000000104e+02
-3.335877020799999855e+02
-3.335913097600000015e+02
-3.336620955800000274e+02
-3.336669959700000163e+02
-3.336678268599999910e+02
-3.336645505800000251e+02
-3.336575438099999928e+02
-3.336470971400000280e+02
-3.336339481900000123e+02
-3.336184927300000140e+02
-3.336014964299999974e+02
-3.335834572100000059e+02
-3.338750393299999928e+02
-3.338743630700000153e+02
-3.338702874699999938e+02
-3.338627954599999725e+02
-3.338518687299999783e+02
-3.338378262499999778e+02
-3.338215892000000053e+02
-3.338036720200000218e+02
-3.337843467299999816e+02
-3.337643544399999769e+02
-3.339095686800000067e+02
-3.339166485900000225e+02
-3.339221346900000071e+02
-3.339260740799999780e+02
-3.339285020699999791e+02
-3.339294067000000155e+02
-3.339294388700000127e+02
-3.339291862100000117e+02
-3.339287081300000182e+02
-3.339291209799999933e+02
-3.344526609800000188e+02
-3.344464234600000054e+02
-3.344377002900000093e+02
-3.344265394600000150e+02
-3.344134284400000183e+02
-3.343985441699999797e+02
-3.343819882000000234e+02
-3.343640656399999784e+02
-3.343455465800000184e+02
-3.343262579199999891e+02
-3.343161665999999741e+02
-3.343134529999999813e+02
-3.343073203100000228e+02
-3.342979840699999841e+02
-3.342858684899999844e+02
-3.342714490999999839e+02
-3.342548990399999980e+02
-3.342370175199999949e+02
-3.342179455400000165e+02
-3.341984272000000260e+02
-3.332591413000000102e+02
-3.332662037200000213e+02
-3.332712276199999906e+02
-3.332744094099999757e+02
-3.332757947700000045e+02
-3.332759316400000102e+02
-3.332750645099999929e+02
-3.332734528700000283e+02
-3.332716968899999870e+02
-3.332699067199999945e+02
-3.335135730499999909e+02
-3.335174741499999982e+02
-3.335208239199999980e+02
-3.335237385199999949e+02
-3.335262173200000007e+02
-3.335287258700000166e+02
-3.335315092600000071e+02
-3.335345585599999936e+02
-3.335380383699999811e+02
-3.335421923800000172e+02
-3.338332269699999983e+02
-3.338337623799999960e+02
-3.338316554799999949e+02
-3.338269435000000271e+02
-3.338197068599999966e+02
-3.338103781799999865e+02
-3.337992270699999722e+02
-3.337869334299999764e+02
-3.337737029799999959e+02
-3.337599331499999948e+02
-3.345217085500000280e+02
-3.345205934300000195e+02
-3.345145030099999985e+02
-3.345035512499999868e+02
-3.344881103299999836e+02
-3.344685157900000263e+02
-3.344456735599999888e+02
-3.344202966899999865e+02
-3.343930328100000224e+02
-3.343646440699999971e+02
-3.327615239300000098e+02
-3.327515733999999838e+02
-3.327377240600000050e+02
-3.327199829099999988e+02
-3.326988402499999893e+02
-3.326753831699999751e+02
-3.326506695200000081e+02
-3.326257119300000227e+02
-3.326009513299999867e+02
-3.325773944399999777e+02
-3.335971820699999739e+02
-3.335954990600000087e+02
-3.335942930799999999e+02
-3.335937310599999819e+02
-3.335943476400000236e+02
-3.335963967299999808e+02
-3.336004353100000230e+02
-3.336066233600000146e+02
-3.336153958400000192e+02
-3.336270934899999929e+02
-3.343144487100000219e+02
-3.343066787600000112e+02
-3.342955418099999747e+02
-3.342813483499999734e+02
-3.342645491200000265e+02
-3.342453161099999761e+02
-3.342240291699999943e+02
-3.342012944499999776e+02
-3.341777746500000035e+02
-3.341536441399999831e+02
-3.340825609400000076e+02
-3.340843715899999893e+02
-3.340818602699999929e+02
-3.340755414199999791e+02
-3.340655727000000184e+02
-3.340523272300000031e+02
-3.340362026099999753e+02
-3.340176238500000068e+02
-3.339971752499999980e+02
-3.339754976899999974e+02
-3.342173807500000180e+02
-3.342106240599999865e+02
-3.341999292799999921e+02
-3.341854867700000113e+02
-3.341675113200000169e+02
-3.341462545399999726e+02
-3.341226278299999990e+02
-3.340970378299999766e+02
-3.340701772499999720e+02
-3.340427844700000151e+02
-3.330700674400000025e+02
-3.330832061300000078e+02
-3.331003223899999739e+02
-3.331210722999999803e+02
-3.331453170899999918e+02
-3.331726375399999824e+02
-3.332029888700000129e+02
-3.332360199500000135e+02
-3.332714270999999826e+02
-3.333086183799999844e+02
-3.339363021400000093e+02
-3.339362399400000072e+02
-3.339364964999999756e+02
-3.339369346999999948e+02
-3.339376217299999894e+02
-3.339388277400000220e+02
-3.339403757300000279e+02
-3.339424018899999851e+02
-3.339451479200000108e+02
-3.339485833499999785e+02
-3.336167509300000233e+02
-3.336255632099999957e+02
-3.336322477699999922e+02
-3.336371623399999748e+02
-3.336400371799999789e+02
-3.336412265100000241e+02
-3.336406718999999725e+02
-3.336387078399999950e+02
-3.336356189100000051e+02
-3.336317918400000053e+02
-3.334364931000000070e+02
-3.334273058399999741e+02
-3.334216306299999815e+02
-3.334196749700000169e+02
-3.334213656000000015e+02
-3.334265565499999866e+02
-3.334356079699999782e+02
-3.334483632499999999e+02
-3.334648169000000166e+02
-3.334847791700000244e+02
-3.343145306000000119e+02
-3.343191561500000262e+02
-3.343207508099999927e+02
-3.343194354799999815e+02
-3.343151409299999841e+02
-3.343082513900000095e+02
-3.342989076599999976e+02
-3.342873551499999962e+02
-3.342739995499999850e+02
-3.342591124499999751e+02
-3.341183835400000248e+02
-3.341242927200000281e+02
-3.341294375200000104e+02
-3.341338051000000178e+02
-3.341373625200000106e+02
-3.341399255300000277e+02
-3.341418443800000091e+02
-3.341432209600000078e+02
-3.341439530900000250e+02
-3.341441676900000175e+02
-3.339275814800000148e+02
-3.339269950600000243e+02
-3.339232427800000096e+02
-3.339162817800000198e+02
-3.339064404999999738e+02
-3.338939680199999884e+02
-3.338792398400000252e+02
-3.338625187600000004e+02
-3.338438210200000071e+02
-3.338237471799999980e+02
-3.339041144600000166e+02
-3.339068011400000273e+02
-3.339084033500000146e+02
-3.339089268399999924e+02
-3.339087722400000189e+02
-3.339081737000000203e+02
-3.339075931699999842e+02
-3.339073682900000222e+02
-3.339077573899999720e+02
-3.339091146499999923e+02
-3.335926033900000220e+02
-3.335901702400000204e+02
-3.335815333400000213e+02
-3.335668557999999848e+02
-3.335463350800000057e+02
-3.335208396699999867e+02
-3.334915158900000165e+02
-3.334591305399999897e+02
-3.334245901799999956e+02
-3.333888709500000118e+02
-3.339159702800000105e+02
-3.339214129200000230e+02
-3.339287754499999892e+02
-3.339380665499999736e+02
-3.339492269200000010e+02
-3.339621701199999961e+02
-3.339766146599999956e+02
-3.339924770599999988e+02
-3.340094658799999934e+02
-3.340270781799999895e+02
-3.344329192000000148e+02
-3.344350260599999842e+02
-3.344320872999999779e+02
-3.344238325000000032e+02
-3.344107568700000002e+02
-3.343934024600000043e+02
-3.343721139699999867e+02
-3.343474022099999843e+02
-3.343199463099999775e+02
-3.342905349000000115e+02
-3.332809907999999837e+02
-3.333005566900000076e+02
-3.333210761400000024e+02
-3.333428090699999871e+02
-3.333660858800000142e+02
-3.333905384099999765e+02
-3.334162603500000159e+02
-3.334431347899999878e+02
-3.334711483400000134e+02
-3.335006959099999904e+02
-3.336840334199999916e+02
-3.336882316699999933e+02
-3.336925765400000046e+02
-3.336973171199999797e+02
-3.337026606499999843e+02
-3.337088746700000002e+02
-3.337165228700000057e+02
-3.337258874300000002e+02
-3.337375788900000089e+02
-3.337519699800000126e+02
-3.332312354399999776e+02
-3.332332559800000240e+02
-3.332360016399999836e+02
-3.332394924000000174e+02
-3.332437868299999764e+02
-3.332488406800000007e+02
-3.332549004599999876e+02
-3.332618902500000218e+02
-3.332700628399999800e+02
-3.332795601799999758e+02
-3.339648262100000125e+02
-3.339666143100000113e+02
-3.339667531000000054e+02
-3.339654017999999951e+02
-3.339628009599999814e+02
-3.339593517000000134e+02
-3.339551528100000155e+02
-3.339503349099999809e+02
-3.339455072700000073e+02
-3.339407586799999876e+02
-3.346822091399999977e+02
-3.346843834200000174e+02
-3.346814556400000242e+02
-3.346734667499999887e+02
-3.346607945200000245e+02
-3.346436941499999875e+02
-3.346224707800000147e+02
-3.345976592299999766e+02
-3.345695707799999923e+02
-3.345391314500000135e+02
-3.331116112899999848e+02
-3.331061703899999884e+02
-3.330979631399999903e+02
-3.330874257599999737e+02
-3.330751566999999795e+02
-3.330616094599999997e+02
-3.330472522200000185e+02
-3.330325460999999905e+02
-3.330182662600000185e+02
-3.330049525200000176e+02
-3.336421717700000045e+02
-3.336657797099999812e+02
-3.336896200400000225e+02
-3.337133757999999943e+02
-3.337367062199999737e+02
-3.337595727500000180e+02
-3.337819958000000042e+02
-3.338037432400000171e+02
-3.338247548499999766e+02
-3.338453908600000091e+02
-3.332887814800000115e+02
-3.332819634599999858e+02
-3.332804635599999870e+02
-3.332847109699999919e+02
-3.332948058900000206e+02
-3.333104694599999789e+02
-3.333312480800000230e+02
-3.333579219999999737e+02
-3.333904020100000025e+02
-3.334282130299999949e+02
-3.340690133499999774e+02
-3.340650266800000168e+02
-3.340556557799999950e+02
-3.340414815199999907e+02
-3.340227223200000140e+02
-3.339997960800000101e+02
-3.339733932699999741e+02
-3.339438383300000055e+02
-3.339117173099999718e+02
-3.338778499699999998e+02
-3.341561699499999918e+02
-3.341517004500000212e+02
-3.341453107599999726e+02
-3.341372452599999860e+02
-3.341273499000000129e+02
-3.341162078300000076e+02
-3.341041551800000207e+02
-3.340916026900000020e+02
-3.340788885299999720e+02
-3.340660482399999864e+02
-3.337506716199999914e+02
-3.337497345400000199e+02
-3.337481872999999837e+02
-3.337456278000000225e+02
-3.337422641200000157e+02
-3.337386850899999899e+02
-3.337351868999999738e+02
-3.337316468000000214e+02
-3.337284961799999792e+02
-3.337258759700000041e+02
-3.342754525799999783e+02
-3.342820826600000146e+02
-3.342866891200000055e+02
-3.342892400900000212e+02
-3.342897095800000216e+02
-3.342880101100000161e+02
-3.342844955400000231e+02
-3.342790461000000164e+02
-3.342718174099999828e+02
-3.342629273499999840e+02
-3.343629427800000258e+02
-3.343592330899999752e+02
-3.343520130699999982e+02
-3.343411334699999884e+02
-3.343268820700000106e+02
-3.343094531099999926e+02
-3.342897997599999940e+02
-3.342679421299999944e+02
-3.342444679000000178e+02
-3.342199148999999920e+02
-3.323833472599999936e+02
-3.323831677300000251e+02
-3.323897538699999927e+02
-3.324030475700000125e+02
-3.324231412799999816e+02
-3.324497896999999966e+02
-3.324830398099999798e+02
-3.325226762899999926e+02
-3.325683107099999916e+02
-3.326194198300000266e+02
-3.332573778799999786e+02
-3.332666370399999778e+02
-3.332786071400000196e+02
-3.332932523399999809e+02
-3.333101611199999752e+02
-3.333295210200000156e+02
-3.333512107999999898e+02
-3.333751018400000135e+02
-3.334008023100000173e+02
-3.334284617399999888e+02
-3.344638197400000195e+02
-3.344615876400000047e+02
-3.344559591600000203e+02
-3.344467287400000259e+02
-3.344343630899999766e+02
-3.344192332900000224e+02
-3.344017740499999718e+02
-3.343823966499999756e+02
-3.343617573099999731e+02
-3.343403484500000218e+02
-3.337621905899999888e+02
-3.337659467899999868e+02
-3.337684772000000066e+02
-3.337696077699999933e+02
-3.337694717300000207e+02
-3.337683719400000086e+02
-3.337667305300000180e+02
-3.337647596200000066e+02
-3.337628976199999897e+02
-3.337611768200000029e+02
-3.344033955500000275e+02
-3.344055305900000121e+02
-3.344033473700000059e+02
-3.343971114600000192e+02
-3.343872706199999811e+02
-3.343739130600000067e+02
-3.343574606000000244e+02
-3.343385654699999918e+02
-3.343175402599999870e+02
-3.342949757900000236e+02
-3.340074056400000018e+02
-3.340076856200000179e+02
-3.340042369500000063e+02
-3.339970433299999968e+02
-3.339865618700000027e+02
-3.339731227199999921e+02
-3.339572791499999767e+02
-3.339393372399999862e+02
-3.339201112599999988e+02
-3.339001488100000188e+02
-3.336038292800000136e+02
-3.336067542900000262e+02
-3.336087878499999988e+02
-3.336102174700000091e+02
-3.336108552399999780e+02
-3.336112804100000062e+02
-3.336116056899999762e+02
-3.336122291799999857e+02
-3.336130793899999958e+02
-3.336142347599999880e+02
-3.341257227400000147e+02
-3.341241312899999798e+02
-3.341181367199999954e+02
-3.341080531399999813e+02
-3.340942674500000180e+02
-3.340772451199999864e+02
-3.340573730899999987e+02
-3.340354608200000257e+02
-3.340120913399999836e+02
-3.339875920000000065e+02
-3.313385559299999841e+02
-3.313556019100000185e+02
-3.313870554599999991e+02
-3.314324088100000267e+02
-3.314899064499999781e+02
-3.315593822499999987e+02
-3.316395607700000028e+02
-3.317290492299999869e+02
-3.318259150100000170e+02
-3.319281437099999721e+02
-3.337330595799999742e+02
-3.337312762399999997e+02
-3.337278626899999949e+02
-3.337229317300000275e+02
-3.337168282800000156e+02
-3.337097439699999768e+02
-3.337019911099999945e+02
-3.336938466400000038e+02
-3.336855537100000220e+02
-3.336774725600000124e+02
-3.340703258799999844e+02
-3.340726977099999999e+02
-3.340718413299999838e+02
-3.340683067200000096e+02
-3.340622279599999729e+02
-3.340543073299999719e+02
-3.340451214500000106e+02
-3.340354692600000135e+02
-3.340262437700000078e+02
-3.340180150300000150e+02
-3.338729188500000191e+02
-3.338710224999999809e+02
-3.338630439199999955e+02
-3.338492051599999968e+02
-3.338301062099999967e+02
-3.338059786100000110e+02
-3.337777337100000068e+02
-3.337461176900000055e+02
-3.337117829700000016e+02
-3.336757662499999810e+02
-3.344309375000000273e+02
-3.344290997800000014e+02
-3.344235497899999814e+02
-3.344143336700000191e+02
-3.344017691899999818e+02
-3.343863336699999991e+02
-3.343683136199999808e+02
-3.343482842899999810e+02
-3.343267736399999990e+02
-3.343038972300000182e+02
-3.334892020799999841e+02
-3.334731124400000226e+02
-3.334581082500000093e+02
-3.334449125500000264e+02
-3.334338674399999718e+02
-3.334256747000000018e+02
-3.334207624800000076e+02
-3.334199865300000170e+02
-3.334232467900000074e+02
-3.334312492199999838e+02
-3.328228657899999803e+02
-3.328277757000000179e+02
-3.328315125799999805e+02
-3.328341696499999784e+02
-3.328357891100000074e+02
-3.328368300000000204e+02
-3.328381803400000081e+02
-3.328399274899999796e+02
-3.328425209299999779e+02
-3.328468321700000274e+02
-3.333847725900000114e+02
-3.333896567900000036e+02
-3.333943685400000163e+02
-3.333989368200000172e+02
-3.334035775799999897e+02
-3.334085586699999908e+02
-3.334142487400000050e+02
-3.334209060700000009e+02
-3.334286758999999734e+02
-3.334378009000000134e+02
-3.337082087800000068e+02
-3.337142207200000144e+02
-3.337192642900000124e+02
-3.337231101200000012e+02
-3.337258694099999730e+02
-3.337275751600000149e+02
-3.337285361099999932e+02
-3.337287029999999959e+02
-3.337286683300000050e+02
-3.337284532099999979e+02
-3.339946377300000222e+02
-3.339859454499999742e+02
-3.339743374399999993e+02
-3.339602527100000202e+02
-3.339438782099999798e+02
-3.339255322600000113e+02
-3.339058924400000024e+02
-3.338853771700000266e+02
-3.338647905500000093e+02
-3.338445733600000267e+02
-3.344335638100000097e+02
-3.344304234200000110e+02
-3.344241441500000178e+02
-3.344151856400000042e+02
-3.344035103100000015e+02
-3.343892979600000217e+02
-3.343728899800000249e+02
-3.343547271200000068e+02
-3.343353195600000163e+02
-3.343149166100000116e+02
-3.343824081600000113e+02
-3.343795087600000215e+02
-3.343747267100000045e+02
-3.343680585299999848e+02
-3.343598164200000156e+02
-3.343501290300000051e+02
-3.343391945500000020e+02
-3.343275246200000197e+02
-3.343152347100000270e+02
-3.343028034899999739e+02
-3.331972316800000158e+02
-3.332129985400000010e+02
-3.332312858099999744e+02
-3.332514401700000235e+02
-3.332729757000000177e+02
-3.332956701499999781e+02
-3.333194566299999906e+02
-3.333440810999999826e+02
-3.333692226399999754e+02
-3.333953219300000228e+02
-3.343608082200000240e+02
-3.343655470300000161e+02
-3.343665723199999888e+02
-3.343637608299999897e+02
-3.343573685399999817e+02
-3.343475399100000232e+02
-3.343345397800000001e+02
-3.343185868499999742e+02
-3.343003360199999747e+02
-3.342800091500000121e+02
-3.330074287900000058e+02
-3.330202524499999868e+02
-3.330355161499999781e+02
-3.330528877200000011e+02
-3.330723499999999717e+02
-3.330939921799999865e+02
-3.331176712899999757e+02
-3.331434250300000031e+02
-3.331717376700000273e+02
-3.332022584800000118e+02
-3.336234258700000055e+02
-3.336220507500000281e+02
-3.336218316100000152e+02
-3.336227311299999769e+02
-3.336245711199999846e+02
-3.336274630099999854e+02
-3.336312102499999810e+02
-3.336359663299999738e+02
-3.336420182599999862e+02
-3.336492378600000279e+02
-3.341211712400000238e+02
-3.341232951399999820e+02
-3.341235470199999895e+02
-3.341220465100000183e+02
-3.341189338300000031e+02
-3.341144676800000184e+02
-3.341086881300000186e+02
-3.341019112700000164e+02
-3.340944088900000111e+02
-3.340863489899999763e+02
-3.341081052100000193e+02
-3.341106648900000096e+02
-3.341090845499999773e+02
-3.341037398400000029e+02
-3.340950036500000238e+02
-3.340832038799999850e+02
-3.340690531100000271e+02
-3.340529424399999812e+02
-3.340356102399999827e+02
-3.340174623999999994e+02
-3.330288648200000239e+02
-3.330374309599999947e+02
-3.330470458799999847e+02
-3.330578288099999895e+02
-3.330700040500000227e+02
-3.330834613800000170e+02
-3.330983261499999912e+02
-3.331145768499999917e+02
-3.331323569400000224e+02
-3.331519705499999873e+02
-3.342229711699999939e+02
-3.342188372699999945e+02
-3.342118995000000155e+02
-3.342022898299999838e+02
-3.341900621999999998e+02
-3.341756398100000069e+02
-3.341589687800000092e+02
-3.341408287699999846e+02
-3.341210108500000047e+02
-3.341002409600000078e+02
-3.339884735599999885e+02
-3.339950269299999945e+02
-3.339977881500000194e+02
-3.339979579700000158e+02
-3.339952555200000006e+02
-3.339902411900000061e+02
-3.339830762099999788e+02
-3.339744153699999742e+02
-3.339648300900000208e+02
-3.339549109100000237e+02
-3.328025657599999931e+02
-3.328083816100000263e+02
-3.328136900200000241e+02
-3.328184091800000033e+02
-3.328223244499999964e+02
-3.328259285199999908e+02
-3.328294194299999731e+02
-3.328327736800000025e+02
-3.328367050200000108e+02
-3.328412960100000078e+02
-3.340473728100000130e+02
-3.340442604699999833e+02
-3.340357614900000272e+02
-3.340221804099999758e+02
-3.340038462800000048e+02
-3.339813905500000146e+02
-3.339550920699999779e+02
-3.339258391600000095e+02
-3.338941167500000233e+02
-3.338606799500000193e+02
-3.341575869800000191e+02
-3.341635904099999834e+02
-3.341663490500000080e+02
-3.341660227099999929e+02
-3.341627187700000263e+02
-3.341570547399999782e+02
-3.341495973899999967e+02
-3.341407796299999973e+02
-3.341307673900000168e+02
-3.341203048400000171e+02
-3.341538947700000222e+02
-3.341533455599999911e+02
-3.341487282100000016e+02
-3.341402783600000248e+02
-3.341282518799999934e+02
-3.341130698399999801e+02
-3.340954327399999784e+02
-3.340755596700000183e+02
-3.340543415399999958e+02
-3.340323257900000158e+02
-3.341664875399999914e+02
-3.341699922700000229e+02
-3.341708623000000102e+02
-3.341691234400000212e+02
-3.341652038899999866e+02
-3.341596537199999943e+02
-3.341525962800000116e+02
-3.341446979699999815e+02
-3.341363365199999862e+02
-3.341277639400000226e+02
-3.331444977699999868e+02
-3.331344333200000278e+02
-3.331205540299999939e+02
-3.331030747899999938e+02
-3.330828003600000216e+02
-3.330605946000000017e+02
-3.330371101700000054e+02
-3.330130482600000050e+02
-3.329895516299999940e+02
-3.329672099599999910e+02
-3.330935863999999924e+02
-3.330912556800000175e+02
-3.330849280599999815e+02
-3.330748968899999909e+02
-3.330616526100000101e+02
-3.330454558900000279e+02
-3.330268923099999938e+02
-3.330064009199999759e+02
-3.329847029700000007e+02
-3.329625804099999868e+02
-3.340741362699999968e+02
-3.340725558199999909e+02
-3.340683772599999770e+02
-3.340620007399999736e+02
-3.340536400500000127e+02
-3.340434612299999912e+02
-3.340317701999999827e+02
-3.340192824499999915e+02
-3.340060580100000038e+02
-3.339928341099999898e+02
-3.339362218699999971e+02
-3.339375775999999973e+02
-3.339358358999999723e+02
-3.339307008900000255e+02
-3.339222217099999739e+02
-3.339110110500000133e+02
-3.338970553999999993e+02
-3.338809104700000034e+02
-3.338627765100000033e+02
-3.338434301799999844e+02
-3.325506085900000244e+02
-3.325473207200000161e+02
-3.325445400099999915e+02
-3.325425317199999995e+02
-3.325414840199999844e+02
-3.325416984099999809e+02
-3.325435279199999741e+02
-3.325474021800000060e+02
-3.325537613199999782e+02
-3.325631557300000054e+02
-3.341853785499999958e+02
-3.341809332500000096e+02
-3.341723418400000014e+02
-3.341598906199999988e+02
-3.341440373899999940e+02
-3.341249599600000124e+02
-3.341034976700000243e+02
-3.340805305299999759e+02
-3.340564374400000247e+02
-3.340323901900000010e+02
-3.338639005300000235e+02
-3.338662268300000164e+02
-3.338645078900000271e+02
-3.338586543399999869e+02
-3.338490648499999907e+02
-3.338360511800000268e+02
-3.338202193600000101e+02
-3.338015252899999723e+02
-3.337808377399999813e+02
-3.337584734999999796e+02
-3.341293557299999861e+02
-3.341332781699999828e+02
-3.341328101700000275e+02
-3.341281477599999903e+02
-3.341197176700000000e+02
-3.341079287700000009e+02
-3.340934306699999752e+02
-3.340769379000000185e+02
-3.340589209199999914e+02
-3.340401175999999737e+02
-3.329965446799999995e+02
-3.330161805199999776e+02
-3.330404966400000148e+02
-3.330687736099999938e+02
-3.331005399599999919e+02
-3.331353983700000185e+02
-3.331723719099999812e+02
-3.332109008099999983e+02
-3.332502934799999821e+02
-3.332898462599999903e+02
-3.334386184300000195e+02
-3.334486084399999868e+02
-3.334601715399999762e+02
-3.334733346599999777e+02
-3.334879676900000049e+02
-3.335042769600000270e+02
-3.335221107500000244e+02
-3.335413219999999797e+02
-3.335616571099999987e+02
-3.335830752599999869e+02
-3.340360523599999851e+02
-3.340231092199999807e+02
-3.340075568600000224e+02
-3.339895000500000037e+02
-3.339695994900000073e+02
-3.339484474999999861e+02
-3.339267345499999919e+02
-3.339051605000000222e+02
-3.338843597300000283e+02
-3.338643211199999996e+02
-3.342288144799999827e+02
-3.342343703500000061e+02
-3.342365803399999891e+02
-3.342353302700000199e+02
-3.342311845300000073e+02
-3.342244987099999776e+02
-3.342153214100000014e+02
-3.342042503999999781e+02
-3.341916499800000224e+02
-3.341782147900000268e+02
-3.340742290100000105e+02
-3.340760675899999796e+02
-3.340752919799999745e+02
-3.340717339199999856e+02
-3.340658115100000032e+02
-3.340578745799999751e+02
-3.340479522800000041e+02
-3.340365744100000143e+02
-3.340237810799999920e+02
-3.340099968499999932e+02
-3.334765759599999910e+02
-3.334741365500000256e+02
-3.334675969599999803e+02
-3.334570039199999769e+02
-3.334427739899999779e+02
-3.334252604399999882e+02
-3.334051240599999915e+02
-3.333829143599999725e+02
-3.333590184299999919e+02
-3.333340253499999903e+02
-3.345224640499999964e+02
-3.345264434000000051e+02
-3.345257942800000137e+02
-3.345202136300000006e+02
-3.345102970699999787e+02
-3.344963887499999942e+02
-3.344789086700000098e+02
-3.344581406600000264e+02
-3.344345362700000237e+02
-3.344088938599999778e+02
-3.338579946300000074e+02
-3.338623318300000165e+02
-3.338616089999999872e+02
-3.338560597100000109e+02
-3.338459623900000111e+02
-3.338316727900000274e+02
-3.338138843199999997e+02
-3.337931932100000267e+02
-3.337702119400000242e+02
-3.337456781600000113e+02
-3.343226407600000130e+02
-3.343197114800000236e+02
-3.343112306900000021e+02
-3.342976198200000226e+02
-3.342795797499999821e+02
-3.342577090199999930e+02
-3.342324172099999942e+02
-3.342045100400000024e+02
-3.341748946199999750e+02
-3.341440846599999759e+02
-3.337981051400000183e+02
-3.338020330300000182e+02
-3.338029519799999889e+02
-3.338009370899999908e+02
-3.337963218400000187e+02
-3.337892052299999932e+02
-3.337802310100000227e+02
-3.337699449500000242e+02
-3.337589857199999983e+02
-3.337476069800000005e+02
-3.337596767300000238e+02
-3.337604175700000155e+02
-3.337634617100000014e+02
-3.337687357500000189e+02
-3.337760517199999981e+02
-3.337853069999999889e+02
-3.337965347300000190e+02
-3.338095729899999924e+02
-3.338243057099999760e+02
-3.338404794699999911e+02
-3.306826262899999733e+02
-3.306944606100000215e+02
-3.307216390099999899e+02
-3.307636582299999759e+02
-3.308200766699999917e+02
-3.308902004999999917e+02
-3.309726801599999817e+02
-3.310664325600000097e+02
-3.311697241100000042e+02
-3.312805097300000057e+02
-3.337527216299999964e+02
-3.337667564199999788e+02
-3.337819666699999743e+02
-3.337978594100000009e+02
-3.338145579399999860e+02
-3.338319067300000142e+02
-3.338499633100000210e+02
-3.338690518500000053e+02
-3.338891403999999739e+02
-3.339106304900000168e+02
-3.331238578400000279e+02
-3.331402480699999842e+02
-3.331615186099999733e+02
-3.331870771000000104e+02
-3.332168671399999766e+02
-3.332504043600000045e+02
-3.332873827000000233e+02
-3.333273289699999964e+02
-3.333694745799999737e+02
-3.334132716600000208e+02
-3.344331979300000057e+02
-3.344269425900000101e+02
-3.344165837400000214e+02
-3.344025742399999785e+02
-3.343849796499999911e+02
-3.343643462499999828e+02
-3.343411196800000198e+02
-3.343158829600000104e+02
-3.342892295300000001e+02
-3.342619261099999903e+02
-3.343052607399999943e+02
-3.343034109399999920e+02
-3.342978167699999972e+02
-3.342884754899999962e+02
-3.342755387500000097e+02
-3.342595370299999900e+02
-3.342407787399999961e+02
-3.342197058400000174e+02
-3.341969923600000243e+02
-3.341731566400000020e+02
-3.343860217399999897e+02
-3.343810019499999839e+02
-3.343699616100000185e+02
-3.343538058099999830e+02
-3.343332132799999954e+02
-3.343077256700000248e+02
-3.342779481800000099e+02
-3.342448291300000278e+02
-3.342089680600000179e+02
-3.341713957100000130e+02
-3.336489361600000052e+02
-3.336591576700000132e+02
-3.336685927099999844e+02
-3.336768568100000039e+02
-3.336838871699999913e+02
-3.336903620400000250e+02
-3.336964920600000255e+02
-3.337027756599999861e+02
-3.337097356400000194e+02
-3.337177945899999827e+02
