2.500000000000000120e-05 -1.988999999999999883e-03 -1.034799999999999956e-02 1.599999999999999928e-05 -1.988999999999999883e-03 -1.034999999999999983e-02 1.900000000000000105e-05 -1.991000000000000148e-03 -1.034500000000000003e-02 6.999999999999999895e-06 -1.992999999999999980e-03 -1.032899999999999964e-02 1.500000000000000038e-05 -1.998999999999999909e-03 -1.032800000000000037e-02 1.000000000000000082e-05 -1.992999999999999980e-03 -1.033199999999999917e-02 -9.000000000000000228e-06 -2.005999999999999971e-03 -1.034599999999999929e-02 -9.000000000000000228e-06 -2.003000000000000006e-03 -1.034200000000000050e-02 -7.999999999999999638e-06 -2.010000000000000068e-03 -1.034400000000000076e-02 -1.399999999999999979e-05 -3.870799999999999935e-02 -1.162000000000000012e-02 -1.099999999999999971e-05 -3.871399999999999841e-02 -1.162000000000000012e-02 -9.000000000000000228e-06 -3.871600000000000041e-02 -1.162200000000000039e-02 1.900000000000000105e-05 -3.869500000000000023e-02 -1.162999999999999971e-02 1.900000000000000105e-05 -3.869399999999999923e-02 -1.162700000000000018e-02 2.400000000000000061e-05 -3.869399999999999923e-02 -1.162599999999999918e-02 1.599999999999999928e-05 -3.870200000000000029e-02 -1.160699999999999926e-02 1.399999999999999979e-05 -3.869700000000000223e-02 -1.161099999999999979e-02 6.999999999999999895e-06 -3.869899999999999729e-02 -1.160699999999999926e-02 2.500000000000000120e-05 4.102800000000000197e-02 1.150299999999999934e-02 1.500000000000000038e-05 4.102700000000000097e-02 1.150400000000000034e-02 2.000000000000000164e-05 4.102299999999999697e-02 1.149999999999999981e-02 6.999999999999999895e-06 4.102299999999999697e-02 1.148300000000000015e-02 1.500000000000000038e-05 4.101699999999999791e-02 1.148199999999999915e-02 1.000000000000000082e-05 4.102299999999999697e-02 1.148700000000000068e-02 -1.000000000000000082e-05 4.100999999999999784e-02 1.150299999999999934e-02 -9.000000000000000228e-06 4.101199999999999984e-02 1.149799999999999954e-02 -9.000000000000000228e-06 4.100499999999999978e-02 1.149999999999999981e-02 -1.200000000000000030e-05 3.640000000000000115e-04 1.026200000000000029e-02 -9.000000000000000228e-06 3.579999999999999741e-04 1.026200000000000029e-02 -7.999999999999999638e-06 3.570000000000000040e-04 1.026400000000000055e-02 1.800000000000000046e-05 3.759999999999999779e-04 1.027100000000000062e-02 1.800000000000000046e-05 3.770000000000000022e-04 1.026700000000000008e-02 2.500000000000000120e-05 3.770000000000000022e-04 1.026700000000000008e-02 1.699999999999999987e-05 3.690000000000000246e-04 1.024800000000000016e-02 1.399999999999999979e-05 3.750000000000000078e-04 1.025200000000000070e-02 6.000000000000000152e-06 3.739999999999999835e-04 1.024800000000000016e-02 -1.000000000000000082e-05 1.283499999999999919e-02 -2.020000000000000040e-04 -1.200000000000000030e-05 1.283699999999999945e-02 -2.010000000000000068e-04 -1.599999999999999928e-05 1.283699999999999945e-02 -2.049999999999999956e-04 -7.999999999999999638e-06 1.284300000000000025e-02 -2.110000000000000059e-04 -1.999999999999999909e-06 1.284099999999999998e-02 -2.130000000000000003e-04 -3.000000000000000076e-06 1.284000000000000072e-02 -2.079999999999999872e-04 -2.799999999999999958e-05 1.282699999999999986e-02 -2.100000000000000087e-04 -3.100000000000000135e-05 1.282999999999999939e-02 -2.079999999999999872e-04 -2.699999999999999899e-05 1.282499999999999959e-02 -2.120000000000000031e-04 -1.699999999999999987e-05 -1.346999999999999933e-02 2.680000000000000090e-04 -1.399999999999999979e-05 -1.347199999999999960e-02 2.640000000000000202e-04 -1.299999999999999920e-05 -1.347399999999999987e-02 2.640000000000000202e-04 0.000000000000000000e+00 -1.346499999999999954e-02 2.700000000000000035e-04 -5.000000000000000409e-06 -1.346299999999999927e-02 2.739999999999999923e-04 -9.999999999999999547e-07 -1.346600000000000054e-02 2.779999999999999811e-04 -2.799999999999999958e-05 -1.348000000000000066e-02 2.739999999999999923e-04 -2.599999999999999840e-05 -1.348000000000000066e-02 2.750000000000000166e-04 -3.100000000000000135e-05 -1.347899999999999966e-02 2.700000000000000035e-04
4.273799999999999821e-02 -1.020199999999999926e-02 -2.019400000000000014e-02 -2.575600000000000112e-02 -6.749999999999999924e-03 3.472999999999999959e-03 1.317499999999999921e-02 -3.619100000000000095e-02 -1.563399999999999859e-02 -9.770000000000000039e-04 -3.850300000000000250e-02 5.780999999999999681e-03 1.474699999999999969e-02 -2.590800000000000047e-02 2.301699999999999927e-02 3.452000000000000207e-03 2.138699999999999976e-02 -6.949000000000000316e-03 1.248900000000000010e-02 9.645000000000000795e-03 8.444000000000000117e-03 -4.934000000000000018e-03 -4.022999999999999667e-03 1.122500000000000060e-02 1.232800000000000042e-02 -9.478999999999999579e-03 -2.636499999999999955e-02 6.259999999999999939e-03 -6.330099999999999616e-02 1.276900000000000084e-02 -1.117800000000000044e-02 -3.977800000000000086e-02 3.800800000000000012e-02 -6.172000000000000403e-03 -5.520699999999999913e-02 2.557399999999999951e-02 2.056600000000000095e-02 -5.519500000000000101e-02 1.907100000000000115e-02 -1.725099999999999897e-02 -3.775999999999999843e-03 -7.714000000000000370e-03 1.531099999999999996e-02 -4.327299999999999897e-02 1.208700000000000052e-02 -1.110700000000000055e-02 -3.890799999999999814e-02 -4.729300000000000170e-02 1.159199999999999987e-02 -4.592099999999999654e-02 -1.845400000000000165e-02 -3.278199999999999864e-02 -3.046199999999999949e-02 1.913700000000000123e-02 -2.188999999999999974e-03 2.438399999999999943e-02 1.645399999999999988e-02 -7.630999999999999762e-03 7.406400000000000483e-02 2.842000000000000082e-02 5.664999999999999897e-03 3.103900000000000062e-02 1.889899999999999913e-02 3.152800000000000047e-02 2.688499999999999918e-02 9.084999999999999326e-03 1.391700000000000055e-02 2.542099999999999915e-02 -3.249099999999999905e-02 -2.039399999999999893e-02 5.130799999999999944e-02 2.952999999999999896e-03 -6.385000000000000051e-03 2.772499999999999964e-02 4.785799999999999776e-02 -2.331599999999999992e-02 3.496799999999999908e-02 -2.601799999999999946e-02 1.690900000000000042e-02 3.132100000000000162e-02 -9.313000000000000098e-03 1.348999999999999939e-03 -3.548799999999999871e-02 4.295000000000000207e-03 4.390999999999999938e-03 -1.789999999999999925e-02 3.703499999999999848e-02 1.628800000000000039e-02 6.290999999999999717e-03 1.675899999999999959e-02 1.008900000000000075e-02 8.578999999999999820e-03 3.400299999999999850e-02 -2.942999999999999870e-03 1.101199999999999922e-02 2.851400000000000115e-02 1.079699999999999931e-02 -1.008900000000000075e-02 4.743900000000000200e-02 2.112800000000000095e-02 7.877000000000000321e-03 2.378200000000000106e-02 4.159999999999999636e-03 -5.431000000000000064e-03 7.231100000000000028e-02 -1.901299999999999865e-02 4.115999999999999867e-03 7.356999999999999824e-03 -5.498600000000000015e-02 4.294599999999999806e-02 2.997000000000000011e-02 -3.958300000000000013e-02 -1.784600000000000075e-02 -5.852000000000000257e-02 2.872200000000000100e-02 2.252300000000000135e-02 -5.415999999999999807e-03 5.007000000000000166e-03 4.311999999999999861e-02 -7.668000000000000337e-03 -1.894600000000000103e-02 7.821400000000000574e-02 -2.562000000000000041e-02 2.266500000000000112e-02 9.844000000000000319e-03 1.093000000000000048e-02 1.233599999999999974e-02 -2.850999999999999802e-03 -1.179200000000000040e-02 -2.242800000000000002e-02 6.769100000000000117e-02 -7.257000000000000429e-03 -8.451000000000000179e-03 -3.217999999999999940e-03 4.420000000000000318e-02 -7.697999999999999982e-03 -4.717600000000000265e-02 -4.980000000000000052e-03 1.396400000000000072e-02 -7.870999999999999525e-03 -5.792100000000000026e-02 -3.884399999999999659e-02 -6.993000000000000084e-03 -4.821199999999999791e-02 -2.392999999999999988e-02 -3.357899999999999774e-02 -4.875000000000000167e-02 -1.750900000000000026e-02 2.085899999999999907e-02 -3.887299999999999783e-02 3.830499999999999877e-02 -5.539499999999999980e-02 -4.192099999999999993e-02 -2.321300000000000099e-02 9.098999999999999450e-03 -2.880999999999999880e-03 2.462400000000000005e-02 1.121899999999999981e-02 -8.071200000000000596e-02 1.282999999999999939e-02 5.006399999999999739e-02 -9.565999999999999850e-03
8.532499999999999807e-02 -1.856700000000000017e-02 -3.041800000000000059e-02 -5.132099999999999856e-02 -1.150100000000000081e-02 1.703599999999999906e-02 2.630800000000000152e-02 -7.000699999999999978e-02 -2.124399999999999900e-02 -1.988999999999999883e-03 -7.433700000000000030e-02 2.122599999999999834e-02 2.960300000000000084e-02 -4.910899999999999987e-02 5.561200000000000171e-02 7.017999999999999933e-03 4.473200000000000093e-02 -3.818999999999999912e-03 2.443400000000000086e-02 2.094100000000000128e-02 2.662600000000000036e-02 -9.964000000000000634e-03 -5.688000000000000347e-03 3.239999999999999825e-02 2.461899999999999852e-02 -1.700000000000000122e-02 -4.193399999999999905e-02 1.236399999999999999e-02 -8.743900000000000283e-02 3.659699999999999759e-02 -2.196599999999999941e-02 -4.087099999999999761e-02 8.654499999999999693e-02 -1.245699999999999932e-02 -7.115499999999999603e-02 6.196700000000000125e-02 4.082000000000000212e-02 -7.157099999999999573e-02 4.890200000000000102e-02 -3.427399999999999891e-02 3.120099999999999957e-02 -4.433999999999999574e-03 3.050100000000000033e-02 -4.770300000000000235e-02 3.542599999999999916e-02 -2.230299999999999991e-02 -3.914999999999999730e-02 -8.297400000000000608e-02 2.315700000000000050e-02 -5.303999999999999687e-02 -2.549299999999999830e-02 -6.479300000000000337e-02 -2.235600000000000087e-02 4.900199999999999695e-02 -4.621000000000000107e-03 7.839000000000000482e-03 2.155800000000000077e-02 -1.526699999999999932e-02 1.073759999999999992e-01 4.586599999999999705e-02 1.119099999999999956e-02 2.100700000000000137e-02 2.627799999999999928e-02 6.302599999999999869e-02 1.280000000000000061e-02 6.960000000000000041e-03 2.773700000000000124e-02 1.008900000000000075e-02 -7.558600000000000041e-02 -4.048999999999999821e-02 6.151299999999999824e-02 -5.370999999999999906e-03 -1.267899999999999930e-02 1.428500000000000082e-02 8.412999999999999645e-02 -4.624700000000000338e-02 2.907500000000000015e-02 -6.294700000000000295e-02 3.356399999999999662e-02 2.162100000000000133e-02 -2.982599999999999835e-02 2.722000000000000027e-03 -7.090100000000000569e-02 -1.196999999999999930e-03 8.876999999999999474e-03 -3.613199999999999745e-02 6.364699999999999525e-02 3.247900000000000093e-02 1.213999999999999975e-02 2.310800000000000007e-02 2.018199999999999855e-02 1.672600000000000128e-02 5.752100000000000268e-02 -6.003999999999999788e-03 2.161000000000000074e-02 4.668300000000000227e-02 2.156699999999999937e-02 -2.073600000000000096e-02 8.460900000000000365e-02 4.207700000000000329e-02 1.516900000000000019e-02 3.730399999999999688e-02 8.498999999999999611e-03 -1.106999999999999998e-02 1.345899999999999874e-01 -3.782599999999999851e-02 7.832999999999999685e-03 4.338999999999999975e-03 -1.094569999999999987e-01 7.266699999999999549e-02 5.975099999999999856e-02 -7.830800000000000261e-02 -4.836000000000000021e-02 -1.159599999999999936e-01 5.672100000000000058e-02 3.199699999999999767e-02 -1.053600000000000023e-02 9.844000000000000319e-03 7.265900000000000136e-02 -1.477700000000000020e-02 -3.762200000000000266e-02 1.422970000000000068e-01 -5.091400000000000092e-02 4.512300000000000338e-02 7.033000000000000189e-03 2.203600000000000003e-02 2.435000000000000012e-02 -1.846199999999999924e-02 -2.308699999999999988e-02 -4.484300000000000092e-02 1.218299999999999939e-01 -1.431100000000000080e-02 -1.682000000000000162e-02 -1.900400000000000006e-02 8.747299999999999520e-02 -1.543699999999999933e-02 -8.073099999999999721e-02 -9.891999999999999751e-03 2.790499999999999925e-02 -2.243999999999999901e-03 -1.150749999999999967e-01 -7.734199999999999409e-02 -7.739999999999999485e-04 -9.612500000000000211e-02 -4.733300000000000007e-02 -5.374400000000000011e-02 -9.704400000000000526e-02 -3.507600000000000301e-02 5.496800000000000297e-02 -7.757699999999999319e-02 7.589200000000000113e-02 -9.655600000000000294e-02 -8.286399999999999322e-02 -4.579600000000000337e-02 3.148900000000000310e-02 -5.638999999999999915e-03 4.874599999999999766e-02 3.575699999999999712e-02 -1.603670000000000095e-01 2.544899999999999940e-02 1.121769999999999989e-01 -1.929499999999999965e-02
1.277429999999999954e-01 -2.697099999999999845e-02 -4.094099999999999823e-02 -7.652100000000000568e-02 -1.624400000000000149e-02 3.042999999999999872e-02 3.947099999999999914e-02 -1.032850000000000018e-01 -2.687700000000000158e-02 -3.063999999999999883e-03 -1.094719999999999999e-01 3.625400000000000150e-02 4.439099999999999990e-02 -7.158299999999999386e-02 8.741999999999999771e-02 1.054800000000000008e-02 6.797000000000000264e-02 -7.020000000000000415e-04 3.566500000000000226e-02 3.194999999999999923e-02 4.422199999999999742e-02 -1.494200000000000042e-02 -6.991999999999999951e-03 5.329400000000000109e-02 3.686799999999999800e-02 -2.454900000000000138e-02 -5.744699999999999807e-02 1.834799999999999973e-02 -1.108320000000000000e-01 5.977400000000000074e-02 -3.229599999999999832e-02 -4.204600000000000004e-02 1.337510000000000088e-01 -1.886799999999999936e-02 -8.643699999999999994e-02 9.728799999999999948e-02 6.059799999999999909e-02 -8.776000000000000467e-02 7.781399999999999428e-02 -5.098500000000000254e-02 6.593899999999999761e-02 -1.794000000000000022e-03 4.543900000000000022e-02 -5.192900000000000293e-02 5.822599999999999998e-02 -3.360099999999999892e-02 -3.939700000000000146e-02 -1.188189999999999941e-01 3.455600000000000338e-02 -6.010599999999999971e-02 -3.275800000000000239e-02 -9.584800000000000264e-02 -1.437699999999999916e-02 7.764500000000000568e-02 -7.347000000000000232e-03 -8.281000000000000166e-03 2.653399999999999856e-02 -2.271600000000000008e-02 1.406979999999999897e-01 6.345900000000000152e-02 1.671399999999999969e-02 1.113399999999999980e-02 3.349400000000000294e-02 9.432599999999999318e-02 -1.144999999999999967e-03 4.838000000000000286e-03 4.116000000000000214e-02 -5.080999999999999579e-03 -1.175900000000000001e-01 -6.040299999999999836e-02 7.157900000000000373e-02 -1.378399999999999938e-02 -1.892800000000000038e-02 8.310000000000000329e-04 1.200910000000000033e-01 -6.856199999999999795e-02 2.326100000000000043e-02 -9.911200000000000565e-02 4.985799999999999954e-02 1.201900000000000017e-02 -4.963399999999999757e-02 4.079000000000000160e-03 -1.056180000000000035e-01 -6.170000000000000137e-03 1.349700000000000032e-02 -5.422500000000000236e-02 9.007300000000000029e-02 4.864700000000000274e-02 1.788599999999999912e-02 2.931100000000000025e-02 3.030100000000000154e-02 2.476599999999999982e-02 8.069700000000000484e-02 -9.114000000000000573e-03 3.207399999999999834e-02 6.445900000000000241e-02 3.222900000000000070e-02 -3.149099999999999816e-02 1.214790000000000036e-01 6.270399999999999585e-02 2.219099999999999892e-02 5.056800000000000184e-02 1.300300000000000067e-02 -1.655799999999999980e-02 1.967129999999999990e-01 -5.636200000000000238e-02 1.148199999999999915e-02 1.324000000000000090e-03 -1.631180000000000130e-01 1.021210000000000034e-01 8.895100000000000229e-02 -1.160940000000000027e-01 -7.858500000000000207e-02 -1.722519999999999885e-01 8.432299999999999518e-02 4.128500000000000225e-02 -1.527799999999999991e-02 1.442399999999999932e-02 1.015100000000000030e-01 -2.152300000000000046e-02 -5.609299999999999703e-02 2.047360000000000013e-01 -7.584200000000000663e-02 6.717199999999999560e-02 4.355999999999999629e-03 3.295100000000000112e-02 3.610700000000000021e-02 -3.382299999999999890e-02 -3.409199999999999731e-02 -6.702400000000000024e-02 1.749950000000000117e-01 -2.138500000000000123e-02 -2.518400000000000152e-02 -3.433100000000000041e-02 1.294810000000000128e-01 -2.308100000000000082e-02 -1.139899999999999941e-01 -1.436600000000000030e-02 4.161100000000000215e-02 3.285000000000000159e-03 -1.707720000000000071e-01 -1.153030000000000027e-01 5.243000000000000264e-03 -1.430790000000000117e-01 -7.030699999999999450e-02 -7.401299999999999546e-02 -1.445299999999999918e-01 -5.255800000000000055e-02 8.871800000000000519e-02 -1.157569999999999988e-01 1.124860000000000027e-01 -1.366590000000000027e-01 -1.225269999999999970e-01 -6.794999999999999651e-02 5.357300000000000256e-02 -8.096000000000000765e-03 7.218399999999999817e-02 6.001399999999999790e-02 -2.381149999999999933e-01 3.771700000000000053e-02 1.727339999999999987e-01 -2.873900000000000066e-02
1.698780000000000012e-01 -3.543099999999999722e-02 -5.189099999999999963e-02 -1.012929999999999942e-01 -2.095299999999999940e-02 4.346200000000000063e-02 5.247799999999999687e-02 -1.358900000000000108e-01 -3.245699999999999974e-02 -4.205000000000000404e-03 -1.437070000000000014e-01 5.070199999999999707e-02 5.918000000000000344e-02 -9.314500000000000557e-02 1.182200000000000056e-01 1.412300000000000014e-02 9.105800000000000005e-02 2.291000000000000068e-03 4.602200000000000041e-02 4.259799999999999698e-02 6.106199999999999822e-02 -1.990799999999999861e-02 -7.774999999999999793e-03 7.384000000000000286e-02 4.905999999999999944e-02 -3.225100000000000189e-02 -7.273799999999999710e-02 2.409000000000000030e-02 -1.334160000000000068e-01 8.211599999999999455e-02 -4.211700000000000166e-02 -4.327099999999999697e-02 1.793589999999999907e-01 -2.552600000000000008e-02 -1.009550000000000031e-01 1.312800000000000078e-01 7.980600000000000194e-02 -1.037949999999999984e-01 1.054640000000000022e-01 -6.736999999999999933e-02 1.003369999999999956e-01 1.000000000000000048e-04 6.010999999999999677e-02 -5.592599999999999655e-02 8.031900000000000150e-02 -4.491900000000000059e-02 -3.976999999999999980e-02 -1.547499999999999987e-01 4.572299999999999975e-02 -6.701799999999999424e-02 -4.033699999999999786e-02 -1.257739999999999969e-01 -6.421999999999999757e-03 1.049479999999999996e-01 -1.043700000000000010e-02 -2.382899999999999949e-02 3.138599999999999723e-02 -2.998299999999999924e-02 1.738200000000000023e-01 8.113399999999999779e-02 2.213999999999999996e-02 1.484999999999999992e-03 4.051099999999999840e-02 1.253019999999999967e-01 -1.475399999999999975e-02 2.748000000000000009e-03 5.422600000000000336e-02 -1.999599999999999989e-02 -1.582109999999999905e-01 -7.998900000000000454e-02 8.154999999999999749e-02 -2.215800000000000061e-02 -2.521599999999999883e-02 -1.264900000000000052e-02 1.555559999999999998e-01 -9.018900000000000527e-02 1.766399999999999915e-02 -1.343560000000000032e-01 6.568300000000000527e-02 2.468000000000000142e-03 -6.862899999999999556e-02 5.322000000000000342e-03 -1.395440000000000014e-01 -1.059700000000000052e-02 1.825799999999999992e-02 -7.199300000000000144e-02 1.159349999999999964e-01 6.467900000000000038e-02 2.351400000000000018e-02 3.512099999999999944e-02 4.044199999999999878e-02 3.260500000000000204e-02 1.034169999999999950e-01 -1.228600000000000005e-02 4.242400000000000337e-02 8.158700000000000674e-02 4.277600000000000152e-02 -4.231499999999999845e-02 1.575650000000000106e-01 8.291400000000000159e-02 2.879100000000000062e-02 6.331900000000000028e-02 1.768499999999999933e-02 -2.178099999999999828e-02 2.580279999999999796e-01 -7.448799999999999866e-02 1.511400000000000070e-02 -1.887999999999999921e-03 -2.155070000000000041e-01 1.309289999999999898e-01 1.172760000000000052e-01 -1.527159999999999906e-01 -1.082869999999999944e-01 -2.267699999999999994e-01 1.111570000000000058e-01 5.032600000000000268e-02 -1.961200000000000096e-02 1.870899999999999994e-02 1.294609999999999927e-01 -2.785199999999999829e-02 -7.414099999999999857e-02 2.650399999999999978e-01 -1.001579999999999970e-01 8.868399999999999894e-02 1.884999999999999957e-03 4.358999999999999680e-02 4.748299999999999743e-02 -4.884200000000000347e-02 -4.467800000000000243e-02 -8.878999999999999393e-02 2.267699999999999994e-01 -2.836500000000000132e-02 -3.343200000000000338e-02 -4.905799999999999744e-02 1.698030000000000095e-01 -3.058400000000000007e-02 -1.466349999999999876e-01 -1.830100000000000129e-02 5.495300000000000185e-02 8.689999999999999808e-03 -2.243690000000000129e-01 -1.523339999999999972e-01 1.097599999999999965e-02 -1.885000000000000009e-01 -9.262299999999999700e-02 -9.423499999999999932e-02 -1.906140000000000057e-01 -6.974800000000000444e-02 1.219220000000000026e-01 -1.529139999999999944e-01 1.478679999999999994e-01 -1.753889999999999894e-01 -1.604609999999999925e-01 -8.944599999999999773e-02 7.514200000000000046e-02 -1.015600000000000010e-02 9.476199999999999901e-02 8.383300000000000474e-02 -3.130720000000000169e-01 4.945100000000000190e-02 2.311660000000000104e-01 -3.774199999999999777e-02
2.116119999999999945e-01 -4.392100000000000171e-02 -6.326900000000000579e-02 -1.254959999999999964e-01 -2.561799999999999841e-02 5.610699999999999715e-02 6.518000000000000183e-02 -1.676570000000000005e-01 -3.781600000000000239e-02 -5.439000000000000258e-03 -1.768979999999999997e-01 6.454100000000000115e-02 7.394000000000000572e-02 -1.136690000000000061e-01 1.479129999999999889e-01 1.775799999999999948e-02 1.139050000000000062e-01 5.172000000000000382e-03 5.539600000000000080e-02 5.284599999999999714e-02 7.708500000000000074e-02 -2.486599999999999921e-02 -7.934999999999999346e-03 9.402900000000000147e-02 6.118099999999999927e-02 -4.017799999999999844e-02 -8.771800000000000430e-02 2.953599999999999975e-02 -1.550400000000000111e-01 1.035230000000000039e-01 -5.137900000000000106e-02 -4.456800000000000345e-02 2.230800000000000005e-01 -3.247900000000000093e-02 -1.146260000000000057e-01 1.636559999999999959e-01 9.832799999999999874e-02 -1.196330000000000032e-01 1.316829999999999945e-01 -8.338099999999999679e-02 1.341749999999999887e-01 1.168999999999999900e-03 7.445400000000000629e-02 -5.964699999999999863e-02 1.014960000000000029e-01 -5.622900000000000120e-02 -4.030899999999999761e-02 -1.907069999999999876e-01 5.656300000000000217e-02 -7.376199999999999424e-02 -4.830700000000000272e-02 -1.544270000000000087e-01 1.574000000000000095e-03 1.307089999999999919e-01 -1.394500000000000080e-02 -3.861200000000000049e-02 3.598799999999999916e-02 -3.701900000000000329e-02 2.064880000000000049e-01 9.868399999999999395e-02 2.742199999999999846e-02 -7.846000000000000543e-03 4.723499999999999921e-02 1.557870000000000088e-01 -2.787500000000000047e-02 6.049999999999999606e-04 6.687300000000000189e-02 -3.463299999999999712e-02 -1.972550000000000137e-01 -9.918200000000000627e-02 9.142899999999999638e-02 -3.050500000000000086e-02 -3.157999999999999696e-02 -2.610099999999999920e-02 1.902770000000000017e-01 -1.110239999999999977e-01 1.235799999999999919e-02 -1.685609999999999886e-01 8.094999999999999418e-02 -7.035999999999999720e-03 -8.669999999999999929e-02 6.408999999999999767e-03 -1.725119999999999987e-01 -1.450199999999999927e-02 2.315899999999999903e-02 -8.927300000000000513e-02 1.409920000000000062e-01 8.053100000000000536e-02 2.898999999999999841e-02 4.039700000000000235e-02 5.058599999999999902e-02 4.018499999999999850e-02 1.254879999999999884e-01 -1.550900000000000022e-02 5.259199999999999986e-02 9.783200000000000229e-02 5.313600000000000267e-02 -5.314499999999999780e-02 1.924970000000000014e-01 1.025680000000000064e-01 3.488900000000000334e-02 7.527399999999999369e-02 2.255800000000000166e-02 -2.670000000000000151e-02 3.179390000000000271e-01 -9.207799999999999319e-02 1.874400000000000024e-02 -5.335000000000000332e-03 -2.662309999999999954e-01 1.588630000000000042e-01 1.444630000000000081e-01 -1.879730000000000012e-01 -1.372490000000000099e-01 -2.790059999999999762e-01 1.370250000000000079e-01 5.907500000000000251e-02 -2.347199999999999981e-02 2.263000000000000081e-02 1.563549999999999940e-01 -3.372900000000000204e-02 -9.165099999999999636e-02 3.228039999999999798e-01 -1.236150000000000027e-01 1.095389999999999975e-01 -3.649999999999999816e-04 5.385199999999999709e-02 5.843999999999999889e-02 -6.342200000000000615e-02 -5.474699999999999706e-02 -1.099440000000000001e-01 2.768050000000000233e-01 -3.516299999999999981e-02 -4.149900000000000116e-02 -6.303499999999999381e-02 2.081149999999999944e-01 -3.785600000000000076e-02 -1.783970000000000000e-01 -2.157600000000000143e-02 6.779499999999999416e-02 1.388099999999999924e-02 -2.752899999999999792e-01 -1.880999999999999894e-01 1.643800000000000122e-02 -2.318719999999999948e-01 -1.141579999999999956e-01 -1.142979999999999968e-01 -2.348220000000000030e-01 -8.645200000000000107e-02 1.543309999999999960e-01 -1.886249999999999871e-01 1.818130000000000024e-01 -2.124189999999999967e-01 -1.963010000000000033e-01 -1.101649999999999990e-01 9.604000000000000037e-02 -1.175499999999999982e-02 1.163239999999999968e-01 1.070269999999999971e-01 -3.844719999999999804e-01 6.052500000000000241e-02 2.871070000000000011e-01 -4.613400000000000140e-02
2.528690000000000104e-01 -5.242600000000000038e-02 -7.510500000000000509e-02 -1.490120000000000056e-01 -3.023599999999999899e-02 6.834300000000000097e-02 7.742699999999999583e-02 -1.984370000000000023e-01 -4.274900000000000228e-02 -6.792000000000000294e-03 -2.089199999999999946e-01 7.777699999999999891e-02 8.863100000000000145e-02 -1.330620000000000136e-01 1.763840000000000130e-01 2.148200000000000109e-02 1.364440000000000097e-01 7.953999999999999265e-03 6.367899999999999949e-02 6.268300000000000261e-02 9.225200000000000067e-02 -2.979400000000000104e-02 -7.394999999999999664e-03 1.138200000000000045e-01 7.322299999999999642e-02 -4.837999999999999939e-02 -1.023700000000000027e-01 3.460699999999999887e-02 -1.755730000000000068e-01 1.238790000000000030e-01 -6.004899999999999821e-02 -4.594000000000000167e-02 2.647519999999999873e-01 -3.978299999999999892e-02 -1.274029999999999885e-01 1.941859999999999975e-01 1.160810000000000036e-01 -1.352760000000000074e-01 1.562939999999999885e-01 -9.899199999999999666e-02 1.673099999999999865e-01 1.350999999999999987e-03 8.842600000000000460e-02 -6.307000000000000106e-02 1.215930000000000066e-01 -6.747300000000000519e-02 -4.107000000000000234e-02 -2.267419999999999991e-01 6.699299999999999700e-02 -8.027900000000000313e-02 -5.673600000000000171e-02 -1.816889999999999894e-01 9.672999999999999307e-03 1.547659999999999869e-01 -1.794799999999999868e-02 -5.245500000000000163e-02 4.019899999999999862e-02 -4.377700000000000341e-02 2.384570000000000023e-01 1.159110000000000001e-01 3.252000000000000030e-02 -1.675400000000000153e-02 5.358099999999999669e-02 1.856480000000000075e-01 -4.035600000000000298e-02 -1.708000000000000100e-03 7.902800000000000102e-02 -4.897900000000000170e-02 -2.345329999999999915e-01 -1.179370000000000002e-01 1.012180000000000024e-01 -3.886900000000000077e-02 -3.808199999999999780e-02 -3.947200000000000014e-02 2.240409999999999902e-01 -1.309680000000000011e-01 7.387999999999999602e-03 -2.016259999999999997e-01 9.558200000000000029e-02 -1.645900000000000141e-02 -1.037259999999999988e-01 7.272999999999999951e-03 -2.044030000000000014e-01 -1.786499999999999894e-02 2.819299999999999931e-02 -1.058980000000000060e-01 1.649980000000000058e-01 9.617599999999999760e-02 3.427399999999999891e-02 4.497799999999999715e-02 6.073200000000000126e-02 4.742799999999999794e-02 1.467789999999999928e-01 -1.876600000000000143e-02 6.256000000000000449e-02 1.129330000000000056e-01 6.323399999999999854e-02 -6.393000000000000071e-02 2.259089999999999987e-01 1.215569999999999984e-01 4.040400000000000241e-02 8.614900000000000335e-02 2.763699999999999837e-02 -3.123599999999999988e-02 3.758310000000000262e-01 -1.090229999999999949e-01 2.237499999999999906e-02 -9.095999999999999919e-03 -3.148690000000000100e-01 1.857189999999999952e-01 1.702799999999999869e-01 -2.216909999999999992e-01 -1.652409999999999990e-01 -3.285270000000000135e-01 1.617560000000000109e-01 6.748899999999999344e-02 -2.678300000000000125e-02 2.613400000000000098e-02 1.820309999999999984e-01 -3.912500000000000006e-02 -1.085229999999999945e-01 3.776200000000000112e-01 -1.460009999999999919e-01 1.295659999999999867e-01 -2.373999999999999808e-03 6.362400000000000000e-02 6.888500000000000179e-02 -7.743800000000000683e-02 -6.420700000000000018e-02 -1.302770000000000039e-01 3.247470000000000079e-01 -4.170700000000000102e-02 -4.932700000000000279e-02 -7.613499999999999435e-02 2.441679999999999962e-01 -4.480599999999999861e-02 -2.089739999999999931e-01 -2.405900000000000052e-02 8.001600000000000379e-02 1.879000000000000115e-02 -3.230020000000000113e-01 -2.222609999999999864e-01 2.160000000000000114e-02 -2.726850000000000107e-01 -1.347859999999999892e-01 -1.340540000000000065e-01 -2.766529999999999823e-01 -1.024599999999999955e-01 1.856990000000000030e-01 -2.224569999999999881e-01 2.141240000000000088e-01 -2.474840000000000095e-01 -2.297059999999999935e-01 -1.299740000000000062e-01 1.161360000000000031e-01 -1.280399999999999941e-02 1.367220000000000102e-01 1.294180000000000053e-01 -4.516120000000000134e-01 7.082199999999999607e-02 3.401739999999999764e-01 -5.371999999999999692e-02