-9.204222629827736590e-02 -1.121143031531079840e-03 0.000000000000000000e+00 -1.121143031531079840e-03 5.690162544062659089e-01 -2.142486250303771822e+00 0.000000000000000000e+00 -2.142486250303771822e+00 3.171749802105667815e-01
-6.546028667971788562e-02 -4.933029338736751035e-02 2.462898078944081651e-02 -4.933029338736751035e-02 4.126529674119231994e-01 -2.085470702264780485e+00 2.462898078944081651e-02 -2.085470702264780485e+00 1.419150082492889320e-01
-3.321838304713860962e-02 -9.791918573775479362e-02 4.916754681827428808e-02 -9.791918573775479362e-02 2.671756175947048728e-01 -2.032270657123418367e+00 4.916754681827428808e-02 -2.032270657123418367e+00 -2.287493443365832060e-02
8.137328454661063235e-03 -1.465623269445064658e-01 7.370611284710776312e-02 -1.465623269445064658e-01 1.365986203255770415e-01 -1.982669119454228746e+00 7.370611284710776312e-02 -1.982669119454228746e+00 -1.700339987981732970e-01
5.571357548624607942e-02 -1.948257261567073184e-01 9.815426411533390016e-02 -1.948257261567073184e-01 1.934875876997186120e-02 -1.936666089257211842e+00 9.815426411533390016e-02 -1.936666089257211842e+00 -3.034138536461288282e-01
1.080637218778989217e-01 -2.423296413798064486e-01 1.224215858623453196e-01 -2.423296413798064486e-01 -8.522495334848352588e-02 -1.894207317676002145e+00 1.224215858623453196e-01 -1.894207317676002145e+00 -4.240271442963272630e-01
1.635783848908088367e-01 -2.886762476671315691e-01 1.464899951360205954e-01 -2.886762476671315691e-01 -1.779904977316196513e-01 -1.855130058141507776e+00 1.464899951360205954e-01 -1.855130058141507776e+00 -5.338449125300086529e-01
2.203769375043430623e-01 -3.334496371198888975e-01 1.702871601278738434e-01 -3.334496371198888975e-01 -2.602498469321822272e-01 -1.819380061797363446e+00 1.702871601278738434e-01 -1.819380061797363446e+00 -6.350913614581138456e-01
2.771212412615128851e-01 -3.763423995520134291e-01 1.938854126463909200e-01 -3.763423995520134291e-01 -3.327986508435160085e-01 -1.786758416170233454e+00 1.938854126463909200e-01 -1.786758416170233454e+00 -7.296290351491538928e-01
3.316413419077420266e-01 -4.168662952562255386e-01 2.169954254576283437e-01 -4.168662952562255386e-01 -3.977345319117113198e-01 -1.756921545169809251e+00 2.169954254576283437e-01 -1.756921545169809251e+00 -8.210021922189367771e-01
2.456550878126486026e+01 1.139517405735732147e+01 -8.232133061603800428e+00 1.139517405735732147e+01 -1.672114123560432475e+01 -2.229674178645820959e+01 -8.232133061603800428e+00 -2.229674178645820959e+01 2.601471927896134417e+01
2.465727941428410475e+01 1.127718581055795610e+01 -8.072203820587299461e+00 1.127718581055795610e+01 -1.690430514051232436e+01 -2.195463696730404024e+01 -8.072203820587299461e+00 -2.195463696730404024e+01 2.588316400104204007e+01
2.468601276893414820e+01 1.113562147789189005e+01 -7.885967117902468182e+00 1.113562147789189005e+01 -1.709925708835367431e+01 -2.157675471906404141e+01 -7.885967117902468182e+00 -2.157675471906404141e+01 2.563852617101972342e+01
2.465355971171214833e+01 1.097157720359530408e+01 -7.673962040878572921e+00 1.097157720359530408e+01 -1.730267270726454498e+01 -2.116329270709228538e+01 -7.673962040878572921e+00 -2.116329270709228538e+01 2.528901788587692323e+01
2.455884206795956715e+01 1.078706558036413199e+01 -7.437572246994072600e+00 1.078706558036413199e+01 -1.751395900118274795e+01 -2.071597601084242513e+01 -7.437572246994072600e+00 -2.071597601084242513e+01 2.483467508476892149e+01
2.440153638527884183e+01 1.058422498793781230e+01 -7.178325150348562111e+00 1.058422498793781230e+01 -1.773273860897779386e+01 -2.023651174019049037e+01 -7.178325150348562111e+00 -2.023651174019049037e+01 2.427736660377052758e+01
2.418198408564517976e+01 1.036539147140984163e+01 -6.897963799973345189e+00 1.036539147140984163e+01 -1.795852635205333669e+01 -1.972685857909948126e+01 -6.897963799973345189e+00 -1.972685857909948126e+01 2.362000351445978552e+01
2.390061643892199328e+01 1.013320655869364195e+01 -6.598321092787937658e+00 1.013320655869364195e+01 -1.819141207829758500e+01 -1.918908302899826879e+01 -6.598321092787937658e+00 -1.918908302899826879e+01 2.286522734475012086e+01
2.355849365019018293e+01 9.890473503901407781e+00 -6.281553378109413721e+00 9.890473503901407781e+00 -1.843179111841867979e+01 -1.862555707413563510e+01 -6.281553378109413721e+00 -1.862555707413563510e+01 2.201681170594640591e+01
2.315699937692819788e+01 9.639743987058349006e+00 -5.949637309478427838e+00 9.639743987058349006e+00 -1.867977128988246349e+01 -1.803850894213922729e+01 -5.949637309478427838e+00 -1.803850894213922729e+01 2.107888960090638619e+01
2.668472013023297507e+01 1.312740805380473219e+01 1.423114672096403943e+01 1.312740805380473219e+01 1.783248547999203382e+01 1.896870216196685988e+01 1.423114672096403943e+01 1.896870216196685988e+01 4.080074974140082134e+00
2.661476748293801009e+01 1.299132995572334970e+01 1.415842998730180113e+01 1.299132995572334970e+01 1.766123615473727426e+01 1.882698958013679302e+01 1.415842998730180113e+01 1.882698958013679302e+01 3.745142124135869999e+00
2.653898544836847151e+01 1.284100618174907460e+01 1.405420975645353465e+01 1.284100618174907460e+01 1.749659583086068437e+01 1.864138826797501736e+01 1.405420975645353465e+01 1.864138826797501736e+01 3.396973552872960767e+00
2.645852572917738499e+01 1.267774790105612581e+01 1.391931879802989513e+01 1.267774790105612581e+01 1.733980480352707332e+01 1.841303220963219545e+01 1.391931879802989513e+01 1.841303220963219545e+01 3.038652279761011155e+00
2.637283905179176458e+01 1.250309662334933059e+01 1.375464303714859859e+01 1.250309662334933059e+01 1.719093394674585440e+01 1.814317941877549956e+01 1.375464303714859859e+01 1.814317941877549956e+01 2.670957918903611894e+00
2.628150017215510914e+01 1.231870016934764678e+01 1.356119242844384232e+01 1.231870016934764678e+01 1.704969976447936020e+01 1.783317650158384993e+01 1.356119242844384232e+01 1.783317650158384993e+01 2.294333432859622324e+00
2.618325107660025708e+01 1.212627723377944378e+01 1.333990605254041029e+01 1.212627723377944378e+01 1.691493283557219840e+01 1.748440550124089299e+01 1.333990605254041029e+01 1.748440550124089299e+01 1.907839741004261791e+00
2.607756021005658198e+01 1.192754651137309452e+01 1.309174070856543182e+01 1.192754651137309452e+01 1.678615476046080701e+01 1.709823074242791208e+01 1.309174070856543182e+01 1.709823074242791208e+01 1.511494561839884510e+00
2.596316955885691868e+01 1.172435072637344611e+01 1.281747601062250119e+01 1.172435072637344611e+01 1.666212524398038397e+01 1.667592795731441768e+01 1.281747601062250119e+01 1.667592795731441768e+01 1.104022163196977546e+00
2.583993737498243703e+01 1.151817823297827204e+01 1.251782069880579229e+01 1.151817823297827204e+01 1.654272025661444090e+01 1.621845394502754445e+01 1.251782069880579229e+01 1.621845394502754445e+01 6.844303089436974963e-01
2.965399324271142589e+01 9.179830327687703573e+00 1.354915453276870352e+01 9.179830327687703573e+00 -1.149609381629370830e+01 -1.239860860801489295e+01 1.354915453276870352e+01 -1.239860860801489295e+01 -2.013783428050855306e+00
2.974184134730125351e+01 9.152273310225824687e+00 1.330845755702534561e+01 9.152273310225824687e+00 -1.161086978269559822e+01 -1.242976080061857047e+01 1.330845755702534561e+01 -1.242976080061857047e+01 -2.063864217776097298e+00
2.982302040200304560e+01 9.114164453722768400e+00 1.304254042766227961e+01 9.114164453722768400e+00 -1.169992227095792892e+01 -1.244849166310733679e+01 1.304254042766227961e+01 -1.244849166310733679e+01 -2.101182135747956981e+00
2.989555306048881533e+01 9.066078986201224765e+00 1.275185254157222658e+01 9.066078986201224765e+00 -1.176402424373618238e+01 -1.245447762971843098e+01 1.275185254157222658e+01 -1.245447762971843098e+01 -2.130428885526481242e+00
2.996078751343673474e+01 9.008286545796826417e+00 1.243644782638231483e+01 9.008286545796826417e+00 -1.180038944029546499e+01 -1.244716144830487181e+01 1.243644782638231483e+01 -1.244716144830487181e+01 -2.147541919201438443e+00
3.001600940361474557e+01 8.941398312283679317e+00 1.209740483463508198e+01 8.941398312283679317e+00 -1.181034807543824350e+01 -1.242591396321684805e+01 1.209740483463508198e+01 -1.242591396321684805e+01 -2.156314146547424926e+00
3.005951102283049892e+01 8.865917610181638153e+00 1.173486737333620233e+01 8.865917610181638153e+00 -1.179528429159411296e+01 -1.239030375343734036e+01 1.173486737333620233e+01 -1.239030375343734036e+01 -2.158147685869741483e+00
3.008940490413454683e+01 8.782293836383422203e+00 1.134951852576261544e+01 8.782293836383422203e+00 -1.175589914791571822e+01 -1.233941404930519425e+01 1.134951852576261544e+01 -1.233941404930519425e+01 -2.154696317733615807e+00
3.010479225374144363e+01 8.691084243036014456e+00 1.094101675027585152e+01 8.691084243036014456e+00 -1.169334310044843939e+01 -1.227288533330622755e+01 1.094101675027585152e+01 -1.227288533330622755e+01 -2.147577870952856571e+00
3.010312049730050887e+01 8.592792154659266046e+00 1.051009905777998021e+01 8.592792154659266046e+00 -1.160867672585910171e+01 -1.218972893227644683e+01 1.051009905777998021e+01 -1.218972893227644683e+01 -2.138805643606870088e+00
2.512253264142194453e+01 -3.358637432798013300e+00 -3.166444656410685621e+00 -3.358637432798013300e+00 1.723646652741107843e+01 1.929076011144558578e+01 -3.166444656410685621e+00 1.929076011144558578e+01 3.358845189738409687e+01
2.486516052661524157e+01 -3.290394559833806021e+00 -3.123836877108987498e+00 -3.290394559833806021e+00 1.708564907389936494e+01 1.936014740823401326e+01 -3.123836877108987498e+00 1.936014740823401326e+01 3.306905954639233158e+01
2.456035644592475009e+01 -3.218683202356196649e+00 -3.073975211413777053e+00 -3.218683202356196649e+00 1.689167803895440301e+01 1.936831683368690094e+01 -3.073975211413777053e+00 1.936831683368690094e+01 3.240883263894011179e+01
2.420989865790809858e+01 -3.144225227700461200e+00 -3.017176576691761980e+00 -3.144225227700461200e+00 1.665520486382998300e+01 1.931590222253766242e+01 -3.017176576691761980e+00 1.931590222253766242e+01 3.161389824411710947e+01
2.381531892983770504e+01 -3.067760109722248441e+00 -2.954004381594864004e+00 -3.067760109722248441e+00 1.637668731805578304e+01 1.920380150732530211e+01 -2.954004381594864004e+00 1.920380150732530211e+01 3.068758399427375494e+01
2.337797296378225909e+01 -2.990044928797581658e+00 -2.884881182612027306e+00 -2.990044928797581658e+00 1.605638949943740101e+01 1.903335278359813643e+01 -2.884881182612027306e+00 1.903335278359813643e+01 2.963309427611784130e+01
2.289868826619927944e+01 -2.911854371822854226e+00 -2.810247142752565264e+00 -2.911854371822854226e+00 1.569408252320998898e+01 1.880628149035268493e+01 -2.810247142752565264e+00 1.880628149035268493e+01 2.845435534369248387e+01
2.237802824574067628e+01 -2.833839880051852500e+00 -2.730524818505421170e+00 -2.833839880051852500e+00 1.528941425896609196e+01 1.852468280351327934e+01 -2.730524818505421170e+00 1.852468280351327934e+01 2.715471243586846484e+01
2.181771834140297983e+01 -2.756916992543952283e+00 -2.645995914196557219e+00 -2.756916992543952283e+00 1.484305375447987529e+01 1.819084557072836716e+01 -2.645995914196557219e+00 1.819084557072836716e+01 2.573865521534079548e+01
2.121818110967512183e+01 -2.681596298389959276e+00 -2.557135805876032730e+00 -2.681596298389959276e+00 1.435470169890500181e+01 1.780730513093159217e+01 -2.557135805876032730e+00 1.780730513093159217e+01 2.421086701652859219e+01
-2.237901791412652486e+01 -1.034154005323300751e+01 1.042844608837765108e+01 -1.034154005323300751e+01 -1.292643370534404923e+01 -8.009817940243999956e+00 1.042844608837765108e+01 -8.009817940243999956e+00 -2.538177254511951375e+01
-2.239830152337560421e+01 -1.029995049982369792e+01 1.056599013973309553e+01 -1.029995049982369792e+01 -1.298875313869611681e+01 -8.212963346910250095e+00 1.056599013973309553e+01 -8.212963346910250095e+00 -2.550524327010952064e+01
-2.237970396560942277e+01 -1.025111105101401243e+01 1.068439891729522273e+01 -1.025111105101401243e+01 -1.301528664334556851e+01 -8.406782161795453234e+00 1.068439891729522273e+01 -8.406782161795453234e+00 -2.553159135543927150e+01
-2.232011019625698367e+01 -1.019481774555228171e+01 1.078428430481905309e+01 -1.019481774555228171e+01 -1.300301188438125166e+01 -8.592220023430098053e+00 1.078428430481905309e+01 -8.592220023430098053e+00 -2.545425295719128655e+01
-2.221818519621642807e+01 -1.013153413173776052e+01 1.086531254752912190e+01 -1.013153413173776052e+01 -1.295046404917751381e+01 -8.768442544875520994e+00 1.086531254752912190e+01 -8.768442544875520994e+00 -2.526950114703954142e+01
-2.207455939117473420e+01 -1.006124166763847505e+01 1.092748364542542916e+01 -1.006124166763847505e+01 -1.285808814410164125e+01 -8.935319932607926674e+00 1.092748364542542916e+01 -8.935319932607926674e+00 -2.497791072487511599e+01
-2.189397951571629974e+01 -9.984737656329151889e+00 1.097107572748752702e+01 -9.984737656329151889e+00 -1.273038985862241113e+01 -9.092629683443675503e+00 1.097107572748752702e+01 -9.092629683443675503e+00 -2.459307292683221391e+01
-2.167281135117494983e+01 -9.901762510762205594e+00 1.099588483246374437e+01 -9.901762510762205594e+00 -1.256380914180152786e+01 -9.240242003858975650e+00 1.099588483246374437e+01 -9.240242003858975650e+00 -2.410334341963351434e+01
-2.141646914168600446e+01 -9.812891030828714278e+00 1.100200367001393253e+01 -9.812891030828714278e+00 -1.236348210879475751e+01 -9.377693345554567017e+00 1.100200367001393253e+01 -9.377693345554567017e+00 -2.352094133644741092e+01
-2.112450788088217379e+01 -9.718290093916408523e+00 1.098946932400203202e+01 -9.718290093916408523e+00 -1.212927896607831180e+01 -9.504965166598482895e+00 1.098946932400203202e+01 -9.504965166598482895e+00 -2.284692356739622099e+01
2.700983796752575827e+00 -4.229167914865487043e-01 -3.512686163978409937e+00 -4.229167914865487043e-01 -8.345739321739065630e+00 1.905850583353140948e+01 -3.512686163978409937e+00 1.905850583353140948e+01 -2.300730497561951182e+01
2.726244546802957469e+00 -5.259310062873808755e-01 -3.513781283200247074e+00 -5.259310062873808755e-01 -8.391697825082172102e+00 1.902165507171658376e+01 -3.513781283200247074e+00 1.902165507171658376e+01 -2.304181948309441808e+01
2.787680735148032163e+00 -6.276493300090387750e-01 -3.506060692686293834e+00 -6.276493300090387750e-01 -8.397301185100573662e+00 1.895027155043982248e+01 -3.506060692686293834e+00 1.895027155043982248e+01 -2.298629693854726241e+01
2.884927322047187381e+00 -7.275242030406038340e-01 -3.489414880514366324e+00 -7.275242030406038340e-01 -8.362713669677544814e+00 1.884455604155845521e+01 -3.489414880514366324e+00 1.884455604155845521e+01 -2.283997075852276382e+01
3.017162968084045715e+00 -8.249168058360042410e-01 -3.463533562904943963e+00 -8.249168058360042410e-01 -8.288409830475881535e+00 1.870450854507249261e+01 -3.463533562904943963e+00 1.870450854507249261e+01 -2.260364403045026549e+01
3.183110034166463542e+00 -9.192430748102601301e-01 -3.428343731909904157e+00 -9.192430748102601301e-01 -8.175083243002747579e+00 1.853040284078738509e+01 -3.428343731909904157e+00 1.853040284078738509e+01 -2.227994504046218438e+01
3.381034581526531024e+00 -1.009736426508085483e+00 -3.383681119645971513e+00 -1.009736426508085483e+00 -8.024248822181684559e+00 1.832209291280689456e+01 -3.383681119645971513e+00 1.832209291280689456e+01 -2.187237817006838725e+01
3.608983647551972762e+00 -1.095958813240745178e+00 -3.329490970152053642e+00 -1.095958813240745178e+00 -7.837220711078898283e+00 1.807968827305320048e+01 -3.329490970152053642e+00 1.807968827305320048e+01 -2.138404625706408879e+01
3.865752601098766839e+00 -1.177125399565922326e+00 -3.265682023492998631e+00 -1.177125399565922326e+00 -7.615075776929193907e+00 1.780289688973381246e+01 -3.265682023492998631e+00 1.780289688973381246e+01 -2.081772360347794049e+01
4.148968683852932493e+00 -1.252798137794882249e+00 -3.192217775694743853e+00 -1.252798137794882249e+00 -7.359511454526421304e+00 1.749170051086170119e+01 -3.192217775694743853e+00 1.749170051086170119e+01 -2.017773593023619938e+01
3.792692695416263149e+01 -1.583346377565928087e+01 8.984035807631508774e+00 -1.583346377565928087e+01 3.485302978286919284e+01 -1.463729351748148133e+01 8.984035807631508774e+00 -1.463729351748148133e+01 3.224361462786266941e+01
3.791780105847944071e+01 -1.578446206150513653e+01 8.770785353838309817e+00 -1.578446206150513653e+01 3.473267225580168827e+01 -1.439593530498404306e+01 8.770785353838309817e+00 -1.439593530498404306e+01 3.206488613373961982e+01
3.785539731466483460e+01 -1.571225449832801324e+01 8.532851525054375941e+00 -1.571225449832801324e+01 3.457017916466549678e+01 -1.413180580992472990e+01 8.532851525054375941e+00 -1.413180580992472990e+01 3.175493595102144440e+01
3.774451333644940831e+01 -1.561736256588123695e+01 8.271016540909693404e+00 -1.561736256588123695e+01 3.437093913357829678e+01 -1.384549604269064282e+01 8.271016540909693404e+00 -1.384549604269064282e+01 3.132400246553178036e+01
3.758400186837585011e+01 -1.550121164215722658e+01 7.986775310030464148e+00 -1.550121164215722658e+01 3.413441330012834385e+01 -1.353818802405598554e+01 7.986775310030464148e+00 -1.353818802405598554e+01 3.077142513624973930e+01
3.737356740525061127e+01 -1.536529663578218141e+01 7.681535827750663792e+00 -1.536529663578218141e+01 3.386074072558317738e+01 -1.321116807074562871e+01 7.681535827750663792e+00 -1.321116807074562871e+01 3.009880316775220166e+01
3.711289705922168736e+01 -1.521142534323430340e+01 7.356949446622492061e+00 -1.521142534323430340e+01 3.354964328740769020e+01 -1.286573988214288633e+01 7.356949446622492061e+00 -1.286573988214288633e+01 2.930726643283802346e+01
3.680284258055285562e+01 -1.504145770896711198e+01 7.014476309955258948e+00 -1.504145770896711198e+01 3.320218132776697928e+01 -1.250313762699729203e+01 7.014476309955258948e+00 -1.250313762699729203e+01 2.840063911636493188e+01
3.644338658658565322e+01 -1.485753179996924267e+01 6.655663474350497211e+00 -1.485753179996924267e+01 3.281821578539348394e+01 -1.212464762203371826e+01 6.655663474350497211e+00 -1.212464762203371826e+01 2.738100713734622715e+01
3.603574586341119357e+01 -1.466178568322933273e+01 6.282057996409737832e+00 -1.466178568322933273e+01 3.239870270650164485e+01 -1.173162571461081072e+01 6.282057996409737832e+00 -1.173162571461081072e+01 2.625203823671362713e+01
3.826367476862925798e+01 1.052340650034001079e+01 -1.342098008409541876e+01 1.052340650034001079e+01 -1.097439044053388102e+00 1.486240311514943002e+01 -1.342098008409541876e+01 1.486240311514943002e+01 3.138012308715126863e+01
3.809972721972625465e+01 1.055807717254952038e+01 -1.342161656762399780e+01 1.055807717254952038e+01 -1.210591671356224586e+00 1.493632360495461242e+01 -1.342161656762399780e+01 1.493632360495461242e+01 3.102609680447751472e+01
3.786081605523513360e+01 1.057814408379775806e+01 -1.338645085267003765e+01 1.057814408379775806e+01 -1.347294189216464488e+00 1.497507837980583290e+01 -1.338645085267003765e+01 1.497507837980583290e+01 3.052834900503114568e+01
3.755369507259800343e+01 1.058332435251646686e+01 -1.331532381835139489e+01 1.058332435251646686e+01 -1.501818245876900715e+00 1.497986968636818794e+01 -1.331532381835139489e+01 1.497986968636818794e+01 2.989352740566620170e+01
3.717458073083945891e+01 1.057315829615722791e+01 -1.320832386515814960e+01 1.057315829615722791e+01 -1.682119885444764762e+00 1.495209425238494383e+01 -1.320832386515814960e+01 1.495209425238494383e+01 2.912099552285409843e+01
3.673268436102584644e+01 1.054784039579821631e+01 -1.306571619456054201e+01 1.054784039579821631e+01 -1.880755786655291528e+00 1.489214104001245609e+01 -1.306571619456054201e+01 1.489214104001245609e+01 2.821651706854807884e+01
3.622234833179203406e+01 1.050692864898903522e+01 -1.288822569057723300e+01 1.050692864898903522e+01 -2.109005852042732609e+00 1.480160125807217142e+01 -1.288822569057723300e+01 1.480160125807217142e+01 2.718398166431167695e+01
3.565571887047506294e+01 1.045127170043445197e+01 -1.267659491732489663e+01 1.045127170043445197e+01 -2.357057627208169581e+00 1.468051026676011972e+01 -1.267659491732489663e+01 1.468051026676011972e+01 2.602614740543539895e+01
3.502666098306335840e+01 1.038062202876224305e+01 -1.243192004088052904e+01 1.038062202876224305e+01 -2.637463981743012109e+00 1.453033551421163594e+01 -1.243192004088052904e+01 1.453033551421163594e+01 2.475231402347569798e+01
3.434652529248322139e+01 1.029596971946130779e+01 -1.215563314918343174e+01 1.029596971946130779e+01 -2.942215831245980517e+00 1.435063499797631970e+01 -1.215563314918343174e+01 1.435063499797631970e+01 2.336412576754807091e+01
1.583221707175686221e+00 -9.376248136764331775e+00 -1.679850670268180224e+01 -9.376248136764331775e+00 1.155884981408410006e+01 -1.206454609714491610e+01 -1.679850670268180224e+01 -1.206454609714491610e+01 -2.662060369363550549e+01
1.566665850641636881e+00 -9.379852748854348832e+00 -1.672822582374076106e+01 -9.379852748854348832e+00 1.154223961666427023e+01 -1.193785937876511305e+01 -1.672822582374076106e+01 -1.193785937876511305e+01 -2.667345926187003258e+01
1.595611429133333425e+00 -9.379526703539672994e+00 -1.663282134194115613e+01 -9.379526703539672994e+00 1.156774360572328675e+01 -1.179561305342387811e+01 -1.663282134194115613e+01 -1.179561305342387811e+01 -2.661810401288966332e+01
1.669659942821728915e+00 -9.375143205420155113e+00 -1.651189475745394120e+01 -9.375143205420155113e+00 1.163440175894571738e+01 -1.163760787120668816e+01 -1.651189475745394120e+01 -1.163760787120668816e+01 -2.645375906066490757e+01
1.791166163423919988e+00 -9.366104504752222226e+00 -1.636513813859303923e+01 -9.366104504752222226e+00 1.174471375707740251e+01 -1.146418799105681074e+01 -1.636513813859303923e+01 -1.146418799105681074e+01 -2.617710961116322821e+01
1.957340592136576518e+00 -9.352446828793061329e+00 -1.619258771261562657e+01 -9.352446828793061329e+00 1.189558216962893056e+01 -1.127582436731766613e+01 -1.619258771261562657e+01 -1.127582436731766613e+01 -2.579741172859567655e+01
2.165900911756974079e+00 -9.333789791342217868e+00 -1.599360950252095215e+01 -9.333789791342217868e+00 1.208454354311164636e+01 -1.107237209096050812e+01 -1.599360950252095215e+01 -1.107237209096050812e+01 -2.531392275418994231e+01
2.416702213256368470e+00 -9.309753006199237291e+00 -1.576789557662293539e+01 -9.309753006199237291e+00 1.231143485486821199e+01 -1.085417532092860782e+01 -1.576789557662293539e+01 -1.085417532092860782e+01 -2.472926916409200970e+01
2.707679542975151676e+00 -9.280064768935226027e+00 -1.551506554872111998e+01 -9.280064768935226027e+00 1.257402812858168240e+01 -1.062150576165085702e+01 -1.551506554872111998e+01 -1.062150576165085702e+01 -2.404866768333668503e+01
3.037130219825575850e+00 -9.244399034235506463e+00 -1.523464846447208743e+01 -9.244399034235506463e+00 1.287065691042149673e+01 -1.037450832215600371e+01 -1.523464846447208743e+01 -1.037450832215600371e+01 -2.327565046949960959e+01
-2.279172528407547915e+01 -2.129869643488027930e-01 -5.505288086883768806e+00 -2.129869643488027930e-01 -1.609191825250060504e+01 1.380140043041520315e+01 -5.505288086883768806e+00 1.380140043041520315e+01 2.190707259895112280e+00
-2.270885707627249417e+01 -2.473141285154669133e-01 -5.469891655519647955e+00 -2.473141285154669133e-01 -1.612419906047903240e+01 1.373608295316359573e+01 -5.469891655519647955e+00 1.373608295316359573e+01 2.246770045196307741e+00
-2.261538837470161312e+01 -2.809776095940537677e-01 -5.427379066600030555e+00 -2.809776095940537677e-01 -1.615113353247016903e+01 1.363896399460828768e+01 -5.427379066600030555e+00 1.363896399460828768e+01 2.306114374655218402e+00
-2.251248062476696177e+01 -3.137008729645311411e-01 -5.377363171656872609e+00 -3.137008729645311411e-01 -1.617250044077799132e+01 1.351020947552129314e+01 -5.377363171656872609e+00 1.351020947552129314e+01 2.368205614673116077e+00
-2.240280699446218904e+01 -3.449677206695055953e-01 -5.319419950939458630e+00 -3.449677206695055953e-01 -1.618940592388262445e+01 1.334989313846795689e+01 -5.319419950939458630e+00 1.334989313846795689e+01 2.429080102362871862e+00
-2.228815574099683872e+01 -3.745200537302803556e-01 -5.253125384697071354e+00 -3.745200537302803556e-01 -1.620208964512143623e+01 1.315818090422029840e+01 -5.253125384697071354e+00 1.315818090422029840e+01 2.488203204125756685e+00
-2.217086819082051363e+01 -4.019154167548039669e-01 -5.177686740352286598e+00 -4.019154167548039669e-01 -1.621182366374656780e+01 1.293501746585431000e+01 -5.177686740352286598e+00 1.293501746585431000e+01 2.542920187609462257e+00
-2.205370969013353744e+01 -4.265454335790054841e-01 -5.092550948665039101e+00 -4.265454335790054841e-01 -1.621967724695548441e+01 1.268043969465266407e+01 -5.092550948665039101e+00 1.268043969465266407e+01 2.590594756103013818e+00
-2.193876346640681874e+01 -4.485022824095624139e-01 -4.996999019623244997e+00 -4.485022824095624139e-01 -1.622738334503371505e+01 1.239398669958197274e+01 -4.996999019623244997e+00 1.239398669958197274e+01 2.627908494166026010e+00
-2.183004848945148879e+01 -4.669010524623716241e-01 -4.889998557312117633e+00 -4.669010524623716241e-01 -1.623691457160415652e+01 1.207551099551155360e+01 -4.889998557312117633e+00 1.207551099551155360e+01 2.650160313257950317e+00
4.752504231162834714e+01 6.929106906191280224e+00 1.664034868718323068e+01 6.929106906191280224e+00 4.700868271595806647e+01 -8.680972244288065909e+00 1.664034868718323068e+01 -8.680972244288065909e+00 2.329894126691100098e+01
4.763964129579370876e+01 7.022435297631084872e+00 1.679474593365018720e+01 7.022435297631084872e+00 4.698561800997746474e+01 -8.446995724306905373e+00 1.679474593365018720e+01 -8.446995724306905373e+00 2.340869269506997341e+01
4.772575873203539487e+01 7.108846002385609708e+00 1.690746454911556640e+01 7.108846002385609708e+00 4.694054091444471055e+01 -8.204600672898274993e+00 1.690746454911556640e+01 -8.204600672898274993e+00 2.344202179900004879e+01
4.777953037641947276e+01 7.187735232340181746e+00 1.697852178466834872e+01 7.187735232340181746e+00 4.687072575729926172e+01 -7.954252869464920828e+00 1.697852178466834872e+01 -7.954252869464920828e+00 2.339101032885448461e+01
4.779926562222485842e+01 7.258309437401223363e+00 1.700788313813055552e+01 7.258309437401223363e+00 4.677589652111726792e+01 -7.696625106477481992e+00 1.700788313813055552e+01 -7.696625106477481992e+00 2.325405393335714521e+01
4.778241130828092764e+01 7.320171842521951966e+00 1.699565211603613335e+01 7.320171842521951966e+00 4.665460411442349908e+01 -7.432269418783662651e+00 1.699565211603613335e+01 -7.432269418783662651e+00 2.302835793609153114e+01
4.772600024728127011e+01 7.372615153053746262e+00 1.694207023363095388e+01 7.372615153053746262e+00 4.650510617722990503e+01 -7.161617083608227574e+00 1.694207023363095388e+01 -7.161617083608227574e+00 2.270992008441179877e+01
4.762699624756351113e+01 7.415622117907615163e+00 1.684755151705078902e+01 7.415622117907615163e+00 4.632550508974750159e+01 -6.884995871642004772e+00 1.684755151705078902e+01 -6.884995871642004772e+00 2.229596295299043973e+01
4.748458850794510511e+01 7.448588948968884793e+00 1.671242373698646588e+01 7.448588948968884793e+00 4.611509355732766835e+01 -6.602509289418936334e+00 1.671242373698646588e+01 -6.602509289418936334e+00 2.178160448364307911e+01
4.729539581498386269e+01 7.471688157127461594e+00 1.653703191521779914e+01 7.471688157127461594e+00 4.587252599502912886e+01 -6.314019328227097105e+00 1.653703191521779914e+01 -6.314019328227097105e+00 2.116703443834861886e+01
1.137434887113707660e+01 6.759779938171186053e+00 1.774537607631811653e+01 6.759779938171186053e+00 1.008757359870508452e+01 -2.155954981645368207e+01 1.774537607631811653e+01 -2.155954981645368207e+01 4.423588763152286418e+01
1.132769996269620272e+01 6.818512493111959394e+00 1.766955607412418061e+01 6.818512493111959394e+00 1.010538854890464222e+01 -2.154876148007785730e+01 1.766955607412418061e+01 -2.154876148007785730e+01 4.419282300589105716e+01
1.121878744842839026e+01 6.871744416019004653e+00 1.755201998834542465e+01 6.871744416019004653e+00 1.006409832070307964e+01 -2.149886542433965175e+01 1.755201998834542465e+01 -2.149886542433965175e+01 4.397620456760800067e+01
1.104688382538724056e+01 6.918943387663250455e+00 1.739365501769696820e+01 6.918943387663250455e+00 9.962585043719345279e+00 -2.141019878475081484e+01 1.739365501769696820e+01 -2.141019878475081484e+01 4.358402724757749525e+01
1.081172293395822059e+01 6.959860992404465208e+00 1.719529512897101853e+01 6.959860992404465208e+00 9.800032495135532429e+00 -2.128331162451472380e+01 1.719529512897101853e+01 -2.128331162451472380e+01 4.301694757284874981e+01
1.051337575003853608e+01 6.993681007424741303e+00 1.695786300883129627e+01 6.993681007424741303e+00 9.575997075594083086e+00 -2.111898467850068073e+01 1.695786300883129627e+01 -2.111898467850068073e+01 4.227705933238942748e+01
1.015221489708853930e+01 7.020492152595589452e+00 1.668237006381303900e+01 7.020492152595589452e+00 9.290443297146394386e+00 -2.091801642555228113e+01 1.668237006381303900e+01 -2.091801642555228113e+01 4.136675796273036099e+01
9.728648486517185390e+00 7.039655644842126136e+00 1.636972123660566325e+01 7.039655644842126136e+00 8.943016280306414600e+00 -2.068157796797349235e+01 1.636972123660566325e+01 -2.068157796797349235e+01 4.028875829193979996e+01
9.242995909861914328e+00 7.051313435958768139e+00 1.602112311746173035e+01 7.051313435958768139e+00 8.533982184688685635e+00 -2.041092912793977376e+01 1.602112311746173035e+01 -2.041092912793977376e+01 3.904692850641565371e+01
8.696978332630054709e+00 7.055021926587959236e+00 1.563765808881368002e+01 7.055021926587959236e+00 8.064104001188200144e+00 -2.010756039929252736e+01 1.563765808881368002e+01 -2.010756039929252736e+01 3.764639661473130872e+01