-3.384093799300000001e+02
-3.384062747199999990e+02
-3.383973386399999868e+02
-3.383828117799999973e+02
-3.383630815600000119e+02
-3.383386649299999931e+02
-3.383101852400000098e+02
-3.382783418399999960e+02
-3.382438858400000186e+02
-3.382075896200000216e+02
-3.375592806899999800e+02
-3.375553263400000219e+02
-3.375483495899999866e+02
-3.375385124300000257e+02
-3.375260705900000175e+02
-3.375113605399999983e+02
-3.374947889000000032e+02
-3.374768144600000142e+02
-3.374579337299999793e+02
-3.374386621099999957e+02
-3.371769056800000044e+02
-3.371750760099999980e+02
-3.371721880399999804e+02
-3.371684972599999810e+02
-3.371643768700000123e+02
-3.371602862600000208e+02
-3.371567511100000161e+02
-3.371543217199999845e+02
-3.371535463899999741e+02
-3.371549341200000072e+02
-3.369892896900000210e+02
-3.369861533600000030e+02
-3.369879717599999935e+02
-3.369949723199999880e+02
-3.370073586699999737e+02
-3.370253003999999919e+02
-3.370489017200000035e+02
-3.370781735699999899e+02
-3.371130148199999894e+02
-3.371531830100000207e+02
-3.376251801500000056e+02
-3.376284510200000000e+02
-3.376275019799999768e+02
-3.376225039000000265e+02
-3.376137510899999938e+02
-3.376016399800000158e+02
-3.375866627400000084e+02
-3.375693724199999792e+02
-3.375503704600000106e+02
-3.375302819300000010e+02
-3.373134345500000109e+02
-3.373098346599999786e+02
-3.373024862899999903e+02
-3.372916811000000052e+02
-3.372778339999999844e+02
-3.372614708099999916e+02
-3.372432017699999847e+02
-3.372236923699999807e+02
-3.372036577299999749e+02
-3.371838200700000243e+02
-3.372623236200000179e+02
-3.372608964300000025e+02
-3.372617207399999870e+02
-3.372649070100000017e+02
-3.372705832099999839e+02
-3.372788923100000034e+02
-3.372899752999999805e+02
-3.373039571400000227e+02
-3.373209348699999737e+02
-3.373409561199999871e+02
-3.376527093500000092e+02
-3.376499520400000165e+02
-3.376441141899999820e+02
-3.376352956299999732e+02
-3.376236909599999763e+02
-3.376095788100000163e+02
-3.375933167599999933e+02
-3.375753194700000108e+02
-3.375560523500000158e+02
-3.375360099499999933e+02
-3.375318207899999834e+02
-3.375221080399999778e+02
-3.375123844799999802e+02
-3.375029577099999756e+02
-3.374941948100000104e+02
-3.374864992700000244e+02
-3.374802852799999755e+02
-3.374759726999999998e+02
-3.374739392100000259e+02
-3.374745112599999857e+02
-3.377911433200000033e+02
-3.377919751200000178e+02
-3.377885248399999796e+02
-3.377808837800000106e+02
-3.377692803400000230e+02
-3.377540570400000206e+02
-3.377356649000000175e+02
-3.377146389100000192e+02
-3.376915694300000155e+02
-3.376670852899999886e+02
-3.367409620799999743e+02
-3.367651643500000205e+02
-3.367931528699999717e+02
-3.368245517999999947e+02
-3.368590290600000117e+02
-3.368962849499999948e+02
-3.369360435099999904e+02
-3.369780209599999807e+02
-3.370219169999999735e+02
-3.370673976699999912e+02
-3.373428673700000218e+02
-3.373409217299999909e+02
-3.373380706699999791e+02
-3.373345276300000251e+02
-3.373306064600000127e+02
-3.373267030999999747e+02
-3.373232662500000174e+02
-3.373207726200000138e+02
-3.373197021299999960e+02
-3.373204949899999860e+02
-3.375175425200000063e+02
-3.375147094399999901e+02
-3.375104808099999900e+02
-3.375049463199999877e+02
-3.374982525500000179e+02
-3.374905982999999878e+02
-3.374822269300000244e+02
-3.374734198699999865e+02
-3.374644846300000154e+02
-3.374557511300000101e+02
-3.377162348300000190e+02
-3.377171892100000150e+02
-3.377141662000000224e+02
-3.377073428499999750e+02
-3.376969915899999819e+02
-3.376834800500000142e+02
-3.376672505500000057e+02
-3.376488031499999920e+02
-3.376286743399999750e+02
-3.376074175300000206e+02
-3.374574611799999957e+02
-3.374567474799999900e+02
-3.374548325900000236e+02
-3.374517702599999893e+02
-3.374476644200000237e+02
-3.374426644499999952e+02
-3.374369668900000079e+02
-3.374307990899999936e+02
-3.374244172900000081e+02
-3.374180987099999811e+02
-3.378136048599999981e+02
-3.378145438500000068e+02
-3.378122969199999943e+02
-3.378069277800000236e+02
-3.377985826899999893e+02
-3.377874846799999773e+02
-3.377739283799999725e+02
-3.377582645800000023e+02
-3.377408927899999753e+02
-3.377222422599999732e+02
-3.365275045100000284e+02
-3.365284892199999831e+02
-3.365353325500000210e+02
-3.365479559099999847e+02
-3.365662180699999908e+02
-3.365899218499999961e+02
-3.366187997399999858e+02
-3.366525024399999779e+02
-3.366905949100000157e+02
-3.367325464400000214e+02
-3.380245566300000064e+02
-3.380240188299999886e+02
-3.380181077999999957e+02
-3.380070303100000046e+02
-3.379911526099999719e+02
-3.379709714100000042e+02
-3.379470990600000277e+02
-3.379202244900000096e+02
-3.378910871799999995e+02
-3.378604425699999751e+02
-3.379796499899999844e+02
-3.379794283900000096e+02
-3.379757581200000232e+02
-3.379688487899999814e+02
-3.379589981500000135e+02
-3.379465842800000246e+02
-3.379320417600000042e+02
-3.379158492199999841e+02
-3.378984955000000241e+02
-3.378804755099999966e+02
-3.376518873399999734e+02
-3.376543349500000204e+02
-3.376543774200000030e+02
-3.376521210299999893e+02
-3.376477619899999922e+02
-3.376415910700000040e+02
-3.376339741200000049e+02
-3.376253461700000003e+02
-3.376161846100000048e+02
-3.376070038899999872e+02
-3.368999389800000017e+02
-3.368962609000000157e+02
-3.368948670500000162e+02
-3.368959532800000147e+02
-3.368997240499999748e+02
-3.369063838700000133e+02
-3.369161115599999903e+02
-3.369290399600000114e+02
-3.369452404300000126e+02
-3.369647027199999911e+02
-3.376944958799999768e+02
-3.376928065100000254e+02
-3.376881832199999849e+02
-3.376808280299999865e+02
-3.376710378000000219e+02
-3.376592004799999813e+02
-3.376457743700000265e+02
-3.376312697399999934e+02
-3.376162313599999720e+02
-3.376012248999999770e+02
-3.367023358299999813e+02
-3.367080512800000065e+02
-3.367146589299999846e+02
-3.367220996899999932e+02
-3.367303301100000112e+02
-3.367393241799999828e+02
-3.367490713600000163e+02
-3.367595818600000257e+02
-3.367708751700000107e+02
-3.367829823399999896e+02
-3.373221202500000118e+02
-3.373147575300000085e+02
-3.373044500600000219e+02
-3.372913681399999746e+02
-3.372757583599999975e+02
-3.372579377900000281e+02
-3.372382772000000273e+02
-3.372171900299999834e+02
-3.371951180799999861e+02
-3.371725138699999889e+02
-3.369326619500000106e+02
-3.369446801500000106e+02
-3.369585228799999754e+02
-3.369740751499999760e+02
-3.369912356099999897e+02
-3.370099188500000196e+02
-3.370300532699999962e+02
-3.370515836600000057e+02
-3.370744617099999800e+02
-3.370986550100000159e+02
-3.358210263899999859e+02
-3.358486343600000055e+02
-3.358879151900000011e+02
-3.359379700000000071e+02
-3.359976858499999821e+02
-3.360657444700000269e+02
-3.361406561100000090e+02
-3.362207946799999831e+02
-3.363044579500000282e+02
-3.363899511399999938e+02
-3.372625054100000170e+02
-3.372719249599999785e+02
-3.372817969100000255e+02
-3.372921597999999790e+02
-3.373031489699999952e+02
-3.373149846499999853e+02
-3.373279436899999837e+02
-3.373423365900000022e+02
-3.373584673799999791e+02
-3.373766110099999764e+02
-3.378905173399999740e+02
-3.378891588500000012e+02
-3.378836360700000228e+02
-3.378740744099999915e+02
-3.378607176099999947e+02
-3.378438989699999979e+02
-3.378240415199999802e+02
-3.378016327899999851e+02
-3.377772080500000129e+02
-3.377513359499999979e+02
-3.373933353400000215e+02
-3.373975169000000278e+02
-3.373965213500000004e+02
-3.373904941399999871e+02
-3.373797311800000216e+02
-3.373646640700000034e+02
-3.373458422100000007e+02
-3.373239099900000042e+02
-3.372995761899999820e+02
-3.372735892800000101e+02
-3.374235633200000279e+02
-3.374232570899999928e+02
-3.374219597800000088e+02
-3.374197450099999855e+02
-3.374167358000000263e+02
-3.374130966800000238e+02
-3.374090329699999984e+02
-3.374047861799999737e+02
-3.374006211399999984e+02
-3.373968183000000067e+02
-3.368160614099999748e+02
-3.368057637499999828e+02
-3.367947643300000209e+02
-3.367832474400000251e+02
-3.367714342900000020e+02
-3.367595753300000183e+02
-3.367479419300000245e+02
-3.367368273700000145e+02
-3.367265305299999909e+02
-3.367173550399999726e+02
-3.375029873600000201e+02
-3.375033918500000141e+02
-3.375006060000000048e+02
-3.374947530700000016e+02
-3.374860414899999910e+02
-3.374747511300000156e+02
-3.374612294400000110e+02
-3.374458703500000070e+02
-3.374291056600000047e+02
-3.374113896299999737e+02
-3.374383626700000036e+02
-3.374425182499999778e+02
-3.374434168199999817e+02
-3.374412818499999958e+02
-3.374364788299999987e+02
-3.374294957999999838e+02
-3.374209157199999822e+02
-3.374113816199999860e+02
-3.374015650299999720e+02
-3.373921328900000276e+02
-3.379851987399999871e+02
-3.379799788099999773e+02
-3.379711521799999900e+02
-3.379588970500000187e+02
-3.379434880599999929e+02
-3.379252891099999943e+02
-3.379047357200000192e+02
-3.378823135000000093e+02
-3.378585540700000251e+02
-3.378340002200000072e+02
-3.375118237400000112e+02
-3.375094031699999846e+02
-3.375053139500000157e+02
-3.374997974600000248e+02
-3.374932004300000017e+02
-3.374859589000000142e+02
-3.374785662699999875e+02
-3.374715474899999776e+02
-3.374654240799999911e+02
-3.374606785500000115e+02
-3.381774311199999943e+02
-3.381770563399999787e+02
-3.381719563600000242e+02
-3.381623308499999894e+02
-3.381485059799999817e+02
-3.381309172800000056e+02
-3.381100840799999787e+02
-3.380865903000000117e+02
-3.380610573700000145e+02
-3.380341236699999854e+02
-3.375600931199999764e+02
-3.375641048100000035e+02
-3.375642044100000021e+02
-3.375604959799999847e+02
-3.375531891100000053e+02
-3.375425869399999783e+02
-3.375290785600000163e+02
-3.375131183699999724e+02
-3.374952135500000168e+02
-3.374759081700000252e+02
-3.374862394200000040e+02
-3.374881057499999883e+02
-3.374862967199999844e+02
-3.374809991600000103e+02
-3.374725547799999958e+02
-3.374614373000000001e+02
-3.374482303699999761e+02
-3.374335961099999963e+02
-3.374182360300000028e+02
-3.374028655999999842e+02
-3.378066637499999842e+02
-3.378025782999999933e+02
-3.377948861400000169e+02
-3.377838091200000008e+02
-3.377696823900000140e+02
-3.377529241199999888e+02
-3.377340225600000281e+02
-3.377135172700000112e+02
-3.376919821600000091e+02
-3.376700070300000220e+02
-3.355642680899999846e+02
-3.355868523799999821e+02
-3.356180311200000119e+02
-3.356574362399999814e+02
-3.357046312300000181e+02
-3.357590869200000157e+02
-3.358201566000000184e+02
-3.358870641999999975e+02
-3.359588869599999725e+02
-3.360345809400000121e+02
-3.373256288900000186e+02
-3.373197003099999733e+02
-3.373102318300000206e+02
-3.372974451700000031e+02
-3.372816770300000258e+02
-3.372633672599999954e+02
-3.372430357100000151e+02
-3.372212565899999959e+02
-3.371986477500000206e+02
-3.371758322499999849e+02
-3.371079616200000260e+02
-3.371196389899999986e+02
-3.371317261600000279e+02
-3.371440456000000268e+02
-3.371564547500000231e+02
-3.371688486699999885e+02
-3.371811656900000003e+02
-3.371933901400000195e+02
-3.372055456499999764e+02
-3.372176992799999766e+02
-3.373454205900000034e+02
-3.373529778199999782e+02
-3.373596148699999731e+02
-3.373652917399999751e+02
-3.373700496100000237e+02
-3.373740065200000231e+02
-3.373773540999999909e+02
-3.373803295800000228e+02
-3.373832121899999947e+02
-3.373862951599999747e+02
-3.374829338999999777e+02
-3.374887149400000226e+02
-3.374933369899999889e+02
-3.374967605200000094e+02
-3.374990297200000100e+02
-3.375002607900000271e+02
-3.375006382099999769e+02
-3.375003993700000251e+02
-3.374998207799999932e+02
-3.374991966100000127e+02
-3.374535884200000169e+02
-3.374551048499999979e+02
-3.374554232300000081e+02
-3.374547359000000029e+02
-3.374533341200000223e+02
-3.374515864900000111e+02
-3.374499135199999955e+02
-3.374487628599999880e+02
-3.374485782799999924e+02
-3.374497778900000071e+02
-3.377648851600000057e+02
-3.377652176600000189e+02
-3.377613196099999868e+02
-3.377533630099999868e+02
-3.377416756599999985e+02
-3.377267257299999983e+02
-3.377090872499999819e+02
-3.376894221000000016e+02
-3.376684396300000230e+02
-3.376468668499999808e+02
-3.376514757400000235e+02
-3.376489165599999751e+02
-3.376421798800000147e+02
-3.376314687500000105e+02
-3.376171122100000161e+02
-3.375995487000000139e+02
-3.375793115100000250e+02
-3.375569985700000188e+02
-3.375332539799999836e+02
-3.375087416700000063e+02
-3.373733768100000248e+02
-3.373801248799999826e+02
-3.373829520400000206e+02
-3.373818560199999865e+02
-3.373769579500000191e+02
-3.373684805299999994e+02
-3.373567400100000100e+02
-3.373421383599999785e+02
-3.373251320200000123e+02
-3.373062239399999953e+02
-3.378417021600000112e+02
-3.378439318999999728e+02
-3.378417916500000047e+02
-3.378353383200000053e+02
-3.378247533200000134e+02
-3.378103181999999833e+02
-3.377924098500000127e+02
-3.377714824700000236e+02
-3.377480540299999916e+02
-3.377226810199999818e+02
-3.374711432299999956e+02
-3.374713887999999997e+02
-3.374692492500000185e+02
-3.374648135699999898e+02
-3.374582475099999783e+02
-3.374497912900000074e+02
-3.374397418699999776e+02
-3.374284529799999746e+02
-3.374163133199999720e+02
-3.374037391400000274e+02
-3.379498362400000246e+02
-3.379516662400000087e+02
-3.379514137599999799e+02
-3.379491080999999895e+02
-3.379448471300000278e+02
-3.379387887199999909e+02
-3.379311427700000081e+02
-3.379221726399999852e+02
-3.379121764500000040e+02
-3.379014803800000095e+02
-3.372499086899999838e+02
-3.372589400800000021e+02
-3.372697743200000104e+02
-3.372823475600000052e+02
-3.372966114000000175e+02
-3.373125457799999936e+02
-3.373301261899999872e+02
-3.373493248099999846e+02
-3.373701017999999863e+02
-3.373923883900000078e+02
-3.378787484200000222e+02
-3.378822895299999800e+02
-3.378811630100000230e+02
-3.378753995100000225e+02
-3.378651763500000129e+02
-3.378508073099999933e+02
-3.378327259600000048e+02
-3.378114567499999907e+02
-3.377875965000000065e+02
-3.377617862100000252e+02
-3.377147080999999957e+02
-3.377146952900000088e+02
-3.377113268200000107e+02
-3.377047006799999735e+02
-3.376949978600000009e+02
-3.376824786999999901e+02
-3.376674660400000221e+02
-3.376503370600000267e+02
-3.376315088000000060e+02
-3.376114216199999873e+02
-3.367161114200000043e+02
-3.367269935300000157e+02
-3.367417783399999962e+02
-3.367604131800000005e+02
-3.367829077399999846e+02
-3.368093075400000203e+02
-3.368396678299999962e+02
-3.368740369399999963e+02
-3.369123998100000108e+02
-3.369546637799999758e+02
-3.364956660000000284e+02
-3.365004182800000194e+02
-3.365079015100000106e+02
-3.365180722900000205e+02
-3.365308688999999731e+02
-3.365462044000000219e+02
-3.365639695200000006e+02
-3.365840321900000163e+02
-3.366062369300000228e+02
-3.366304071900000281e+02
-3.370241231200000129e+02
-3.370213678800000139e+02
-3.370152630599999952e+02
-3.370060939100000041e+02
-3.369942598599999997e+02
-3.369802618900000084e+02
-3.369646791999999778e+02
-3.369481363599999781e+02
-3.369312817699999982e+02
-3.369147606199999814e+02
-3.377745971599999848e+02
-3.377682336699999723e+02
-3.377575021700000093e+02
-3.377426687799999740e+02
-3.377241530599999919e+02
-3.377025069000000030e+02
-3.376783899800000199e+02
-3.376525384899999835e+02
-3.376257362200000216e+02
-3.375987887000000001e+02
-3.375884234200000265e+02
-3.375817938000000140e+02
-3.375737187099999801e+02
-3.375644144099999835e+02
-3.375541506299999810e+02
-3.375432349800000225e+02
-3.375320011399999771e+02
-3.375208039999999983e+02
-3.375100020900000004e+02
-3.374999542799999972e+02
-3.376331714600000282e+02
-3.376435999999999922e+02
-3.376511956699999928e+02
-3.376560218700000178e+02
-3.376582481199999961e+02
-3.376581497899999817e+02
-3.376560906400000022e+02
-3.376525103500000000e+02
-3.376479041700000039e+02
-3.376428030000000149e+02
-3.376708357599999886e+02
-3.376745104799999808e+02
-3.376774732599999993e+02
-3.376797969799999919e+02
-3.376816469999999981e+02
-3.376832551699999954e+02
-3.376849099899999942e+02
-3.376869271400000230e+02
-3.376896318500000120e+02
-3.376933286199999884e+02
-3.378511331099999779e+02
-3.378510630999999762e+02
-3.378478669200000013e+02
-3.378416426499999830e+02
-3.378325711699999943e+02
-3.378209224899999867e+02
-3.378070205700000201e+02
-3.377912545799999862e+02
-3.377740562600000089e+02
-3.377558833200000095e+02
-3.373210393100000033e+02
-3.373244163200000116e+02
-3.373261588099999813e+02
-3.373263557199999809e+02
-3.373251622299999894e+02
-3.373227982199999815e+02
-3.373195237599999814e+02
-3.373156344800000284e+02
-3.373114310700000260e+02
-3.373072135099999969e+02
-3.377154900200000043e+02
-3.377209593800000107e+02
-3.377234648400000196e+02
-3.377230167499999993e+02
-3.377197240799999918e+02
-3.377137836100000072e+02
-3.377054695400000242e+02
-3.376951272300000255e+02
-3.376831514500000253e+02
-3.376699781500000199e+02
-3.367473446899999772e+02
-3.367583077200000048e+02
-3.367698270700000194e+02
-3.367818012800000247e+02
-3.367941698100000281e+02
-3.368069168600000012e+02
-3.368200682799999868e+02
-3.368336902199999940e+02
-3.368478916400000003e+02
-3.368628009899999824e+02
-3.377077265099999863e+02
-3.377070998600000280e+02
-3.377013452300000154e+02
-3.376906771000000163e+02
-3.376754857099999754e+02
-3.376563244399999917e+02
-3.376338709199999926e+02
-3.376089074800000276e+02
-3.375822786200000110e+02
-3.375548655700000040e+02
-3.378600969600000212e+02
-3.378579947000000061e+02
-3.378519604800000025e+02
-3.378421336200000269e+02
-3.378287660400000050e+02
-3.378122030399999858e+02
-3.377928765699999758e+02
-3.377712774299999978e+02
-3.377479359600000066e+02
-3.377234057599999915e+02
-3.373714012699999785e+02
-3.373516222200000243e+02
-3.373313701600000059e+02
-3.373111038000000121e+02
-3.372913533099999768e+02
-3.372726971600000070e+02
-3.372557431100000258e+02
-3.372411010299999816e+02
-3.372293540300000245e+02
-3.372210385999999858e+02
-3.372653669599999944e+02
-3.372670016999999802e+02
-3.372660480900000266e+02
-3.372626300900000160e+02
-3.372569452600000091e+02
-3.372492675199999894e+02
-3.372399295700000152e+02
-3.372293159199999764e+02
-3.372178478499999983e+02
-3.372059703799999966e+02
-3.370008634800000209e+02
-3.370011207399999762e+02
-3.369970554399999969e+02
-3.369888461599999800e+02
-3.369767980299999977e+02
-3.369613228800000115e+02
-3.369429211799999848e+02
-3.369221565999999939e+02
-3.368996417999999835e+02
-3.368760051300000100e+02
-3.374931363399999782e+02
-3.374939013599999953e+02
-3.374918371900000125e+02
-3.374870696799999905e+02
-3.374798160199999870e+02
-3.374703763900000126e+02
-3.374591214199999740e+02
-3.374464756099999931e+02
-3.374328895799999941e+02
-3.374188267999999766e+02
-3.375163066599999979e+02
-3.375201018899999781e+02
-3.375227500299999974e+02
-3.375242825700000253e+02
-3.375247973599999796e+02
-3.375244628600000283e+02
-3.375235081399999899e+02
-3.375222133899999903e+02
-3.375209056499999747e+02
-3.375199487500000259e+02
-3.367449984900000004e+02
-3.367523118500000123e+02
-3.367623071699999855e+02
-3.367748694800000067e+02
-3.367899355000000128e+02
-3.368074890899999900e+02
-3.368275434000000246e+02
-3.368501231100000268e+02
-3.368752347500000042e+02
-3.369028500100000088e+02
-3.366397173099999804e+02
-3.366335273500000085e+02
-3.366308642000000191e+02
-3.366317853499999728e+02
-3.366363092999999935e+02
-3.366444169100000181e+02
-3.366560633700000267e+02
-3.366711556000000201e+02
-3.366895733399999813e+02
-3.367111502600000108e+02
-3.376353445600000214e+02
-3.376270043000000101e+02
-3.376152005700000132e+02
-3.376002017399999886e+02
-3.375823819500000127e+02
-3.375621970099999771e+02
-3.375401663100000178e+02
-3.375168469000000186e+02
-3.374928187099999946e+02
-3.374686553099999742e+02
-3.380190173799999798e+02
-3.380187736699999732e+02
-3.380134915400000182e+02
-3.380032872300000122e+02
-3.379884096700000100e+02
-3.379692320999999993e+02
-3.379462317900000130e+02
-3.379199644000000262e+02
-3.378910450500000024e+02
-3.378601183399999854e+02
-3.371800241199999846e+02
-3.371742256599999905e+02
-3.371652179899999737e+02
-3.371532160799999929e+02
-3.371385524699999792e+02
-3.371216502999999989e+02
-3.371030190800000241e+02
-3.370832176499999946e+02
-3.370628460699999778e+02
-3.370425201200000060e+02
-3.381425262800000269e+02
-3.381422467200000028e+02
-3.381371020799999769e+02
-3.381272981399999935e+02
-3.381131602099999895e+02
-3.380951259999999934e+02
-3.380737282499999878e+02
-3.380495672000000127e+02
-3.380232922899999721e+02
-3.379955812800000103e+02
-3.382193722100000173e+02
-3.382173356800000192e+02
-3.382092478199999732e+02
-3.381953065899999729e+02
-3.381758730600000149e+02
-3.381514503099999729e+02
-3.381226630200000045e+02
-3.380902224000000160e+02
-3.380548971299999721e+02
-3.380174908600000094e+02
-3.380220880599999873e+02
-3.380221659100000124e+02
-3.380179754200000275e+02
-3.380096504300000220e+02
-3.379974221499999771e+02
-3.379816075900000101e+02
-3.379625952600000005e+02
-3.379408241099999941e+02
-3.379167758400000139e+02
-3.378909447999999998e+02
-3.380024796000000151e+02
-3.379986675200000263e+02
-3.379903714000000150e+02
-3.379778595600000131e+02
-3.379615225699999996e+02
-3.379418482199999971e+02
-3.379194023700000002e+02
-3.378948037999999769e+02
-3.378686980599999856e+02
-3.378417371099999968e+02
-3.372246643500000118e+02
-3.372348971700000106e+02
-3.372423107000000186e+02
-3.372468853699999727e+02
-3.372487175200000138e+02
-3.372480099699999982e+02
-3.372450728599999934e+02
-3.372403029000000174e+02
-3.372341672900000162e+02
-3.372271821300000170e+02
-3.379503345900000113e+02
-3.379558515599999851e+02
-3.379578543299999751e+02
-3.379563603799999782e+02
-3.379515103100000033e+02
-3.379435564199999931e+02
-3.379328520799999751e+02
-3.379198260200000163e+02
-3.379049724500000025e+02
-3.378888212100000032e+02
-3.366134159000000068e+02
-3.366117976099999964e+02
-3.366114550099999860e+02
-3.366124464299999772e+02
-3.366148289100000284e+02
-3.366186695299999769e+02
-3.366240370900000016e+02
-3.366310016499999733e+02
-3.366396293299999911e+02
-3.366499717799999871e+02
-3.369785767700000179e+02
-3.369889854400000218e+02
-3.370023462199999926e+02
-3.370185760100000039e+02
-3.370376223499999924e+02
-3.370594376500000067e+02
-3.370839799600000219e+02
-3.371111797799999863e+02
-3.371409251300000278e+02
-3.371730539700000122e+02
-3.382047101100000077e+02
-3.382042539700000248e+02
-3.381986924400000021e+02
-3.381882099599999947e+02
-3.381731277999999747e+02
-3.381538946699999997e+02
-3.381310585300000184e+02
-3.381052423400000180e+02
-3.380771187099999793e+02
-3.380473795999999993e+02
-3.377288453799999957e+02
-3.377330944199999863e+02
-3.377335387900000114e+02
-3.377302535800000101e+02
-3.377234399899999744e+02
-3.377134079100000008e+02
-3.377005744200000095e+02
-3.376854333499999825e+02
-3.376685426899999811e+02
-3.376504963900000007e+02
-3.374149887799999874e+02
-3.374159908600000222e+02
-3.374137966200000278e+02
-3.374084917000000132e+02
-3.374002759100000048e+02
-3.373894643699999847e+02
-3.373764520600000196e+02
-3.373617078600000241e+02
-3.373457471199999986e+02
-3.373291028699999856e+02
-3.373848435400000199e+02
-3.373845702899999992e+02
-3.373800380999999788e+02
-3.373714717199999882e+02
-3.373592392099999984e+02
-3.373438395000000014e+02
-3.373258628099999896e+02
-3.373059745900000053e+02
-3.372848735100000113e+02
-3.372632594300000051e+02
-3.370378819800000088e+02
-3.370447230699999750e+02
-3.370505294800000229e+02
-3.370552657599999975e+02
-3.370589420499999846e+02
-3.370616223299999774e+02
-3.370634157000000073e+02
-3.370644771199999923e+02
-3.370649989799999844e+02
-3.370652013800000191e+02
-3.377113060500000188e+02
-3.377168580399999769e+02
-3.377181156099999839e+02
-3.377152499499999863e+02
-3.377085801499999889e+02
-3.376985671200000070e+02
-3.376857840999999780e+02
-3.376708933400000205e+02
-3.376546146000000022e+02
-3.376376986199999806e+02
-3.377440013199999953e+02
-3.377446090000000254e+02
-3.377421122399999831e+02
-3.377366799199999718e+02
-3.377285500899999988e+02
-3.377180266600000209e+02
-3.377054762800000276e+02
-3.376913005200000271e+02
-3.376759331999999745e+02
-3.376598192100000233e+02
-3.374266819299999725e+02
-3.374322498000000223e+02
-3.374351229200000262e+02
-3.374353225799999905e+02
-3.374329294199999936e+02
-3.374280830800000217e+02
-3.374209766899999750e+02
-3.374118454300000280e+02
-3.374009647799999811e+02
-3.373886305400000083e+02
-3.370625670499999842e+02
-3.370558433400000240e+02
-3.370491231199999902e+02
-3.370425150099999883e+02
-3.370361372300000085e+02
-3.370301186799999869e+02
-3.370245919500000014e+02
-3.370196913600000244e+02
-3.370155516199999965e+02
-3.370122992700000282e+02
-3.381533946499999956e+02
-3.381566702299999747e+02
-3.381558521900000187e+02
-3.381509730800000284e+02
-3.381421789799999829e+02
-3.381297129999999811e+02
-3.381139006799999720e+02
-3.380951440200000206e+02
-3.380738891999999964e+02
-3.380506169899999804e+02
-3.374001219500000275e+02
-3.374008539700000142e+02
-3.373984727399999883e+02
-3.373930975000000103e+02
-3.373849256099999820e+02
-3.373742277200000217e+02
-3.373613408800000002e+02
-3.373466475299999843e+02
-3.373305668400000172e+02
-3.373135346700000241e+02
-3.378690110900000150e+02
-3.378669082499999945e+02
-3.378608332499999847e+02
-3.378509049400000208e+02
-3.378373784899999919e+02
-3.378206318300000248e+02
-3.378011438899999916e+02
-3.377794789299999820e+02
-3.377562522299999728e+02
-3.377321074700000167e+02
-3.379782875999999874e+02
-3.379742392800000061e+02
-3.379658153600000219e+02
-3.379532270299999936e+02
-3.379368035100000043e+02
-3.379169803699999761e+02
-3.378942783599999871e+02
-3.378692824500000143e+02
-3.378426206299999990e+02
-3.378149439399999778e+02
-3.369217974100000106e+02
-3.369352402100000177e+02
-3.369517256600000223e+02
-3.369710934799999791e+02
-3.369931850500000223e+02
-3.370178374299999859e+02
-3.370448753100000090e+02
-3.370740915200000245e+02
-3.371052527599999848e+02
-3.371380822400000170e+02
-3.374385060999999837e+02
-3.374400660300000254e+02
-3.374389333799999804e+02
-3.374351431800000114e+02
-3.374288343100000134e+02
-3.374202384700000152e+02
-3.374096697400000266e+02
-3.373975202299999978e+02
-3.373842375599999741e+02
-3.373703091699999845e+02
-3.370602447699999971e+02
-3.370768583799999760e+02
-3.370947986799999967e+02
-3.371138967200000138e+02
-3.371339978299999984e+02
-3.371549635100000160e+02
-3.371766725200000110e+02
-3.371990263800000207e+02
-3.372219424300000128e+02
-3.372453586699999732e+02
-3.380108293800000183e+02
-3.380079935100000057e+02
-3.380014742899999760e+02
-3.379914521499999864e+02
-3.379781922399999985e+02
-3.379620481399999790e+02
-3.379434377399999789e+02
-3.379228285400000118e+02
-3.379007161000000110e+02
-3.378776186100000132e+02
-3.368320213299999750e+02
-3.368405323100000146e+02
-3.368504421800000159e+02
-3.368615061099999934e+02
-3.368734780199999932e+02
-3.368861308699999881e+02
-3.368992528100000072e+02
-3.369126541300000213e+02
-3.369261719799999923e+02
-3.369396684000000164e+02
-3.380238502999999923e+02
-3.380313297600000055e+02
-3.380356209299999932e+02
-3.380367860299999734e+02
-3.380350148399999739e+02
-3.380306240200000047e+02
-3.380240226600000142e+02
-3.380156950900000083e+02
-3.380061701600000106e+02
-3.379959914699999786e+02
-3.359385576199999832e+02
-3.359458631300000206e+02
-3.359574602600000048e+02
-3.359732779500000106e+02
-3.359931983299999843e+02
-3.360170681100000252e+02
-3.360446879099999933e+02
-3.360758192700000109e+02
-3.361101826999999957e+02
-3.361474584599999957e+02
-3.372030892999999878e+02
-3.372105610300000080e+02
-3.372154621600000155e+02
-3.372177125100000126e+02
-3.372173721799999839e+02
-3.372146397899999783e+02
-3.372098262399999840e+02
-3.372033423699999730e+02
-3.371956698600000095e+02
-3.371873339100000067e+02
-3.372033733499999926e+02
-3.372130182299999888e+02
-3.372226030799999990e+02
-3.372318387600000165e+02
-3.372404957100000047e+02
-3.372484103900000036e+02
-3.372554984899999795e+02
-3.372617337500000190e+02
-3.372671545900000183e+02
-3.372718511799999987e+02
-3.376069083500000261e+02
-3.376023160299999972e+02
-3.375943603499999881e+02
-3.375831302700000265e+02
-3.375688028299999814e+02
-3.375516401300000098e+02
-3.375319822399999907e+02
-3.375102250900000058e+02
-3.374868139800000222e+02
-3.374622227699999826e+02
-3.371991460200000006e+02
-3.372093428599999925e+02
-3.372198513899999739e+02
-3.372305800400000066e+02
-3.372414837499999862e+02
-3.372525536499999816e+02
-3.372638087199999859e+02
-3.372752988799999798e+02
-3.372870740100000262e+02
-3.372991870800000243e+02
-3.373822547299999997e+02
-3.373875979399999778e+02
-3.373906645299999809e+02
-3.373915347099999735e+02
-3.373903919200000132e+02
-3.373875173999999788e+02
-3.373832712000000242e+02
-3.373780690500000219e+02
-3.373723517899999820e+02
-3.373665654299999801e+02
-3.374446256300000186e+02
-3.374303887199999963e+02
-3.374159263500000066e+02
-3.374014793100000134e+02
-3.373873384199999919e+02
-3.373738334399999985e+02
-3.373613153000000011e+02
-3.373501494500000035e+02
-3.373407063299999891e+02
-3.373333338099999992e+02
-3.379269631600000139e+02
-3.379273653199999785e+02
-3.379235671900000284e+02
-3.379156429600000138e+02
-3.379037856900000065e+02
-3.378882932299999879e+02
-3.378695590899999956e+02
-3.378480568699999935e+02
-3.378243191099999763e+02
-3.377989223600000059e+02
-3.378491954500000247e+02
-3.378538259599999947e+02
-3.378547891000000050e+02
-3.378520903900000008e+02
-3.378458792800000197e+02
-3.378364433699999836e+02
-3.378241859999999974e+02
-3.378096083899999940e+02
-3.377932766600000036e+02
-3.377757991600000196e+02
-3.376094971800000053e+02
-3.376053423800000246e+02
-3.375978791399999750e+02
-3.375873907999999801e+02
-3.375742543299999738e+02
-3.375589265899999987e+02
-3.375419205599999941e+02
-3.375237828400000240e+02
-3.375050674600000207e+02
-3.374863248400000089e+02
-3.363897721899999738e+02
-3.363942767799999842e+02
-3.364026332199999842e+02
-3.364147510099999749e+02
-3.364305060600000274e+02
-3.364497379700000010e+02
-3.364722532399999864e+02
-3.364978169099999832e+02
-3.365261669399999960e+02
-3.365570141300000273e+02
-3.374731286499999783e+02
-3.374735825399999953e+02
-3.374734062900000140e+02