-9.086460902067906575e-01 -3.682185594499146346e-04 3.089398639384145273e+00 -3.682185594498383610e-04 -2.392957392166204400e+00 1.052104983164620864e-04 3.089398639384145273e+00 1.052104983164620864e-04 -1.303057530300512912e-01
-7.370240589141509036e-01 -1.086349507437149586e-01 3.079800396828796583e+00 -1.086349507437148060e-01 -2.332068825004721901e+00 8.507372473992216161e-03 3.079800396828796583e+00 8.507372473992216161e-03 1.713178884549966807e-01
-5.512052299081173778e-01 -2.148753145375449092e-01 3.076486048374810434e+00 -2.148753145375449092e-01 -2.259446102205941553e+00 1.672679160134788942e-02 3.076486048374810434e+00 1.672679160134788942e-02 4.927966113759308375e-01
-3.522857198743668539e-01 -3.184641094324248689e-01 3.079401994314573621e+00 -3.184641094324249244e-01 -2.175421660302248927e+00 2.481529408054947844e-02 3.079401994314573621e+00 2.481529408054947844e-02 8.310020650147110777e-01
-1.422244573139057333e-01 -4.186948486047430418e-01 3.088548234648086144e+00 -4.186948486047430418e-01 -2.080929843133022761e+00 3.277287991159742730e-02 3.088548234648086144e+00 3.277287991159742730e-02 1.182986728174570734e+00
7.654979709134884791e-02 -5.149182789228113899e-01 3.103709721396137766e+00 -5.149182789228112789e-01 -1.977357392915228385e+00 4.066106591947703242e-02 3.103709721396137766e+00 4.066106591947703242e-02 1.545278674047048773e+00
3.015043056847532266e-01 -6.065086376988144679e-01 3.124727428943333774e+00 -6.065086376988144679e-01 -1.866222153268758399e+00 4.852990479690721948e-02 3.124727428943333774e+00 4.852990479690721948e-02 1.914207063350283233e+00
5.298948298453596273e-01 -6.929727125809204136e-01 3.151274264582826223e+00 -6.929727125809203025e-01 -1.749155959987496622e+00 5.646384163340757711e-02 3.151274264582826223e+00 5.646384163340757711e-02 2.285793646616245400e+00
7.588999538312949378e-01 -7.738305288569931051e-01 3.183101437087362484e+00 -7.738305288569931051e-01 -1.627966633074185099e+00 6.450211413818754402e-02 3.183101437087362484e+00 6.450211413818754402e-02 2.655915510759887965e+00
9.857232882470705615e-01 -8.486659643266688535e-01 3.219904132865869961e+00 -8.486659643266688535e-01 -1.504468935925821649e+00 7.269542415272424452e-02 3.219904132865869961e+00 7.269542415272424452e-02 3.020594406313183100e+00
1.720457169586857660e+01 -1.507425794300104549e+01 6.191278394857016032e+00 -1.507425794300104549e+01 -2.200201160237063025e+00 -1.978154147247883188e+01 6.191278394857016032e+00 -1.978154147247883188e+01 -1.537769793137888108e+01
1.710538887102473637e+01 -1.505249357380733954e+01 6.107896357912910190e+00 -1.505249357380733954e+01 -2.345795421374770484e+00 -1.971855452322287050e+01 6.107896357912910190e+00 -1.971855452322287050e+01 -1.571564021032455116e+01
1.702842083692248920e+01 -1.501791921579183864e+01 6.016244581349673659e+00 -1.501791921579183864e+01 -2.458346757759779955e+00 -1.962302912134783739e+01 6.016244581349673659e+00 -1.962302912134783739e+01 -1.599466735080712709e+01
1.697593771816315922e+01 -1.497069702071178199e+01 5.916791503577102596e+00 -1.497069702071178199e+01 -2.535368842447776050e+00 -1.949543370526353669e+01 5.916791503577102596e+00 -1.949543370526353669e+01 -1.621081564320522617e+01
1.694725487399396968e+01 -1.491113327521973275e+01 5.810221765347980849e+00 -1.491113327521973275e+01 -2.577366147572389021e+00 -1.933630878082742299e+01 5.810221765347980849e+00 -1.933630878082742299e+01 -1.636435534044759521e+01
1.694172369738596373e+01 -1.483951624910632994e+01 5.697183973691257286e+00 -1.483951624910632994e+01 -2.584807111543416802e+00 -1.914608675272546634e+01 5.697183973691257286e+00 -1.914608675272546634e+01 -1.645555669546294553e+01
1.695817309231465231e+01 -1.475622429647180311e+01 5.578326735635886102e+00 -1.475622429647180311e+01 -2.558574560594709446e+00 -1.892501985702448053e+01 5.578326735635886102e+00 -1.892501985702448053e+01 -1.648542865251855005e+01
1.699535989530787461e+01 -1.466159973769253888e+01 5.454316675072733211e+00 -1.466159973769253888e+01 -2.499713472717356222e+00 -1.867321619489595719e+01 5.454316675072733211e+00 -1.867321619489595719e+01 -1.645541256056762691e+01
1.705184275741240540e+01 -1.455603894373067320e+01 5.325784382168833986e+00 -1.455603894373067320e+01 -2.409430977659683837e+00 -1.839069378320181158e+01 5.325784382168833986e+00 -1.839069378320181158e+01 -1.636720200463021158e+01
1.712609024536544311e+01 -1.443986621810068449e+01 5.193234329057818677e+00 -1.443986621810068449e+01 -2.288952222031933381e+00 -1.807712831842756884e+01 5.193234329057818677e+00 -1.807712831842756884e+01 -1.622249056972635728e+01
3.680894652387782173e+01 -3.041195698231466960e+00 -1.866366744580402681e+01 -3.041195698231466960e+00 4.798241135947465352e+01 1.984597421360191349e+00 -1.866366744580402681e+01 1.984597421360191349e+00 3.876868098747878122e+01
3.663007087760447433e+01 -3.211020883756471989e+00 -1.864303721303356198e+01 -3.211020883756471989e+00 4.805462577727085005e+01 2.073880388704593791e+00 -1.864303721303356198e+01 2.073880388704593791e+00 3.863438660318063711e+01
3.639966266490282010e+01 -3.376699375288414018e+00 -1.856772567939192697e+01 -3.376699375288414018e+00 4.806004573000036828e+01 2.155420566435393592e+00 -1.856772567939192697e+01 2.155420566435393592e+00 3.834057354664315653e+01
3.611878867011962058e+01 -3.536665408705432334e+00 -1.843828344325164181e+01 -3.536665408705432334e+00 4.799731192793105095e+01 2.228168376404970452e+00 -1.843828344325164181e+01 2.228168376404970452e+00 3.788674283809123011e+01
3.578861891479648705e+01 -3.689215570292533553e+00 -1.825536434018007625e+01 -3.689215570292533553e+00 4.786525434952128677e+01 2.291194683859691050e+00 -1.825536434018007625e+01 2.291194683859691050e+00 3.727330742630424965e+01
3.541006532748792068e+01 -3.832698064932150039e+00 -1.801967382434203202e+01 -3.832698064932150039e+00 4.766280621042429999e+01 2.343587560245064871e+00 -1.801967382434203202e+01 2.343587560245064871e+00 3.650093835304873835e+01
3.498409145534581910e+01 -3.965667571896409171e+00 -1.773196896849972148e+01 -3.965667571896409171e+00 4.738900396348819299e+01 2.384624345197155382e+00 -1.773196896849972148e+01 2.384624345197155382e+00 3.557068519647230431e+01
3.451154040212811225e+01 -4.086782007652286275e+00 -1.739312728880935310e+01 -4.086782007652286275e+00 4.704322818554386743e+01 2.413754440343440777e+00 -1.739312728880935310e+01 2.413754440343440777e+00 3.448406210209939360e+01
3.399334130258844056e+01 -4.194905763056453019e+00 -1.700409512622370656e+01 -4.194905763056453019e+00 4.662511754640935635e+01 2.430599309302810429e+00 -1.700409512622370656e+01 2.430599309302810429e+00 3.324309940142867958e+01
3.343068138446754745e+01 -4.289040878558712855e+00 -1.656597367748782190e+01 -4.289040878558712855e+00 4.613480969567779510e+01 2.434883652889003436e+00 -1.656597367748782190e+01 2.434883652889003436e+00 3.185046405532708391e+01
1.916101426821890641e+01 -1.413539768344323022e+01 -2.020250217648980495e+01 -1.413539768344323022e+01 2.595481628066622193e+01 -1.084860077292133873e+01 -2.020250217648980495e+01 -1.084860077292133873e+01 5.565535676708371682e+01
1.913876271815884422e+01 -1.421804130377628894e+01 -2.010417934138543217e+01 -1.421804130377628894e+01 2.605450252575070635e+01 -1.064648398317700995e+01 -2.010417934138543217e+01 -1.064648398317700995e+01 5.572847399717110761e+01
1.902493546443445638e+01 -1.427871304789135998e+01 -1.994067502146253190e+01 -1.427871304789135998e+01 2.606079518719738530e+01 -1.041891687380388731e+01 -1.994067502146253190e+01 -1.041891687380388731e+01 5.555418475471320505e+01
1.881979470127269849e+01 -1.431690600694968118e+01 -1.971258352363551936e+01 -1.431690600694968118e+01 2.597259304925309209e+01 -1.016672098671306479e+01 -1.971258352363551936e+01 -1.016672098671306479e+01 5.513112562972990105e+01
1.852403961327874882e+01 -1.433234050710917629e+01 -1.942086622673652485e+01 -1.433234050710917629e+01 2.578905709039159788e+01 -9.890927619197194431e+00 -1.942086622673652485e+01 -9.890927619197194431e+00 5.446032791951382990e+01
1.813896369197220437e+01 -1.432505150760010437e+01 -1.906674670382462011e+01 -1.432505150760010437e+01 2.550976779984979359e+01 -9.592760344315349741e+00 -1.906674670382462011e+01 -9.592760344315349741e+00 5.354432616825881297e+01
1.766627993963577481e+01 -1.429552843764609982e+01 -1.865174568141608802e+01 -1.429552843764609982e+01 2.513486501454871558e+01 -9.273547612817388597e+00 -1.865174568141608802e+01 -9.273547612817388597e+00 5.238733296321108668e+01
1.710852290046326019e+01 -1.424469771684902852e+01 -1.817780339679032409e+01 -1.424469771684902852e+01 2.466525767447510731e+01 -8.934845110449849415e+00 -1.817780339679032409e+01 -8.934845110449849415e+00 5.099571088427784815e+01
1.646910109940494493e+01 -1.417369552019232870e+01 -1.764757675144703342e+01 -1.417369552019232870e+01 2.410290349652348851e+01 -8.578365839495438294e+00 -1.764757675144703342e+01 -8.578365839495438294e+00 4.937783266710621888e+01
1.575130070410521022e+01 -1.408414745188304806e+01 -1.706454418879701862e+01 -1.408414745188304806e+01 2.344962036066734967e+01 -8.206364670305886122e+00 -1.706454418879701862e+01 -8.206364670305886122e+00 4.754366169232010009e+01
-2.604726680498382052e+01 4.510261494033293572e-01 -1.076590884140749971e+01 4.510261494033293572e-01 -2.781518816119305271e+01 1.189915457475598259e+01 -1.076590884140749971e+01 1.189915457475598259e+01 -1.753157998719591104e+00
-2.596539896741846576e+01 4.210159995440320713e-01 -1.064015999165630610e+01 4.210159995440320713e-01 -2.787838797493019882e+01 1.172734925585888810e+01 -1.064015999165630610e+01 1.172734925585888810e+01 -1.754162055778080376e+00
-2.586999495321273201e+01 3.908571004908845681e-01 -1.048676238549818684e+01 3.908571004908845681e-01 -2.792950191666700732e+01 1.153304562139194012e+01 -1.048676238549818684e+01 1.153304562139194012e+01 -1.739008231654581627e+00
-2.576174272738817805e+01 3.608655442808185732e-01 -1.030539993089621476e+01 3.608655442808185732e-01 -2.796784202138192299e+01 1.131654116974283397e+01 -1.030539993089621476e+01 1.131654116974283397e+01 -1.708905113549127774e+00
-2.564211118823407531e+01 3.313388293015347430e-01 -1.009601684690269074e+01 3.313388293015347430e-01 -2.799374297476110485e+01 1.107826355484389147e+01 -1.009601684690269074e+01 1.107826355484389147e+01 -1.664912539467902741e+00
-2.551301548162125243e+01 3.026302348884275517e-01 -9.858482977972998995e+00 3.026302348884275517e-01 -2.800785555452764797e+01 1.081865902427666093e+01 -9.858482977972998995e+00 1.081865902427666093e+01 -1.608555188647871725e+00
-2.537657528356206882e+01 2.751116340261228199e-01 -9.592668168562520137e+00 2.751116340261228199e-01 -2.801114663044158704e+01 1.053809945102577039e+01 -9.592668168562520137e+00 1.053809945102577039e+01 -1.541822581556782534e+00
-2.523498464466581837e+01 2.490991187515522731e-01 -9.298423669477402953e+00 2.490991187515522731e-01 -2.800482478970295119e+01 1.023688233347892229e+01 -9.298423669477402953e+00 1.023688233347892229e+01 -1.466852987856233304e+00
-2.509062355203410277e+01 2.249459684001104132e-01 -8.975619325173029850e+00 2.249459684001104132e-01 -2.799021018140715711e+01 9.915212201777656276e+00 -8.975619325173029850e+00 9.915212201777656276e+00 -1.386119362893985185e+00
-2.494583480547007426e+01 2.029496813594978688e-01 -8.624013418209392157e+00 2.029496813594978688e-01 -2.796895764033579823e+01 9.573219211466593492e+00 -8.624013418209392157e+00 9.573219211466593492e+00 -1.302076068368567707e+00
2.900203185586937238e+01 7.681051175496165229e+00 -1.604570967639591217e+01 7.681051175496165229e+00 6.734174710413657117e+00 1.064719301753841485e+01 -1.604570967639591217e+01 1.064719301753841485e+01 -2.240670261240909511e+01
2.913182800391989247e+01 7.725458878514548822e+00 -1.605565143306039744e+01 7.725458878514548822e+00 6.585084057956838599e+00 1.047970029843692075e+01 -1.605565143306039744e+01 1.047970029843692075e+01 -2.245084258409899292e+01
2.929219906968362608e+01 7.766618108080623806e+00 -1.603473269192794248e+01 7.766618108080623806e+00 6.483845918278271725e+00 1.030248000773373107e+01 -1.603473269192794248e+01 1.030248000773373107e+01 -2.240313286136260373e+01
2.948153866518966737e+01 7.804350376642063658e+00 -1.598240014158634281e+01 7.804350376642063658e+00 6.429799887434354488e+00 1.011551429667361113e+01 -1.598240014158634281e+01 1.011551429667361113e+01 -2.226655418632374506e+01
2.969827609997754436e+01 7.838370104115150561e+00 -1.589801122684722579e+01 7.838370104115150561e+00 6.422464049033808742e+00 9.918785316501333327e+00 -1.589801122684722579e+01 9.918785316501333327e+00 -2.204342689716264303e+01
2.994035876719552647e+01 7.868409559171397838e+00 -1.578078060248036785e+01 7.868409559171397838e+00 6.460945965315013417e+00 9.712114579664568481e+00 -1.578078060248036785e+01 9.712114579664568481e+00 -2.173717795488393278e+01
3.020548417741863290e+01 7.894236707992781099e+00 -1.562983367947937019e+01 7.894236707992781099e+00 6.544014072166926432e+00 9.495180808569132935e+00 -1.562983367947937019e+01 9.495180808569132935e+00 -2.135169838812828758e+01
3.049124274869046758e+01 7.915601668006046587e+00 -1.544429586883785177e+01 7.915601668006046587e+00 6.670115527884322937e+00 9.267323599271428236e+00 -1.544429586883785177e+01 9.267323599271428236e+00 -2.089136114192766769e+01
3.079522489905465932e+01 7.932343800414103363e+00 -1.522304269897615825e+01 7.932343800414103363e+00 6.837626095741049959e+00 9.027793304051687784e+00 -1.522304269897615825e+01 9.027793304051687784e+00 -2.036073549762157953e+01
3.111491395402341453e+01 7.944177525133230056e+00 -1.496498539582511533e+01 7.944177525133230056e+00 7.044725202703393308e+00 8.775661787637822897e+00 -1.496498539582511533e+01 8.775661787637822897e+00 -1.976478340916465370e+01
6.244057922188005705e+00 -8.556767422283344970e+00 -5.936348381661160190e+00 -8.556767422283344970e+00 8.463345440709343137e+00 2.480680658822626228e+01 -5.936348381661160190e+00 2.480680658822626228e+01 4.528411932299425757e+01
6.248821447884700397e+00 -8.527795232411651938e+00 -5.910202313378177585e+00 -8.527795232411651938e+00 8.629731127451014672e+00 2.465302291536129786e+01 -5.910202313378177585e+00 2.465302291536129786e+01 4.549552743730954774e+01
6.191907980418957180e+00 -8.481244210771182068e+00 -5.844863804195143508e+00 -8.481244210771182068e+00 8.721357899713947148e+00 2.442910165891737861e+01 -5.844863804195143508e+00 2.442910165891737861e+01 4.551710549774159631e+01
6.073637458083834595e+00 -8.417860880045747507e+00 -5.741274894641628102e+00 -8.417860880045747507e+00 8.736412773837459511e+00 2.413516723934179709e+01 -5.741274894641628102e+00 2.413516723934179709e+01 4.534615180314898453e+01
5.894720854863916060e+00 -8.338605055114530984e+00 -5.600821983987565034e+00 -8.338605055114530984e+00 8.673882611893521499e+00 2.377228611761142929e+01 -5.600821983987565034e+00 2.377228611761142929e+01 4.498293296877594827e+01
5.655993565191085537e+00 -8.244667617401708171e+00 -5.425086989348648636e+00 -8.244667617401708171e+00 8.532843147702179110e+00 2.334177359559775766e+01 -5.425086989348648636e+00 2.334177359559775766e+01 4.442883539389240610e+01
5.358237660448379458e+00 -8.137577160974128532e+00 -5.216042863532091900e+00 -8.137577160974128532e+00 8.312921119921526270e+00 2.284558485175837461e+01 -5.216042863532091900e+00 2.284558485175837461e+01 4.368640081049323953e+01
5.002590699011130404e+00 -8.019057797744403970e+00 -4.975804754142025388e+00 -8.019057797744403970e+00 8.014329820746938893e+00 2.228603055154316692e+01 -4.975804754142025388e+00 2.228603055154316692e+01 4.275932628329827878e+01
4.590279111002740997e+00 -7.891011383121287359e+00 -4.706718875327565499e+00 -7.891011383121287359e+00 7.637797998512608544e+00 2.166623898048430163e+01 -4.706718875327565499e+00 2.166623898048430163e+01 4.165248198410189673e+01
4.123080331384664454e+00 -7.755606387757752351e+00 -4.411380282132436825e+00 -7.755606387757752351e+00 7.184925344683848358e+00 2.098969391110622240e+01 -4.411380282132436825e+00 2.098969391110622240e+01 4.037223113006610475e+01
-1.146670493225174337e+00 -1.643268095493340653e+01 -1.015274786022005848e+01 -1.643268095493340653e+01 9.772892081242494200e+00 -2.176610035337746829e-01 -1.015274786022005848e+01 -2.176610035337746829e-01 -2.816707702980956540e+01
-1.219387243739746385e+00 -1.632318000218993248e+01 -1.023412611254025428e+01 -1.632318000218993248e+01 9.837001690841436385e+00 -2.646469327847801867e-01 -1.023412611254025428e+01 -2.646469327847801867e-01 -2.818530604825403785e+01
-1.246060320429865920e+00 -1.620539807387079279e+01 -1.029662301573605632e+01 -1.620539807387079279e+01 9.943132268405314278e+00 -3.174132366717558051e-01 -1.029662301573605632e+01 -3.174132366717558051e-01 -2.809363546742841322e+01
-1.225294460452367895e+00 -1.607993313976590954e+01 -1.034096338167404738e+01 -1.607993313976590954e+01 1.009195426491071679e+01 -3.756337498547410170e-01 -1.034096338167404738e+01 -3.756337498547410170e-01 -2.789146731754277653e+01
-1.157633272707186967e+00 -1.594763685381851559e+01 -1.036756397717750922e+01 -1.594763685381851559e+01 1.028207241751447754e+01 -4.388554649171235722e-01 -1.036756397717750922e+01 -4.388554649171235722e-01 -2.758035994411025982e+01
-1.043692847280915270e+00 -1.580934274967517972e+01 -1.037666036610307962e+01 -1.580934274967517972e+01 1.051200086189010818e+01 -5.065528932556336850e-01 -1.037666036610307962e+01 -5.065528932556336850e-01 -2.716246966243394212e+01
-8.844516801934350081e-01 -1.566586624068579781e+01 -1.036836127023074816e+01 -1.566586624068579781e+01 1.077996380896448869e+01 -5.780555838936851654e-01 -1.036836127023074816e+01 -5.780555838936851654e-01 -2.664065947938681234e+01
-6.811600719145957106e-01 -1.551804086049694398e+01 -1.034266668956050950e+01 -1.551804086049694398e+01 1.108391366521453314e+01 -6.526930858546923231e-01 -1.034266668956050950e+01 -6.526930858546923231e-01 -2.601831789044513243e+01
-4.352857664742203481e-01 -1.536660954127185796e+01 -1.029937730082905922e+01 -1.536660954127185796e+01 1.142163975444717394e+01 -7.297224669754113213e-01 -1.029937730082905922e+01 -7.297224669754113213e-01 -2.529926827820510127e+01
-1.482965079021321964e-01 -1.521236957606377516e+01 -1.023822129958642790e+01 -1.521236957606377516e+01 1.179084079898602511e+01 -8.083826747959337311e-01 -1.023822129958642790e+01 -8.083826747959337311e-01 -2.448753334852623809e+01
1.731208017764770801e+01 1.334356641607609895e+01 -5.370477703804817260e+00 1.334356641607609895e+01 3.137837365416435986e+01 -7.458408318336882559e+00 -5.370477703804817260e+00 -7.458408318336882559e+00 4.405404769244398722e+01
1.728031906245348281e+01 1.340983300259305722e+01 -5.522570969245083283e+00 1.340983300259305722e+01 3.144691263747562004e+01 -7.565805286830733500e+00 -5.522570969245083283e+00 -7.565805286830733500e+00 4.409654151249745979e+01
1.719395050429460881e+01 1.345793789473092694e+01 -5.639931523683188175e+00 1.345793789473092694e+01 3.143670433187659796e+01 -7.645321694656014522e+00 -5.639931523683188175e+00 -7.645321694656014522e+00 4.395713870915461285e+01
1.705267734359029319e+01 1.348767133278562191e+01 -5.722908966625946725e+00 1.348767133278562191e+01 3.134696213847695034e+01 -7.696817702010000595e+00 -5.722908966625946725e+00 -7.696817702010000595e+00 4.363508764347578506e+01
1.685635974053781538e+01 1.349882355705304882e+01 -5.771887857530857424e+00 1.349882355705304882e+01 3.117686449843566621e+01 -7.720170949065303212e+00 -5.771887857530857424e+00 -7.720170949065303212e+00 4.313007367590484620e+01
1.660485785533444059e+01 1.349151692736059793e+01 -5.787497475510187783e+00 1.349151692736059793e+01 3.092607929222126373e+01 -7.715556235575333766e+00 -5.787497475510187783e+00 -7.715556235575333766e+00 4.244262120570201802e+01
1.629785704842403860e+01 1.346601364333837481e+01 -5.770576859380297741e+00 1.346601364333837481e+01 3.059432684022829818e+01 -7.683410560923610078e+00 -5.770576859380297741e+00 -7.683410560923610078e+00 4.157360423163434149e+01
1.593500772029979373e+01 1.342299542402467694e+01 -5.721965047957543682e+00 1.342299542402467694e+01 3.018153722255539506e+01 -7.624433124123764394e+00 -5.721965047957543682e+00 -7.624433124123764394e+00 4.052419391204964683e+01
1.551627491101102585e+01 1.336316146843313213e+01 -5.642833199589760262e+00 1.336316146843313213e+01 2.968818239853677099e+01 -7.539462963992154876e+00 -5.642833199589760262e+00 -7.539462963992154876e+00 3.929652280393951713e+01
1.504151878075500548e+01 1.328756057508418742e+01 -5.534265072748075553e+00 1.328756057508418742e+01 2.911496156718603956e+01 -7.429671238876614403e+00 -5.534265072748075553e+00 -7.429671238876614403e+00 3.789340518333382590e+01
4.678169452176175747e-01 2.032479091271571647e+01 -1.378399457415714480e+01 2.032479091271571647e+01 2.466984396068148566e+00 4.317957800531345036e+00 -1.378399457415714480e+01 4.317957800531345036e+00 5.582342549318713765e+00
2.987151812693683017e-01 2.017435997506215983e+01 -1.374809607722339067e+01 2.017435997506215983e+01 2.567554305819747196e+00 4.387337508675677178e+00 -1.374809607722339067e+01 4.387337508675677178e+00 5.470281512659173728e+00
1.254823842568830450e-01 2.000278680705364565e+01 -1.367804890958833042e+01 2.000278680705364565e+01 2.669170503421677054e+00 4.450818318077628177e+00 -1.367804890958833042e+01 4.450818318077628177e+00 5.338557480191697735e+00
-5.016769847877972088e-02 1.981185731381401638e+01 -1.357459268852547396e+01 1.981185731381401638e+01 2.770931016589169626e+00 4.507931203149118993e+00 -1.357459268852547396e+01 4.507931203149118993e+00 5.188072424201054744e+00
-2.275676074468918342e-01 1.960333936102141905e+01 -1.343862938631959025e+01 1.960333936102141905e+01 2.871302492438119636e+00 4.558044783290812418e+00 -1.343862938631959025e+01 4.558044783290812418e+00 5.019042818035586606e+00
-4.062483170593740867e-01 1.937925336659373343e+01 -1.327098881747266645e+01 1.937925336659373343e+01 2.968354710279124564e+00 4.600617875131848500e+00 -1.327098881747266645e+01 4.600617875131848500e+00 4.831234148901255132e+00
-5.859392356307960847e-01 1.914167386678591853e+01 -1.307259099371516164e+01 1.914167386678591853e+01 3.060013133857218737e+00 4.635145374192755519e+00 -1.307259099371516164e+01 4.635145374192755519e+00 4.624159351764284942e+00
-7.667485998353301690e-01 1.889274755563572583e+01 -1.284424769010336931e+01 1.889274755563572583e+01 3.143896556340615156e+00 4.661158254885457097e+00 -1.284424769010336931e+01 4.661158254885457097e+00 4.397060769905472455e+00
-9.486944491186715123e-01 1.863462112718090324e+01 -1.258660832668232210e+01 1.863462112718090324e+01 3.217677889234613176e+00 4.678241609958956992e+00 -1.258660832668232210e+01 4.678241609958956992e+00 4.148856036583095985e+00
-1.132155611840422571e+00 1.836942323601350324e+01 -1.230028624460566178e+01 1.836942323601350324e+01 3.278885728478949879e+00 4.686070729390740652e+00 -1.230028624460566178e+01 4.686070729390740652e+00 3.878300430044175684e+00
3.613743758414548779e+01 6.182166770341567030e+00 2.187981450160410191e+01 6.182166770341567030e+00 3.631662932675844502e+01 -5.330558357908159905e+00 2.187981450160410191e+01 -5.330558357908159905e+00 6.848943238886083407e+01
3.591396440782764898e+01 6.184938664131025554e+00 2.211699219628473045e+01 6.184938664131025554e+00 3.586140172621760769e+01 -5.125248833440499752e+00 2.211699219628473045e+01 -5.125248833440499752e+00 6.766475094466788676e+01
3.558367862859179098e+01 6.178998891725043130e+00 2.231450254133236299e+01 6.178998891725043130e+00 3.529856955310462752e+01 -4.912966532670163033e+00 2.231450254133236299e+01 -4.912966532670163033e+00 6.656635790131460340e+01
3.514864625423130917e+01 6.164605704097791516e+00 2.247203563557798844e+01 6.164605704097791516e+00 3.463303957592878390e+01 -4.694193524082274749e+00 2.247203563557798844e+01 -4.694193524082274749e+00 6.520280997441193449e+01
3.461079555868667512e+01 6.142361686855677405e+00 2.258907497707325973e+01 6.142361686855677405e+00 3.387021784841611094e+01 -4.469687343867742690e+00 2.258907497707325973e+01 -4.469687343867742690e+00 6.358441998619519353e+01
3.397198594897194823e+01 6.112748908483821353e+00 2.266550004869690582e+01 6.112748908483821353e+00 3.301497670561267483e+01 -4.240343262070366492e+00 2.266550004869690582e+01 -4.240343262070366492e+00 6.172144910870487422e+01
3.323808833056666145e+01 6.076438821515075972e+00 2.270175848547081543e+01 6.076438821515075972e+00 3.207654431566224673e+01 -4.006419529664319690e+00 2.270175848547081543e+01 -4.006419529664319690e+00 5.963214707744918286e+01
3.241330358598404615e+01 6.034206178871958315e+00 2.269857339012268227e+01 6.034206178871958315e+00 3.106201397198880088e+01 -3.768794199961790881e+00 2.269857339012268227e+01 -3.768794199961790881e+00 5.733286978745910289e+01
3.150424294016291782e+01 5.986963467329881716e+00 2.265723601752336336e+01 5.986963467329881716e+00 2.998071714312578351e+01 -3.528138725495630457e+00 2.265723601752336336e+01 -3.528138725495630457e+00 5.484443226725300491e+01
3.051891217330265249e+01 5.935554306737812702e+00 2.257953690776046685e+01 5.935554306737812702e+00 2.884270840033434880e+01 -3.285158992261911770e+00 2.257953690776046685e+01 -3.285158992261911770e+00 5.219049030606512218e+01
4.013867162880087847e+01 1.075748620033094838e+01 -1.354703086713734805e+01 1.075748620033094838e+01 2.893815518653857666e+01 -1.376296565099217162e+01 -1.354703086713734805e+01 -1.376296565099217162e+01 3.832719368722840159e+01
4.011272826030725014e+01 1.076883750718688049e+01 -1.353467440639188446e+01 1.076883750718688049e+01 2.887101783881356809e+01 -1.380440225357619077e+01 -1.353467440639188446e+01 -1.380440225357619077e+01 3.819910588727085354e+01
4.002181382402294219e+01 1.076525014761561749e+01 -1.347159233470395989e+01 1.076525014761561749e+01 2.875634364420944422e+01 -1.381003458140547124e+01 -1.347159233470395989e+01 -1.381003458140547124e+01 3.791293164282505757e+01
3.986618827354009653e+01 1.074701873568822741e+01 -1.335826989877886461e+01 1.074701873568822741e+01 2.859404595152883388e+01 -1.378019190903002844e+01 -1.335826989877886461e+01 -1.378019190903002844e+01 3.746877493532784342e+01
3.964597292053502287e+01 1.071454186691263111e+01 -1.319560827106928258e+01 1.071454186691263111e+01 2.838409010029278434e+01 -1.371504753884461358e+01 -1.319560827106928258e+01 -1.371504753884461358e+01 3.686769290938718058e+01
3.936125441620509235e+01 1.066840876943096639e+01 -1.298475124738054909e+01 1.066840876943096639e+01 2.812583487164073048e+01 -1.361493074539924208e+01 -1.298475124738054909e+01 -1.361493074539924208e+01 3.611070804913206445e+01
3.901231004438190553e+01 1.060938197378012049e+01 -1.272705058639168740e+01 1.060938197378012049e+01 2.781891633054370772e+01 -1.348024012420183659e+01 -1.272705058639168740e+01 -1.348024012420183659e+01 3.519948405755207688e+01
3.859967704248918352e+01 1.053824134073645702e+01 -1.242403134917647201e+01 1.053824134073645702e+01 2.746297054197274079e+01 -1.331146092195768560e+01 -1.242403134917647201e+01 -1.331146092195768560e+01 3.413601391218681158e+01
3.812385798747168764e+01 1.045606134514740582e+01 -1.207746122016132340e+01 1.045606134514740582e+01 2.705739094754622087e+01 -1.310926901800630340e+01 -1.207746122016132340e+01 -1.310926901800630340e+01 3.292263719536534694e+01
3.758613531705054100e+01 1.036391646186040028e+01 -1.168924652568845879e+01 1.036391646186040028e+01 2.660228152870099905e+01 -1.287440961264510264e+01 -1.168924652568845879e+01 -1.287440961264510264e+01 3.156297592713790223e+01
-1.933395392881098473e+01 1.097719942466798670e+01 1.293874404508710185e+01 1.097719942466798670e+01 -8.805409998477131239e+00 -1.692367979071268635e+01 1.293874404508710185e+01 -1.692367979071268635e+01 -3.356466442668818928e+01
-1.931217255953069767e+01 1.098452773582770980e+01 1.288281940790356117e+01 1.098452773582770980e+01 -8.855005639659093930e+00 -1.694105677096263207e+01 1.288281940790356117e+01 -1.694105677096263207e+01 -3.360841222361138136e+01
-1.923489218730089334e+01 1.098671142450661797e+01 1.281562471643650802e+01 1.098671142450661797e+01 -8.857855538443430987e+00 -1.693102660770867018e+01 1.281562471643650802e+01 -1.693102660770867018e+01 -3.352254514335604796e+01
-1.910120602614473739e+01 1.098360244401461294e+01 1.273690088897827444e+01 1.098360244401461294e+01 -8.812904862163211561e+00 -1.689382987682220261e+01 1.273690088897827444e+01 -1.689382987682220261e+01 -3.330600835325525111e+01
-1.891207637954785525e+01 1.097512677100665179e+01 1.264661091385633718e+01 1.097512677100665179e+01 -8.720838326760128822e+00 -1.682959611915705622e+01 1.264661091385633718e+01 -1.682959611915705622e+01 -3.296028232020994153e+01
-1.866863210352221714e+01 1.096115486462889699e+01 1.254462525021686226e+01 1.096115486462889699e+01 -8.582488694865968881e+00 -1.673843636973080606e+01 1.254462525021686226e+01 -1.673843636973080606e+01 -3.248740268620894511e+01
-1.837252021749513986e+01 1.094168672488135030e+01 1.243074033386096922e+01 1.094168672488135030e+01 -8.398966316656448328e+00 -1.662044315772476466e+01 1.243074033386096922e+01 -1.662044315772476466e+01 -3.189016383252780784e+01
-1.802551728174776358e+01 1.091662982258270276e+01 1.230478961226230084e+01 1.091662982258270276e+01 -8.171548094833639198e+00 -1.647570901232024099e+01 1.230478961226230084e+01 -1.647570901232024099e+01 -3.117200784471124564e+01
-1.762973296161394998e+01 1.088592864022416862e+01 1.216651400371318914e+01 1.088592864022416862e+01 -7.901584955444662661e+00 -1.630421542768097254e+01 1.216651400371318914e+01 -1.630421542768097254e+01 -3.033661738417538345e+01
-1.718742496911765727e+01 1.084960168364200683e+01 1.201556189732465718e+01 1.084960168364200683e+01 -7.590705412080567704e+00 -1.610596240380695932e+01 1.201556189732465718e+01 -1.610596240380695932e+01 -2.938798971155279105e+01