 vasp.6.1.1 19Jun20 (build Dec 21 2021 08:45:49) complex                        
  
 executed on             LinuxIFC date 2023.10.07  15:58:15
 running on   40 total cores
 distrk:  each k-point on   40 cores,    1 groups
 distr:  one band on NCORE=   1 cores,   40 groups


--------------------------------------------------------------------------------------------------------


 INCAR:
 POTCAR:   PAW_PBE Te 08Apr2002                   
 POTCAR:   PAW_PBE Mo 08Apr2002                   
 -----------------------------------------------------------------------------
|                                                                             |
|           W    W    AA    RRRRR   N    N  II  N    N   GGGG   !!!           |
|           W    W   A  A   R    R  NN   N  II  NN   N  G    G  !!!           |
|           W    W  A    A  R    R  N N  N  II  N N  N  G       !!!           |
|           W WW W  AAAAAA  RRRRR   N  N N  II  N  N N  G  GGG   !            |
|           WW  WW  A    A  R   R   N   NN  II  N   NN  G    G                |
|           W    W  A    A  R    R  N    N  II  N    N   GGGG   !!!           |
|                                                                             |
|     For optimal performance we recommend to set                             |
|       NCORE = 4 - approx SQRT(number of cores).                             |
|     NCORE specifies how many cores store one orbital (NPAR=cpu/NCORE).      |
|     This setting can greatly improve the performance of VASP for DFT.       |
|     The default, NCORE=1 might be grossly inefficient on modern             |
|     multi-core architectures or massively parallel machines. Do your        |
|     own testing!!!!                                                         |
|     Unfortunately you need to use the default for GW and RPA                |
|     calculations (for HF NCORE is supported but not extensively tested      |
|     yet).                                                                   |
|                                                                             |
 -----------------------------------------------------------------------------

 POTCAR:   PAW_PBE Te 08Apr2002                   
   VRHFIN =Te: s2p4                                                                                 
   LEXCH  = PE                                                                                      
   EATOM  =   223.2721 eV,   16.4100 Ry                                                             
                                                                                                    
   TITEL  = PAW_PBE Te 08Apr2002                                                                    
   LULTRA =        F    use ultrasoft PP ?                                                          
   IUNSCR =        1    unscreen: 0-lin 1-nonlin 2-no                                               
   RPACOR =    2.200    partial core radius                                                         
   POMASS =  127.600; ZVAL   =    6.000    mass and valenz                                          
   RCORE  =    2.300    outmost cutoff radius                                                       
   RWIGS  =    2.900; RWIGS  =    1.535    wigner-seitz radius (au A)                               
   ENMAX  =  174.982; ENMIN  =  131.236 eV                                                          
   ICORE  =        3    local potential                                                             
   LCOR   =        T    correct aug charges                                                         
   LPAW   =        T    paw PP                                                                      
   EAUG   =  368.792                                                                                
   DEXC   =    -.169                                                                                
   RMAX   =    3.486    core radius for proj-oper                                                   
   RAUG   =    1.300    factor for augmentation sphere                                              
   RDEP   =    2.397    radius for radial grids                                                     
   QCUT   =   -3.586; QGAM   =    7.172    optimization parameters                                  
                                                                                                    
   Description                                                                                      
     l     E      TYP  RCUT    TYP  RCUT                                                            
     0   .000     23  2.300                                                                         
     0   .000     23  2.300                                                                         
     1   .000     23  2.300                                                                         
     1   .000     23  2.300                                                                         
     2   .000     23  2.300                                                                         
     3  -.100     23  2.300                                                                         
  local pseudopotential read in
  partial core-charges read in
  atomic valenz-charges read in
  non local Contribution for L=           0  read in
    real space projection operators read in
  non local Contribution for L=           0  read in
    real space projection operators read in
  non local Contribution for L=           1  read in
    real space projection operators read in
  non local Contribution for L=           1  read in
    real space projection operators read in
  non local Contribution for L=           2  read in
    real space projection operators read in
    PAW grid and wavefunctions read in
 
   number of l-projection  operators is LMAX  =           5
   number of lm-projection operators is LMMAX =          13
 
 POTCAR:   PAW_PBE Mo 08Apr2002                   
   VRHFIN =Mo: 4p5s4d                                                                               
   LEXCH  = PE                                                                                      
   EATOM  =   217.5180 eV,   15.9871 Ry                                                             
                                                                                                    
   TITEL  = PAW_PBE Mo 08Apr2002                                                                    
   LULTRA =        F    use ultrasoft PP ?                                                          
   IUNSCR =        1    unscreen: 0-lin 1-nonlin 2-no                                               
   RPACOR =    2.200    partial core radius                                                         
   POMASS =   95.940; ZVAL   =    6.000    mass and valenz                                          
   RCORE  =    2.750    outmost cutoff radius                                                       
   RWIGS  =    2.750; RWIGS  =    1.455    wigner-seitz radius (au A)                               
   ENMAX  =  224.584; ENMIN  =  168.438 eV                                                          
   RCLOC  =    2.111    cutoff for local pot                                                        
   LCOR   =        T    correct aug charges                                                         
   LPAW   =        T    paw PP                                                                      
   EAUG   =  345.278                                                                                
   DEXC   =    -.088                                                                                
   RMAX   =    3.077    core radius for proj-oper                                                   
   RAUG   =    1.300    factor for augmentation sphere                                              
   RDEP   =    2.815    radius for radial grids                                                     
   QCUT   =   -4.063; QGAM   =    8.126    optimization parameters                                  
                                                                                                    
   Description                                                                                      
     l     E      TYP  RCUT    TYP  RCUT                                                            
     2   .000     23  2.500                                                                         
     2   .000     23  2.500                                                                         
     0   .000     23  2.600                                                                         
     0  1.000     23  2.600                                                                         
     1   .400     23  2.750                                                                         
     1  2.000     23  2.750                                                                         
     3   .000      7   .000                                                                         
  local pseudopotential read in
  partial core-charges read in
  atomic valenz-charges read in
  non local Contribution for L=           2  read in
    real space projection operators read in
  non local Contribution for L=           2  read in
    real space projection operators read in
  non local Contribution for L=           0  read in
    real space projection operators read in
  non local Contribution for L=           0  read in
    real space projection operators read in
  non local Contribution for L=           1  read in
    real space projection operators read in
  non local Contribution for L=           1  read in
    real space projection operators read in
    PAW grid and wavefunctions read in
 
   number of l-projection  operators is LMAX  =           6
   number of lm-projection operators is LMMAX =          18
 
 -----------------------------------------------------------------------------
|                                                                             |
|               ----> ADVICE to this user running VASP <----                  |
|                                                                             |
|     You have a (more or less) 'large supercell' and for larger cells it     |
|     might be more efficient to use real-space projection operators.         |
|     Therefore, try LREAL= Auto in the INCAR file.                           |
|     Mind: If you want to do very accurate calculations, keep the            |
|     reciprocal projection scheme (i.e. LREAL=.FALSE.).                      |
|                                                                             |
 -----------------------------------------------------------------------------

 PAW_PBE Te 08Apr2002                   :
 energy of atom  1       EATOM= -223.2721
 kinetic energy error for atom=    0.0006 (will be added to EATOM!!)
 PAW_PBE Mo 08Apr2002                   :
 energy of atom  2       EATOM= -217.5180
 kinetic energy error for atom=    0.0009 (will be added to EATOM!!)
 
 
 POSCAR: Te Mo
  positions in cartesian coordinates
  No initial velocities read in
 exchange correlation table for  LEXCH =        8
   RHO(1)=    0.500       N(1)  =     2000
   RHO(2)=  100.500       N(2)  =     4000
 


--------------------------------------------------------------------------------------------------------


 ion  position               nearest neighbor table
   1  0.222  0.111  0.683-  40 2.68  41 2.70  37 2.73   2 3.46   3 3.47   7 3.52   4 3.53  19 3.54
                             9 3.61   5 3.63
   2  0.223  0.445  0.683-  41 2.67  42 2.71  38 2.74   3 3.45   1 3.46   5 3.52   8 3.53  20 3.55
                             6 3.62   7 3.63
   3  0.222  0.777  0.683-  42 2.68  40 2.71  39 2.73   2 3.45   1 3.47   9 3.52   6 3.52  21 3.54
                             8 3.62   4 3.62
   4  0.555  0.110  0.683-  43 2.68  44 2.72  40 2.73   6 3.45   5 3.47   7 3.53   1 3.53  22 3.54
                             3 3.62   8 3.63
   5  0.556  0.444  0.683-  44 2.67  45 2.70  41 2.73   6 3.46   4 3.47   2 3.52   8 3.53  23 3.55
                             1 3.63   9 3.63
   6  0.556  0.778  0.683-  45 2.67  43 2.70  42 2.73   4 3.45   5 3.46   3 3.52   9 3.53  24 3.54
                             2 3.62   7 3.63
   7  0.889  0.111  0.683-  37 2.67  38 2.70  43 2.73   9 3.45   8 3.46   1 3.52   4 3.53  25 3.54
                             6 3.63   2 3.63
   8  0.889  0.444  0.683-  38 2.67  39 2.70  44 2.73   7 3.46   9 3.47   5 3.53   2 3.53  26 3.53
                             3 3.62   4 3.63
   9  0.890  0.779  0.683-  39 2.67  37 2.70  45 2.74   7 3.45   8 3.47   3 3.52   6 3.53  27 3.54
                             1 3.61   5 3.63
  10  0.111  0.111  0.438-  46 2.67  47 2.70  52 2.74  11 3.46  12 3.46  16 3.52  13 3.53  28 3.54
                            14 3.63  18 3.63
  11  0.112  0.444  0.438-  47 2.67  48 2.70  53 2.73  10 3.46  12 3.46  14 3.52  17 3.53  29 3.54
                            15 3.62  16 3.63
  12  0.112  0.778  0.438-  48 2.66  46 2.70  54 2.74  11 3.46  10 3.46  15 3.51  18 3.54  30 3.54
                            13 3.62  17 3.63
  13  0.444  0.111  0.438-  49 2.68  50 2.71  46 2.74  15 3.46  14 3.46  16 3.52  10 3.53  31 3.54
                            12 3.62  17 3.63
  14  0.444  0.445  0.438-  50 2.67  51 2.70  47 2.73  15 3.46  13 3.46  11 3.52  17 3.53  32 3.54
                            18 3.62  10 3.63
  15  0.444  0.778  0.438-  51 2.68  49 2.71  48 2.73  13 3.46  14 3.46  12 3.51  18 3.53  33 3.54
                            11 3.62  16 3.63
  16  0.778  0.111  0.438-  52 2.67  53 2.71  49 2.72  18 3.46  17 3.46  13 3.52  10 3.52  34 3.55
                            15 3.63  11 3.63
  17  0.778  0.445  0.438-  53 2.67  54 2.71  50 2.73  18 3.46  16 3.46  14 3.53  11 3.53  35 3.55
                            13 3.63  12 3.63
  18  0.777  0.778  0.438-  54 2.68  52 2.71  51 2.72  16 3.46  17 3.46  15 3.53  36 3.53  12 3.54
                            14 3.62  10 3.63
  19  0.223  0.112  0.562-  40 2.66  41 2.70  37 2.75  20 3.45  21 3.47  22 3.52  25 3.53   1 3.54
                            23 3.61  27 3.63
  20  0.223  0.444  0.562-  41 2.66  42 2.71  38 2.75  19 3.45  21 3.46  23 3.51  26 3.53   2 3.55
                            24 3.62  25 3.63
  21  0.222  0.777  0.562-  42 2.65  40 2.71  39 2.74  20 3.46  19 3.47  27 3.52  24 3.52   3 3.54
                            26 3.63  22 3.63
  22  0.556  0.111  0.562-  43 2.66  44 2.72  40 2.75  24 3.46  23 3.47  25 3.52  19 3.52   4 3.54
                            26 3.62  21 3.63
  23  0.555  0.444  0.562-  44 2.66  45 2.72  41 2.74  24 3.46  22 3.47  20 3.51  26 3.53   5 3.55
                            19 3.61  27 3.63
  24  0.555  0.778  0.562-  45 2.66  43 2.71  42 2.73  22 3.46  23 3.46  21 3.52  27 3.53   6 3.54
                            20 3.62  25 3.63
  25  0.889  0.111  0.562-  37 2.66  38 2.71  43 2.74  26 3.46  27 3.46  22 3.52  19 3.53   7 3.54
                            20 3.63  24 3.63
  26  0.889  0.444  0.562-  38 2.65  39 2.71  44 2.73  25 3.46  27 3.46   8 3.53  20 3.53  23 3.53
                            22 3.62  21 3.63
  27  0.889  0.778  0.562-  39 2.65  37 2.71  45 2.75  25 3.46  26 3.46  21 3.52  24 3.53   9 3.54
                            23 3.63  19 3.63
  28  0.111  0.112  0.317-  46 2.65  47 2.70  52 2.75  29 3.45  30 3.46  34 3.52  31 3.53  10 3.54
                            32 3.62  36 3.63
  29  0.111  0.444  0.317-  47 2.66  48 2.71  53 2.75  28 3.45  30 3.46  32 3.52  35 3.53  11 3.54
                            33 3.62  34 3.63
  30  0.110  0.777  0.317-  48 2.66  46 2.71  54 2.73  29 3.46  28 3.46  36 3.51  33 3.53  12 3.54
                            35 3.62  31 3.63
  31  0.444  0.111  0.317-  49 2.66  50 2.72  46 2.75  32 3.46  33 3.46  28 3.53  34 3.53  13 3.54
                            35 3.62  30 3.63
  32  0.445  0.445  0.317-  50 2.65  51 2.70  47 2.75  33 3.46  31 3.46  35 3.52  29 3.52  14 3.54
                            36 3.62  28 3.62
  33  0.444  0.777  0.317-  51 2.66  49 2.72  48 2.75  32 3.46  31 3.46  36 3.53  30 3.53  15 3.54
                            29 3.62  34 3.63
  34  0.778  0.111  0.317-  52 2.64  53 2.72  49 2.74  36 3.46  35 3.47  28 3.52  31 3.53  16 3.55
                            29 3.63  33 3.63
  35  0.777  0.444  0.317-  53 2.66  54 2.71  50 2.74  36 3.45  34 3.47  32 3.52  29 3.53  17 3.55
                            31 3.62  30 3.62
  36  0.778  0.777  0.317-  54 2.65  52 2.71  51 2.74  35 3.45  34 3.46  30 3.51  33 3.53  18 3.53
                            32 3.62  28 3.63
  37  0.000  0.000  0.622-  25 2.66   7 2.67   9 2.70  27 2.71   1 2.73  19 2.75  39 3.46  38 3.46

  38  1.000  0.333  0.622-  26 2.65   8 2.67   7 2.70  25 2.71   2 2.74  20 2.75  37 3.46  39 3.46

  39  1.000  0.667  0.622-  27 2.65   9 2.67   8 2.70  26 2.71   3 2.73  21 2.74  37 3.46  38 3.46

  40  0.333  0.999  0.622-  19 2.66   1 2.68  21 2.71   3 2.71   4 2.73  22 2.75  42 3.46  41 3.46

  41  0.333  0.333  0.622-  20 2.66   2 2.67   1 2.70  19 2.70   5 2.73  23 2.74  42 3.46  40 3.46

  42  0.334  0.667  0.622-  21 2.65   3 2.68   2 2.71  20 2.71   6 2.73  24 2.73  40 3.46  41 3.46

  43  0.667  0.999  0.622-  22 2.66   4 2.68   6 2.70  24 2.71   7 2.73  25 2.74  45 3.45  44 3.47

  44  0.667  0.334  0.622-  23 2.66   5 2.67   4 2.72  22 2.72   8 2.73  26 2.73  45 3.46  43 3.47

  45  0.666  0.666  0.623-  24 2.66   6 2.67   5 2.70  23 2.72   9 2.74  27 2.75  43 3.45  44 3.46

  46  0.221  1.000  0.378-  28 2.65  10 2.67  12 2.70  30 2.71  13 2.74  31 2.75  47 3.46  48 3.46

  47  0.222  0.333  0.378-  29 2.66  11 2.67  10 2.70  28 2.70  14 2.73  32 2.75  46 3.46  48 3.47

  48  0.221  0.666  0.378-  30 2.66  12 2.66  11 2.70  29 2.71  15 2.73  33 2.75  46 3.46  47 3.47

  49  0.557  0.000  0.378-  31 2.66  13 2.68  15 2.71  33 2.72  16 2.72  34 2.74  50 3.47  51 3.47

  50  0.556  0.334  0.378-  32 2.65  14 2.67  13 2.71  31 2.72  17 2.73  35 2.74  51 3.45  49 3.47

  51  0.556  0.666  0.378-  33 2.66  15 2.68  14 2.70  32 2.70  18 2.72  36 2.74  50 3.45  49 3.47

  52  0.888  0.000  0.378-  34 2.64  16 2.67  18 2.71  36 2.71  10 2.74  28 2.75  53 3.46  54 3.47

  53  0.889  0.333  0.378-  35 2.66  17 2.67  16 2.71  34 2.72  11 2.73  29 2.75  52 3.46  54 3.46

  54  0.889  0.667  0.377-  36 2.65  18 2.68  17 2.71  35 2.71  30 2.73  12 2.74  53 3.46  52 3.47

 

IMPORTANT INFORMATION: All symmetrisations will be switched off!
NOSYMM: (Re-)initialisation of all symmetry stuff for point group C_1.


----------------------------------------------------------------------------------------

                                     Primitive cell                                     

  volume of cell :    2853.5883

  direct lattice vectors                    reciprocal lattice vectors
    10.575990690  0.000000000  0.000000000     0.094553790  0.049210741  0.000507214
    -4.792684990  9.208691350  0.000000000     0.000000000  0.108593063 -0.000290142
    -0.197919387  0.078285390 29.300318776     0.000000000  0.000000000  0.034129322

  length of vectors
    10.575990690 10.381224677 29.301091807     0.106594435  0.108593451  0.034129322

  position of ions in fractional coordinates (direct lattice)
     0.221848853  0.111038829  0.682716464
     0.222758648  0.444726546  0.682852472
     0.221965347  0.777156776  0.682974194
     0.555150727  0.110261590  0.682796229
     0.555587746  0.444451413  0.682774034
     0.555567827  0.777835353  0.682747777
     0.888974455  0.111291276  0.682746070
     0.888888735  0.444440125  0.682677481
     0.889555904  0.778831364  0.682771874
     0.110987508  0.111056691  0.438079756
     0.111520592  0.444355589  0.438043837
     0.111894089  0.777862445  0.437999688
     0.444493993  0.111071350  0.438097643
     0.444413961  0.444568385  0.438169811
     0.443789987  0.777598021  0.438149982
     0.777625686  0.110838010  0.438221053
     0.777973639  0.444674578  0.438065935
     0.777251935  0.777583473  0.438003731
     0.223086207  0.111834128  0.562024106
     0.222564559  0.444301867  0.561806826
     0.221887172  0.777401469  0.562108814
     0.555690894  0.110756398  0.561858844
     0.554794487  0.444311452  0.561709118
     0.555204489  0.777675175  0.562011021
     0.888879174  0.111078509  0.561884949
     0.888547523  0.443941009  0.562174022
     0.888886987  0.777759400  0.561891083
     0.111146402  0.111571255  0.317310342
     0.111351047  0.444472122  0.317242656
     0.110112843  0.777412447  0.317102136
     0.444382224  0.111308392  0.317209918
     0.444564344  0.444603004  0.317256747
     0.443994736  0.777372857  0.317229374
     0.778133420  0.110901212  0.317222004
     0.777147668  0.444244293  0.317050986
     0.777625736  0.776989449  0.317366688
     0.000062987  0.000083373  0.622343730
     0.999636782  0.333165820  0.622312302
     0.999941454  0.666898694  0.622406222
     0.333232357  0.999462711  0.622383206
     0.333254701  0.333151584  0.622412528
     0.333845983  0.666738455  0.622224280
     0.667001890  0.999477477  0.622280578
     0.666973753  0.333750577  0.622273301
     0.665965853  0.666340486  0.622529886
     0.221273617  0.999635924  0.377510112
     0.221618703  0.332644161  0.377810519
     0.221415711  0.666341570  0.377798102
     0.556516556  0.000357874  0.377770084
     0.555717325  0.333838645  0.377775964
     0.555502072  0.665892984  0.377682647
     0.888072546  0.000178563  0.377583069
     0.888623431  0.333345366  0.377840541
     0.889252464  0.666822801  0.377447859

  ion indices of the primitive-cell ions
   primitive index   ion index
                 1           1
                 2           2
                 3           3
                 4           4
                 5           5
                 6           6
                 7           7
                 8           8
                 9           9
                10          10
                11          11
                12          12
                13          13
                14          14
                15          15
                16          16
                17          17
                18          18
                19          19
                20          20
                21          21
                22          22
                23          23
                24          24
                25          25
                26          26
                27          27
                28          28
                29          29
                30          30
                31          31
                32          32
                33          33
                34          34
                35          35
                36          36
                37          37
                38          38
                39          39
                40          40
                41          41
                42          42
                43          43
                44          44
                45          45
                46          46
                47          47
                48          48
                49          49
                50          50
                51          51
                52          52
                53          53
                54          54

----------------------------------------------------------------------------------------

 
 

Automatic generation of k-mesh.
 generate k-points for:    3    3    1
Space group operators:
 irot       det(A)        alpha          n_x          n_y          n_z        tau_x        tau_y        tau_z
    1     1.000000     0.000000     1.000000     0.000000     0.000000     0.000000     0.000000     0.000000
 
 Subroutine IBZKPT returns following result:
 ===========================================
 
 Found      5 irreducible k-points:
 
 Following reciprocal coordinates:
            Coordinates               Weight
  0.000000  0.000000  0.000000      1.000000
  0.333333  0.000000 -0.000000      2.000000
  0.000000  0.333333 -0.000000      2.000000
  0.333333  0.333333  0.000000      2.000000
 -0.333333  0.333333  0.000000      2.000000
 
 Following cartesian coordinates:
            Coordinates               Weight
  0.000000  0.000000  0.000000      1.000000
  0.031518  0.016404  0.000169      2.000000
  0.000000  0.036198 -0.000097      2.000000
  0.031518  0.052601  0.000072      2.000000
 -0.031518  0.019794 -0.000266      2.000000
 


--------------------------------------------------------------------------------------------------------




 Dimension of arrays:
   k-points           NKPTS =      5   k-points in BZ     NKDIM =      5   number of bands    NBANDS=    200
   number of dos      NEDOS =    301   number of ions     NIONS =     54
   non local maximal  LDIM  =      6   non local SUM 2l+1 LMDIM =     18
   total plane-waves  NPLWV = ******
   max r-space proj   IRMAX =      1   max aug-charges    IRDMAX=  34064
   dimension x,y,z NGX =    84 NGY =   80 NGZ =  224
   dimension x,y,z NGXF=   168 NGYF=  160 NGZF=  448
   support grid    NGXF=   168 NGYF=  160 NGZF=  448
   ions per type =              36  18
   NGX,Y,Z   is equivalent  to a cutoff of  13.20, 12.81, 12.71 a.u.
   NGXF,Y,Z  is equivalent  to a cutoff of  26.41, 25.62, 25.42 a.u.

 SYSTEM =  dpgen_md                                
 POSCAR =  Te Mo                                   

 Startparameter for this run:
   NWRITE =      2    write-flag & timer
   PREC   = a         normal or accurate (medium, high low for compatibility)
   ISTART =      0    job   : 0-new  1-cont  2-samecut
   ICHARG =      2    charge: 1-file 2-atom 10-const
   ISPIN  =      1    spin polarized calculation?
   LNONCOLLINEAR =      F non collinear calculations
   LSORBIT =      F    spin-orbit coupling
   INIWAV =      1    electr: 0-lowe 1-rand  2-diag
   LASPH  =      F    aspherical Exc in radial PAW
   METAGGA=      F    non-selfconsistent MetaGGA calc.

 Electronic Relaxation 1
   ENCUT  =  550.0 eV  40.42 Ry    6.36 a.u.  20.22 19.85 56.03*2*pi/ulx,y,z
   ENINI  =  550.0     initial cutoff
   ENAUG  =  368.8 eV  augmentation charge cutoff
   NELM   =    100;   NELMIN=  6; NELMDL= -5     # of ELM steps 
   EDIFF  = 0.1E-05   stopping-criterion for ELM
   LREAL  =      F    real-space projection
   NLSPLINE    = F    spline interpolate recip. space projectors
   LCOMPAT=      F    compatible to vasp.4.4
   GGA_COMPAT  = T    GGA compatible to vasp.4.4-vasp.4.6
   LMAXPAW     = -100 max onsite density
   LMAXMIX     =    2 max onsite mixed and CHGCAR
   VOSKOWN=      0    Vosko Wilk Nusair interpolation
   ROPT   =    0.00000   0.00000
 Ionic relaxation
   EDIFFG = 0.1E-04   stopping-criterion for IOM
   NSW    =     10    number of steps for IOM
   NBLOCK =      1;   KBLOCK =      1    inner block; outer block 
   IBRION =      0    ionic relax: 0-MD 1-quasi-New 2-CG
   NFREE  =      0    steps in history (QN), initial steepest desc. (CG)
   ISIF   =      2    stress and relaxation
   IWAVPR =     11    prediction:  0-non 1-charg 2-wave 3-comb
   ISYM   =      0    0-nonsym 1-usesym 2-fastsym
   LCORR  =      T    Harris-Foulkes like correction to forces

   POTIM  = 2.0000    time-step for ionic-motion
   TEIN   =  100.0    initial temperature
   TEBEG  =  100.0;   TEEND  = 100.0 temperature during run
   SMASS  =   0.04    Nose mass-parameter (am)
   estimated Nose-frequenzy (Omega)   =  0.79E+14 period in steps = 0.40E+02 mass=   0.327E-28a.u.
   SCALEE = 1.0000    scale energy and forces
   NPACO  =    256;   APACO  = 16.0  distance and # of slots for P.C.
   PSTRESS=    0.0 pullay stress

  Mass of Ions in am
   POMASS = 127.60 95.94
  Ionic Valenz
   ZVAL   =   6.00  6.00
  Atomic Wigner-Seitz radii
   RWIGS  =  -1.00 -1.00
  virtual crystal weights 
   VCA    =   1.00  1.00
   NELECT =     324.0000    total number of electrons
   NUPDOWN=      -1.0000    fix difference up-down

 DOS related values:
   EMIN   =  10.00;   EMAX   =-10.00  energy-range for DOS
   EFERMI =   0.00
   ISMEAR =     0;   SIGMA  =   0.10  broadening in eV -4-tet -1-fermi 0-gaus

 Electronic relaxation 2 (details)
   IALGO  =     68    algorithm
   LDIAG  =      T    sub-space diagonalisation (order eigenvalues)
   LSUBROT=      F    optimize rotation matrix (better conditioning)
   TURBO    =      0    0=normal 1=particle mesh
   IRESTART =      0    0=no restart 2=restart with 2 vectors
   NREBOOT  =      0    no. of reboots
   NMIN     =      0    reboot dimension
   EREF     =   0.00    reference energy to select bands
   IMIX   =      4    mixing-type and parameters
     AMIX     =   0.40;   BMIX     =  1.00
     AMIX_MAG =   1.60;   BMIX_MAG =  1.00
     AMIN     =   0.10
     WC   =   100.;   INIMIX=   1;  MIXPRE=   1;  MAXMIX= -45

 Intra band minimization:
   WEIMIN = 0.0010     energy-eigenvalue tresh-hold
   EBREAK =  0.13E-08  absolut break condition
   DEPER  =   0.30     relativ break condition  

   TIME   =   0.40     timestep for ELM

  volume/ion in A,a.u.               =      52.84       356.61
  Fermi-wavevector in a.u.,A,eV,Ry     =   0.792731  1.498045  8.550215  0.628423
  Thomas-Fermi vector in A             =   1.898528
 
 Write flags
   LWAVE        =      F    write WAVECAR
   LDOWNSAMPLE  =      F    k-point downsampling of WAVECAR
   LCHARG       =      F    write CHGCAR
   LVTOT        =      F    write LOCPOT, total local potential
   LVHAR        =      F    write LOCPOT, Hartree potential only
   LELF         =      F    write electronic localiz. function (ELF)
   LORBIT       =      0    0 simple, 1 ext, 2 COOP (PROOUT), +10 PAW based schemes


 Dipole corrections
   LMONO  =      F    monopole corrections only (constant potential shift)
   LDIPOL =      F    correct potential (dipole corrections)
   IDIPOL =      0    1-x, 2-y, 3-z, 4-all directions 
   EPSILON=  1.0000000 bulk dielectric constant

 Exchange correlation treatment:
   GGA     =    --    GGA type
   LEXCH   =     8    internal setting for exchange type
   VOSKOWN=      0    Vosko Wilk Nusair interpolation
   LHFCALC =     F    Hartree Fock is set to
   LHFONE  =     F    Hartree Fock one center treatment
   AEXX    =    0.0000 exact exchange contribution

 Linear response parameters
   LEPSILON=     F    determine dielectric tensor
   LRPA    =     F    only Hartree local field effects (RPA)
   LNABLA  =     F    use nabla operator in PAW spheres
   LVEL    =     F    velocity operator in full k-point grid
   LINTERFAST=   F  fast interpolation
   KINTER  =     0    interpolate to denser k-point grid
   CSHIFT  =0.1000    complex shift for real part using Kramers Kronig
   OMEGAMAX=  -1.0    maximum frequency
   DEG_THRESHOLD= 0.2000000E-02 threshold for treating states as degnerate
   RTIME   =   -0.100 relaxation time in fs
  (WPLASMAI=    0.000 imaginary part of plasma frequency in eV, 0.658/RTIME)
   DFIELD  = 0.0000000 0.0000000 0.0000000 field for delta impulse in time
 
 Orbital magnetization related:
   ORBITALMAG=     F  switch on orbital magnetization
   LCHIMAG   =     F  perturbation theory with respect to B field
   DQ        =  0.001000  dq finite difference perturbation B field
   LLRAUG    =     F  two centre corrections for induced B field



--------------------------------------------------------------------------------------------------------


 molecular dynamics for ions
   using nose mass (canonical ensemble)
 charge density and potential will be updated during run
 non-spin polarized calculation
 RMM-DIIS sequential band-by-band and
  variant of blocked Davidson during initial phase
 perform sub-space diagonalisation
    before iterative eigenvector-optimisation
 modified Broyden-mixing scheme, WC =      100.0
 initial mixing is a Kerker type mixing with AMIX =  0.4000 and BMIX =      1.0000
 Hartree-type preconditioning will be used
 using additional bands           38
 reciprocal scheme for non local part
 use partial core corrections
 calculate Harris-corrections to forces 
   (improved forces if not selfconsistent)
 use gradient corrections 
 use of overlap-Matrix (Vanderbilt PP)
 Gauss-broadening in eV      SIGMA  =   0.10


--------------------------------------------------------------------------------------------------------


  energy-cutoff  :      550.00
  volume of cell :     2853.59
      direct lattice vectors                 reciprocal lattice vectors
    10.575990690  0.000000000  0.000000000     0.094553790  0.049210741  0.000507214
    -4.792684990  9.208691350  0.000000000     0.000000000  0.108593063 -0.000290142
    -0.197919387  0.078285390 29.300318776     0.000000000  0.000000000  0.034129322

  length of vectors
    10.575990690 10.381224677 29.301091807     0.106594435  0.108593451  0.034129322


 
 k-points in units of 2pi/SCALE and weight: read from INCAR                         
   0.00000000  0.00000000  0.00000000       0.111
   0.03151793  0.01640358  0.00016907       0.222
   0.00000000  0.03619769 -0.00009671       0.222
   0.03151793  0.05260127  0.00007236       0.222
  -0.03151793  0.01979411 -0.00026579       0.222
 
 k-points in reciprocal lattice and weights: read from INCAR                         
   0.00000000  0.00000000  0.00000000       0.111
   0.33333333  0.00000000 -0.00000000       0.222
   0.00000000  0.33333333 -0.00000000       0.222
   0.33333333  0.33333333  0.00000000       0.222
  -0.33333333  0.33333333  0.00000000       0.222
 
 position of ions in fractional coordinates (direct lattice) 
   0.22184885  0.11103883  0.68271646
   0.22275865  0.44472655  0.68285247
   0.22196535  0.77715678  0.68297419
   0.55515073  0.11026159  0.68279623
   0.55558775  0.44445141  0.68277403
   0.55556783  0.77783535  0.68274778
   0.88897445  0.11129128  0.68274607
   0.88888873  0.44444013  0.68267748
   0.88955590  0.77883136  0.68277187
   0.11098751  0.11105669  0.43807976
   0.11152059  0.44435559  0.43804384
   0.11189409  0.77786244  0.43799969
   0.44449399  0.11107135  0.43809764
   0.44441396  0.44456838  0.43816981
   0.44378999  0.77759802  0.43814998
   0.77762569  0.11083801  0.43822105
   0.77797364  0.44467458  0.43806594
   0.77725194  0.77758347  0.43800373
   0.22308621  0.11183413  0.56202411
   0.22256456  0.44430187  0.56180683
   0.22188717  0.77740147  0.56210881
   0.55569089  0.11075640  0.56185884
   0.55479449  0.44431145  0.56170912
   0.55520449  0.77767518  0.56201102
   0.88887917  0.11107851  0.56188495
   0.88854752  0.44394101  0.56217402
   0.88888699  0.77775940  0.56189108
   0.11114640  0.11157125  0.31731034
   0.11135105  0.44447212  0.31724266
   0.11011284  0.77741245  0.31710214
   0.44438222  0.11130839  0.31720992
   0.44456434  0.44460300  0.31725675
   0.44399474  0.77737286  0.31722937
   0.77813342  0.11090121  0.31722200
   0.77714767  0.44424429  0.31705099
   0.77762574  0.77698945  0.31736669
   0.00006299  0.00008337  0.62234373
   0.99963678  0.33316582  0.62231230
   0.99994145  0.66689869  0.62240622
   0.33323236  0.99946271  0.62238321
   0.33325470  0.33315158  0.62241253
   0.33384598  0.66673846  0.62222428
   0.66700189  0.99947748  0.62228058
   0.66697375  0.33375058  0.62227330
   0.66596585  0.66634049  0.62252989
   0.22127362  0.99963592  0.37751011
   0.22161870  0.33264416  0.37781052
   0.22141571  0.66634157  0.37779810
   0.55651656  0.00035787  0.37777008
   0.55571732  0.33383865  0.37777596
   0.55550207  0.66589298  0.37768265
   0.88807255  0.00017856  0.37758307
   0.88862343  0.33334537  0.37784054
   0.88925246  0.66682280  0.37744786
 
 position of ions in cartesian coordinates  (Angst):
   1.67897446  1.07596903 20.00381004
   0.08930940  4.14880687 20.00779512
  -1.51233800  7.21006378 20.01136159
   5.20768124  1.06881792 20.00614718
   3.61064099  4.14626712 20.00549686
   2.01263133  7.21629486 20.00472750
   8.73327285  1.07829605 20.00467751
   7.13570236  4.14615561 20.00266783
   5.54010778  7.22546871 20.00543356
   0.55483864  1.05698204 12.83587650
  -1.03691298  4.12622590 12.83482405
  -2.63134745  7.19738414 12.83353049
   4.08192632  1.05711843 12.83640059
   2.48271939  4.12819533 12.83851513
   0.88001803  7.19496091 12.83793414
   7.60621790  1.05497933 12.84001656
   6.00995505  4.12916510 12.83547154
   4.40680716  7.19481550 12.83364895
   1.71213643  1.07384424 16.46748546
   0.11324935  4.13542002 16.46111909
  -1.49041592  7.20285509 16.46996743
   5.23495844  1.06390683 16.46264322
   3.62688337  4.13550064 16.45825622
   2.03345249  7.20536791 16.46710207
   8.75720564  1.06687509 16.46340811
   7.15833578  4.13212574 16.47187804
   5.56209556  7.20613413 16.46358786
   0.57795557  1.05226601  9.29729416
  -1.01535570  4.11784205  9.29531095
  -2.62410123  7.18377574  9.29119367
   4.10353421  1.04983753  9.29435172
   2.50807496  4.11904841  9.29572383
   0.90719512  7.18342113  9.29492178
   7.63523284  1.04608888  9.29470585
   6.02723301  4.11572904  9.28969497
   4.43748385  7.17990119  9.29894513
  -0.12290732  0.04948818 18.23486968
   8.85222280  3.11673917 18.23394884
   7.25594990  6.18998954 18.23670072
  -1.38902933  9.25246713 18.23602633
   1.80462051  3.11661592 18.23688548
   0.21213437  6.18849972 18.23136977
   2.14086368  9.25259508 18.23301929
   5.33118687  3.12212096 18.23280609
   3.72647789  6.18485886 18.24032412
  -2.52546895  9.23489221 11.06116663
   0.67480263  3.09279445 11.06996865
  -0.92664831  6.16570992 11.06960481
   5.80923071  0.03286943 11.06878390
   4.20250860  3.10379138 11.06895618
   2.60881871  6.16157000 11.06622194
   9.31666017  0.03120357 11.06330427
   7.72567184  3.09925398 11.07084829
   6.13414990  6.17011402 11.05934260
 


--------------------------------------------------------------------------------------------------------


 k-point   1 :   0.0000 0.0000 0.0000  plane waves:   83583
 k-point   2 :   0.3333 0.0000-0.0000  plane waves:   83554
 k-point   3 :   0.0000 0.3333-0.0000  plane waves:   83586
 k-point   4 :   0.3333 0.3333 0.0000  plane waves:   83579
 k-point   5 :  -0.3333 0.3333 0.0000  plane waves:   83573

 maximum and minimum number of plane-waves per node :     83586    83554

 maximum number of plane-waves:     83586
 maximum index in each direction: 
   IXMAX=   20   IYMAX=   19   IZMAX=   56
   IXMIN=  -20   IYMIN=  -20   IZMIN=  -56


 serial   3D FFT for wavefunctions
 parallel 3D FFT for charge:
    minimum data exchange during FFTs selected (reduces bandwidth)


 total amount of memory used by VASP MPI-rank0   355387. kBytes
=======================================================================

   base      :      30000. kBytes
   nonl-proj :     192614. kBytes
   fftplans  :      17721. kBytes
   grid      :      80453. kBytes
   one-center:        839. kBytes
   wavefun   :      33760. kBytes
 
     INWAV:  cpu time    0.0001: real time    0.0001
 Broyden mixing: mesh for mixing (old mesh)
   NGX = 41   NGY = 39   NGZ =113
  (NGX  =168   NGY  =160   NGZ  =448)
  gives a total of 180687 points

 initial charge density was supplied:
 charge density of overlapping atoms calculated
 number of electron     324.0000000 magnetization 
 keeping initial charge density in first step


--------------------------------------------------------------------------------------------------------


 Maximum index for augmentation-charges         2090 (set IRDMAX)


--------------------------------------------------------------------------------------------------------


 First call to EWALD:  gamma=   0.125
 Maximum number of real-space cells 4x 4x 2
 Maximum number of reciprocal cells 2x 2x 5

    FEWALD:  cpu time    0.0022: real time    0.0022


--------------------------------------- Iteration      1(   1)  ---------------------------------------


    POTLOK:  cpu time    0.2826: real time    0.2838
    SETDIJ:  cpu time    0.0108: real time    0.0109
     EDDAV:  cpu time   46.7011: real time   46.8105
       DOS:  cpu time    0.0010: real time    0.0011
    --------------------------------------------
      LOOP:  cpu time   46.9956: real time   47.1063

 eigenvalue-minimisations  :  2000
 total energy-change (2. order) : 0.2119882E+04  (-0.1157687E+05)
 number of electron     324.0000000 magnetization 
 augmentation part      324.0000000 magnetization 

 Free energy of the ion-electron system (eV)
  ---------------------------------------------------
  alpha Z        PSCENC =       251.49604385
  Ewald energy   TEWEN  =     57619.16459611
  -Hartree energ DENC   =    -69319.19799445
  -exchange      EXHF   =         0.00000000
  -V(xc)+E(xc)   XCENC  =     -2099.05470267
  PAW double counting   =      7476.04436201    -4809.59211051
  entropy T*S    EENTRO =        -0.13309514
  eigenvalues    EBANDS =      1048.07274562
  atomic energy  EATOM  =     11953.08265402
  Solvation  Ediel_sol  =         0.00000000
  ---------------------------------------------------
  free energy    TOTEN  =      2119.88249885 eV

  energy without entropy =     2120.01559398  energy(sigma->0) =     2119.94904641


--------------------------------------------------------------------------------------------------------




--------------------------------------- Iteration      1(   2)  ---------------------------------------


     EDDAV:  cpu time   65.7558: real time   65.8984
       DOS:  cpu time    0.0006: real time    0.0006
    --------------------------------------------
      LOOP:  cpu time   65.7564: real time   65.8990

 eigenvalue-minimisations  :  3040
 total energy-change (2. order) :-0.2215035E+04  (-0.2133990E+04)
 number of electron     324.0000000 magnetization 
 augmentation part      324.0000000 magnetization 

 Free energy of the ion-electron system (eV)
  ---------------------------------------------------
  alpha Z        PSCENC =       251.49604385
  Ewald energy   TEWEN  =     57619.16459611
  -Hartree energ DENC   =    -69319.19799445
  -exchange      EXHF   =         0.00000000
  -V(xc)+E(xc)   XCENC  =     -2099.05470267
  PAW double counting   =      7476.04436201    -4809.59211051
  entropy T*S    EENTRO =        -0.01338430
  eigenvalues    EBANDS =     -1167.08186496
  atomic energy  EATOM  =     11953.08265402
  Solvation  Ediel_sol  =         0.00000000
  ---------------------------------------------------
  free energy    TOTEN  =       -95.15240089 eV

  energy without entropy =      -95.13901659  energy(sigma->0) =      -95.14570874


--------------------------------------------------------------------------------------------------------




--------------------------------------- Iteration      1(   3)  ---------------------------------------


     EDDAV:  cpu time   54.9935: real time   55.1171
       DOS:  cpu time    0.0004: real time    0.0004
    --------------------------------------------
      LOOP:  cpu time   54.9939: real time   55.1174

 eigenvalue-minimisations  :  2440
 total energy-change (2. order) :-0.2268896E+03  (-0.2230949E+03)
 number of electron     324.0000000 magnetization 
 augmentation part      324.0000000 magnetization 

 Free energy of the ion-electron system (eV)
  ---------------------------------------------------
  alpha Z        PSCENC =       251.49604385
  Ewald energy   TEWEN  =     57619.16459611
  -Hartree energ DENC   =    -69319.19799445
  -exchange      EXHF   =         0.00000000
  -V(xc)+E(xc)   XCENC  =     -2099.05470267
  PAW double counting   =      7476.04436201    -4809.59211051
  entropy T*S    EENTRO =        -0.00000000
  eigenvalues    EBANDS =     -1393.98484641
  atomic energy  EATOM  =     11953.08265402
  Solvation  Ediel_sol  =         0.00000000
  ---------------------------------------------------
  free energy    TOTEN  =      -322.04199805 eV

  energy without entropy =     -322.04199805  energy(sigma->0) =     -322.04199805


--------------------------------------------------------------------------------------------------------




--------------------------------------- Iteration      1(   4)  ---------------------------------------


     EDDAV:  cpu time   67.4076: real time   67.5633
       DOS:  cpu time    0.0004: real time    0.0004
    --------------------------------------------
      LOOP:  cpu time   67.4080: real time   67.5637

 eigenvalue-minimisations  :  3120
 total energy-change (2. order) :-0.1247864E+02  (-0.1239626E+02)
 number of electron     324.0000000 magnetization 
 augmentation part      324.0000000 magnetization 

 Free energy of the ion-electron system (eV)
  ---------------------------------------------------
  alpha Z        PSCENC =       251.49604385
  Ewald energy   TEWEN  =     57619.16459611
  -Hartree energ DENC   =    -69319.19799445
  -exchange      EXHF   =         0.00000000
  -V(xc)+E(xc)   XCENC  =     -2099.05470267
  PAW double counting   =      7476.04436201    -4809.59211051
  entropy T*S    EENTRO =        -0.00000000
  eigenvalues    EBANDS =     -1406.46348751
  atomic energy  EATOM  =     11953.08265402
  Solvation  Ediel_sol  =         0.00000000
  ---------------------------------------------------
  free energy    TOTEN  =      -334.52063915 eV

  energy without entropy =     -334.52063915  energy(sigma->0) =     -334.52063915


--------------------------------------------------------------------------------------------------------




--------------------------------------- Iteration      1(   5)  ---------------------------------------


     EDDAV:  cpu time   62.2166: real time   62.3541
       DOS:  cpu time    0.0004: real time    0.0004
    CHARGE:  cpu time    1.0774: real time    1.0787
    MIXING:  cpu time    0.0085: real time    0.0087
    --------------------------------------------
      LOOP:  cpu time   63.3028: real time   63.4419

 eigenvalue-minimisations  :  2840
 total energy-change (2. order) :-0.3122014E+00  (-0.3117413E+00)
 number of electron     323.9999993 magnetization 
 augmentation part      -25.3600117 magnetization 

 Broyden mixing:
  rms(total) = 0.18783E+01    rms(broyden)= 0.18783E+01
  rms(prec ) = 0.19902E+01
  weight for this iteration     100.00

 Free energy of the ion-electron system (eV)
  ---------------------------------------------------
  alpha Z        PSCENC =       251.49604385
  Ewald energy   TEWEN  =     57619.16459611
  -Hartree energ DENC   =    -69319.19799445
  -exchange      EXHF   =         0.00000000
  -V(xc)+E(xc)   XCENC  =     -2099.05470267
  PAW double counting   =      7476.04436201    -4809.59211051
  entropy T*S    EENTRO =        -0.00000000
  eigenvalues    EBANDS =     -1406.77568890
  atomic energy  EATOM  =     11953.08265402
  Solvation  Ediel_sol  =         0.00000000
  ---------------------------------------------------
  free energy    TOTEN  =      -334.83284054 eV

  energy without entropy =     -334.83284054  energy(sigma->0) =     -334.83284054


--------------------------------------------------------------------------------------------------------




--------------------------------------- Iteration      1(   6)  ---------------------------------------


    POTLOK:  cpu time    0.2413: real time    0.2416
    SETDIJ:  cpu time    0.0105: real time    0.0120
    EDDIAG:  cpu time    2.3434: real time    2.3499
  RMM-DIIS:  cpu time   40.4554: real time   40.5572
    ORTHCH:  cpu time    0.2014: real time    0.2018
       DOS:  cpu time    0.0005: real time    0.0005
    CHARGE:  cpu time    1.0794: real time    1.0804
    MIXING:  cpu time    0.0065: real time    0.0065
    --------------------------------------------
      LOOP:  cpu time   44.3385: real time   44.4499

 eigenvalue-minimisations  :  2137
 total energy-change (2. order) : 0.8562049E+01  (-0.4873957E+01)
 number of electron     323.9999993 magnetization 
 augmentation part      -20.1011769 magnetization 

 Broyden mixing:
  rms(total) = 0.70347E+00    rms(broyden)= 0.70347E+00
  rms(prec ) = 0.80740E+00
  weight for this iteration     100.00

 eigenvalues of (default mixing * dielectric matrix)
  average eigenvalue GAMMA=   1.0783
  1.0783

 Free energy of the ion-electron system (eV)
  ---------------------------------------------------
  alpha Z        PSCENC =       251.49604385
  Ewald energy   TEWEN  =     57619.16459611
  -Hartree energ DENC   =    -69300.28617470
  -exchange      EXHF   =         0.00000000
  -V(xc)+E(xc)   XCENC  =     -2092.48195566
  PAW double counting   =      7725.12511392    -5070.57050707
  entropy T*S    EENTRO =        -0.00000069
  eigenvalues    EBANDS =     -1411.80056172
  atomic energy  EATOM  =     11953.08265402
  Solvation  Ediel_sol  =         0.00000000
  ---------------------------------------------------
  free energy    TOTEN  =      -326.27079195 eV

  energy without entropy =     -326.27079126  energy(sigma->0) =     -326.27079161


--------------------------------------------------------------------------------------------------------




--------------------------------------- Iteration      1(   7)  ---------------------------------------


    POTLOK:  cpu time    0.2390: real time    0.2393
    SETDIJ:  cpu time    0.0104: real time    0.0104
    EDDIAG:  cpu time    2.3497: real time    2.3554
  RMM-DIIS:  cpu time   37.8102: real time   37.8932
    ORTHCH:  cpu time    0.2071: real time    0.2073
       DOS:  cpu time    0.0005: real time    0.0005
    CHARGE:  cpu time    1.0781: real time    1.0792
    MIXING:  cpu time    0.0082: real time    0.0083
    --------------------------------------------
      LOOP:  cpu time   41.7032: real time   41.7936

 eigenvalue-minimisations  :  2010
 total energy-change (2. order) : 0.2967926E+01  (-0.9504416E+00)
 number of electron     323.9999993 magnetization 
 augmentation part      -21.6820013 magnetization 

 Broyden mixing:
  rms(total) = 0.46035E+00    rms(broyden)= 0.46035E+00
  rms(prec ) = 0.48832E+00
  weight for this iteration     100.00

 eigenvalues of (default mixing * dielectric matrix)
  average eigenvalue GAMMA=   1.5040
  0.7540  2.2541

 Free energy of the ion-electron system (eV)
  ---------------------------------------------------
  alpha Z        PSCENC =       251.49604385
  Ewald energy   TEWEN  =     57619.16459611
  -Hartree energ DENC   =    -69384.24176856
  -exchange      EXHF   =         0.00000000
  -V(xc)+E(xc)   XCENC  =     -2090.87188518
  PAW double counting   =      8040.58286394    -5391.60061284
  entropy T*S    EENTRO =        -0.00000000
  eigenvalues    EBANDS =     -1320.91475715
  atomic energy  EATOM  =     11953.08265402
  Solvation  Ediel_sol  =         0.00000000
  ---------------------------------------------------
  free energy    TOTEN  =      -323.30286580 eV

  energy without entropy =     -323.30286580  energy(sigma->0) =     -323.30286580


--------------------------------------------------------------------------------------------------------




--------------------------------------- Iteration      1(   8)  ---------------------------------------


    POTLOK:  cpu time    0.2410: real time    0.2415
    SETDIJ:  cpu time    0.0106: real time    0.0106
    EDDIAG:  cpu time    2.3548: real time    2.3571
  RMM-DIIS:  cpu time   38.0186: real time   38.0928
    ORTHCH:  cpu time    0.2054: real time    0.2056
       DOS:  cpu time    0.0004: real time    0.0004
    CHARGE:  cpu time    1.0761: real time    1.0773
    MIXING:  cpu time    0.0065: real time    0.0065
    --------------------------------------------
      LOOP:  cpu time   41.9133: real time   41.9918

 eigenvalue-minimisations  :  2024
 total energy-change (2. order) : 0.4237468E+00  (-0.7014785E+00)
 number of electron     323.9999993 magnetization 
 augmentation part      -21.5201341 magnetization 

 Broyden mixing:
  rms(total) = 0.12909E+00    rms(broyden)= 0.12909E+00
  rms(prec ) = 0.15069E+00
  weight for this iteration     100.00

 eigenvalues of (default mixing * dielectric matrix)
  average eigenvalue GAMMA=   1.2869
  2.1710  0.8449  0.8449

 Free energy of the ion-electron system (eV)
  ---------------------------------------------------
  alpha Z        PSCENC =       251.49604385
  Ewald energy   TEWEN  =     57619.16459611
  -Hartree energ DENC   =    -69444.97594535
  -exchange      EXHF   =         0.00000000
  -V(xc)+E(xc)   XCENC  =     -2086.84539845
  PAW double counting   =      8382.88600336    -5740.69889106
  entropy T*S    EENTRO =        -0.00000000
  eigenvalues    EBANDS =     -1256.98818153
  atomic energy  EATOM  =     11953.08265402
  Solvation  Ediel_sol  =         0.00000000
  ---------------------------------------------------
  free energy    TOTEN  =      -322.87911905 eV

  energy without entropy =     -322.87911905  energy(sigma->0) =     -322.87911905


--------------------------------------------------------------------------------------------------------




--------------------------------------- Iteration      1(   9)  ---------------------------------------


    POTLOK:  cpu time    0.2391: real time    0.2416
    SETDIJ:  cpu time    0.0105: real time    0.0105
    EDDIAG:  cpu time    2.3496: real time    2.3555
  RMM-DIIS:  cpu time   42.2064: real time   42.2971
    ORTHCH:  cpu time    0.1991: real time    0.2004
       DOS:  cpu time    0.0020: real time    0.0020
    CHARGE:  cpu time    1.0769: real time    1.0820
    MIXING:  cpu time    0.0067: real time    0.0067
    --------------------------------------------
      LOOP:  cpu time   46.0903: real time   46.1957

 eigenvalue-minimisations  :  2204
 total energy-change (2. order) :-0.1729558E-01  (-0.1203238E+00)
 number of electron     323.9999993 magnetization 
 augmentation part      -21.1346490 magnetization 

 Broyden mixing:
  rms(total) = 0.95712E-01    rms(broyden)= 0.95711E-01
  rms(prec ) = 0.10658E+00
  weight for this iteration     100.00

 eigenvalues of (default mixing * dielectric matrix)
  average eigenvalue GAMMA=   1.1767
  2.0301  1.4642  0.7601  0.4523

 Free energy of the ion-electron system (eV)
  ---------------------------------------------------
  alpha Z        PSCENC =       251.49604385
  Ewald energy   TEWEN  =     57619.16459611
  -Hartree energ DENC   =    -69440.94086061
  -exchange      EXHF   =         0.00000000
  -V(xc)+E(xc)   XCENC  =     -2086.56504666
  PAW double counting   =      8375.58974023    -5733.40688712
  entropy T*S    EENTRO =        -0.00000000
  eigenvalues    EBANDS =     -1261.31665444
  atomic energy  EATOM  =     11953.08265402
  Solvation  Ediel_sol  =         0.00000000
  ---------------------------------------------------
  free energy    TOTEN  =      -322.89641462 eV

  energy without entropy =     -322.89641462  energy(sigma->0) =     -322.89641462


--------------------------------------------------------------------------------------------------------




--------------------------------------- Iteration      1(  10)  ---------------------------------------


    POTLOK:  cpu time    0.2414: real time    0.2417
    SETDIJ:  cpu time    0.0106: real time    0.0106
    EDDIAG:  cpu time    2.3506: real time    2.3535
  RMM-DIIS:  cpu time   43.8665: real time   43.9656
    ORTHCH:  cpu time    0.2018: real time    0.2019
       DOS:  cpu time    0.0004: real time    0.0004
    CHARGE:  cpu time    1.0777: real time    1.0786
    MIXING:  cpu time    0.0067: real time    0.0068
    --------------------------------------------
      LOOP:  cpu time   47.7556: real time   47.8590

 eigenvalue-minimisations  :  2311
 total energy-change (2. order) :-0.5908927E-02  (-0.3708857E-01)
 number of electron     323.9999993 magnetization 
 augmentation part      -20.9596999 magnetization 

 Broyden mixing:
  rms(total) = 0.71080E-01    rms(broyden)= 0.71080E-01
  rms(prec ) = 0.80108E-01
  weight for this iteration     100.00

 eigenvalues of (default mixing * dielectric matrix)
  average eigenvalue GAMMA=   1.2946
  2.3911  1.8254  0.9329  0.9329  0.3907

 Free energy of the ion-electron system (eV)
  ---------------------------------------------------
  alpha Z        PSCENC =       251.49604385
  Ewald energy   TEWEN  =     57619.16459611
  -Hartree energ DENC   =    -69442.95230022
  -exchange      EXHF   =         0.00000000
  -V(xc)+E(xc)   XCENC  =     -2086.36340386
  PAW double counting   =      8386.44208022    -5744.23964119
  entropy T*S    EENTRO =        -0.00000000
  eigenvalues    EBANDS =     -1259.53235247
  atomic energy  EATOM  =     11953.08265402
  Solvation  Ediel_sol  =         0.00000000
  ---------------------------------------------------
  free energy    TOTEN  =      -322.90232355 eV

  energy without entropy =     -322.90232355  energy(sigma->0) =     -322.90232355


--------------------------------------------------------------------------------------------------------




--------------------------------------- Iteration      1(  11)  ---------------------------------------


    POTLOK:  cpu time    0.2421: real time    0.2424
    SETDIJ:  cpu time    0.0120: real time    0.0120
    EDDIAG:  cpu time    2.3639: real time    2.3666
  RMM-DIIS:  cpu time   39.8260: real time   39.9099
    ORTHCH:  cpu time    0.2063: real time    0.2065
       DOS:  cpu time    0.0005: real time    0.0005
    CHARGE:  cpu time    1.0761: real time    1.0770
    MIXING:  cpu time    0.0068: real time    0.0068
    --------------------------------------------
      LOOP:  cpu time   43.7336: real time   43.8216

 eigenvalue-minimisations  :  2117
 total energy-change (2. order) : 0.1223672E-01  (-0.1674135E-01)
 number of electron     323.9999993 magnetization 
 augmentation part      -21.2523609 magnetization 

 Broyden mixing:
  rms(total) = 0.34389E-01    rms(broyden)= 0.34388E-01
  rms(prec ) = 0.39522E-01
  weight for this iteration     100.00

 eigenvalues of (default mixing * dielectric matrix)
  average eigenvalue GAMMA=   1.2185
  2.5450  1.7040  1.2808  0.7711  0.6268  0.3834

 Free energy of the ion-electron system (eV)
  ---------------------------------------------------
  alpha Z        PSCENC =       251.49604385
  Ewald energy   TEWEN  =     57619.16459611
  -Hartree energ DENC   =    -69459.89855051
  -exchange      EXHF   =         0.00000000
  -V(xc)+E(xc)   XCENC  =     -2086.09344848
  PAW double counting   =      8435.82779368    -5793.88354888
  entropy T*S    EENTRO =        -0.00000000
  eigenvalues    EBANDS =     -1242.58562661
  atomic energy  EATOM  =     11953.08265402
  Solvation  Ediel_sol  =         0.00000000
  ---------------------------------------------------
  free energy    TOTEN  =      -322.89008683 eV

  energy without entropy =     -322.89008683  energy(sigma->0) =     -322.89008683


--------------------------------------------------------------------------------------------------------




--------------------------------------- Iteration      1(  12)  ---------------------------------------


    POTLOK:  cpu time    0.2433: real time    0.2438
    SETDIJ:  cpu time    0.0105: real time    0.0105
    EDDIAG:  cpu time    2.3397: real time    2.3422
  RMM-DIIS:  cpu time   47.0937: real time   47.1995
    ORTHCH:  cpu time    0.2051: real time    0.2054
       DOS:  cpu time    0.0004: real time    0.0004
    CHARGE:  cpu time    1.0789: real time    1.0800
    MIXING:  cpu time    0.0070: real time    0.0071
    --------------------------------------------
      LOOP:  cpu time   50.9787: real time   51.0889

 eigenvalue-minimisations  :  2467
 total energy-change (2. order) :-0.3262232E-03  (-0.3729265E-02)
 number of electron     323.9999993 magnetization 
 augmentation part      -21.2600153 magnetization 

 Broyden mixing:
  rms(total) = 0.26199E-01    rms(broyden)= 0.26199E-01
  rms(prec ) = 0.30285E-01
  weight for this iteration     100.00

 eigenvalues of (default mixing * dielectric matrix)
  average eigenvalue GAMMA=   1.2040
  2.4973  1.7517  1.7517  0.8196  0.8196  0.4135  0.3743

 Free energy of the ion-electron system (eV)
  ---------------------------------------------------
  alpha Z        PSCENC =       251.49604385
  Ewald energy   TEWEN  =     57619.16459611
  -Hartree energ DENC   =    -69463.30652582
  -exchange      EXHF   =         0.00000000
  -V(xc)+E(xc)   XCENC  =     -2085.99689745
  PAW double counting   =      8440.17962907    -5798.26472450
  entropy T*S    EENTRO =        -0.00000000
  eigenvalues    EBANDS =     -1239.24518833
  atomic energy  EATOM  =     11953.08265402
  Solvation  Ediel_sol  =         0.00000000
  ---------------------------------------------------
  free energy    TOTEN  =      -322.89041305 eV

  energy without entropy =     -322.89041305  energy(sigma->0) =     -322.89041305


--------------------------------------------------------------------------------------------------------




--------------------------------------- Iteration      1(  13)  ---------------------------------------


    POTLOK:  cpu time    0.2459: real time    0.2462
    SETDIJ:  cpu time    0.0105: real time    0.0105
    EDDIAG:  cpu time    2.3451: real time    2.3518
  RMM-DIIS:  cpu time   44.7706: real time   44.8708
    ORTHCH:  cpu time    0.1990: real time    0.1992
       DOS:  cpu time    0.0004: real time    0.0004
    CHARGE:  cpu time    1.0736: real time    1.0747
    MIXING:  cpu time    0.0074: real time    0.0074
    --------------------------------------------
      LOOP:  cpu time   48.6525: real time   48.7611

 eigenvalue-minimisations  :  2332
 total energy-change (2. order) : 0.1801461E-02  (-0.2025232E-02)
 number of electron     323.9999993 magnetization 
 augmentation part      -21.1599694 magnetization 

 Broyden mixing:
  rms(total) = 0.87396E-02    rms(broyden)= 0.87396E-02
  rms(prec ) = 0.11604E-01
  weight for this iteration     100.00

 eigenvalues of (default mixing * dielectric matrix)
  average eigenvalue GAMMA=   1.2660
  2.4032  2.4032  1.8789  1.0351  0.8076  0.8076  0.4177  0.3750

 Free energy of the ion-electron system (eV)
  ---------------------------------------------------
  alpha Z        PSCENC =       251.49604385
  Ewald energy   TEWEN  =     57619.16459611
  -Hartree energ DENC   =    -69465.16204651
  -exchange      EXHF   =         0.00000000
  -V(xc)+E(xc)   XCENC  =     -2085.92479781
  PAW double counting   =      8435.18343134    -5793.23295256
  entropy T*S    EENTRO =        -0.00000000
  eigenvalues    EBANDS =     -1237.49554004
  atomic energy  EATOM  =     11953.08265402
  Solvation  Ediel_sol  =         0.00000000
  ---------------------------------------------------
  free energy    TOTEN  =      -322.88861159 eV

  energy without entropy =     -322.88861159  energy(sigma->0) =     -322.88861159


--------------------------------------------------------------------------------------------------------




--------------------------------------- Iteration      1(  14)  ---------------------------------------


    POTLOK:  cpu time    0.2446: real time    0.2449
    SETDIJ:  cpu time    0.0121: real time    0.0122
    EDDIAG:  cpu time    2.3475: real time    2.3539
  RMM-DIIS:  cpu time   50.2232: real time   50.3226
    ORTHCH:  cpu time    0.2037: real time    0.2039
       DOS:  cpu time    0.0004: real time    0.0004
    CHARGE:  cpu time    1.0754: real time    1.0765
    MIXING:  cpu time    0.0072: real time    0.0072
    --------------------------------------------
      LOOP:  cpu time   54.1141: real time   54.2215

 eigenvalue-minimisations  :  2610
 total energy-change (2. order) :-0.1024504E-02  (-0.7091226E-03)
 number of electron     323.9999993 magnetization 
 augmentation part      -21.1393845 magnetization 

 Broyden mixing:
  rms(total) = 0.88611E-02    rms(broyden)= 0.88611E-02
  rms(prec ) = 0.11140E-01
  weight for this iteration     100.00

 eigenvalues of (default mixing * dielectric matrix)
  average eigenvalue GAMMA=   1.3049
  3.1362  2.5510  1.5382  1.5382  0.8042  0.8042  0.5820  0.4160  0.3745

 Free energy of the ion-electron system (eV)
  ---------------------------------------------------
  alpha Z        PSCENC =       251.49604385
  Ewald energy   TEWEN  =     57619.16459611
  -Hartree energ DENC   =    -69470.94324048
  -exchange      EXHF   =         0.00000000
  -V(xc)+E(xc)   XCENC  =     -2085.89058768
  PAW double counting   =      8432.96093874    -5790.94101030
  entropy T*S    EENTRO =        -0.00000000
  eigenvalues    EBANDS =     -1231.81903035
  atomic energy  EATOM  =     11953.08265402
  Solvation  Ediel_sol  =         0.00000000
  ---------------------------------------------------
  free energy    TOTEN  =      -322.88963610 eV

  energy without entropy =     -322.88963610  energy(sigma->0) =     -322.88963610


--------------------------------------------------------------------------------------------------------




--------------------------------------- Iteration      1(  15)  ---------------------------------------


    POTLOK:  cpu time    0.2473: real time    0.2476
    SETDIJ:  cpu time    0.0107: real time    0.0107
    EDDIAG:  cpu time    2.3426: real time    2.3450
  RMM-DIIS:  cpu time   42.0629: real time   42.1452
    ORTHCH:  cpu time    0.2040: real time    0.2042
       DOS:  cpu time    0.0004: real time    0.0004
    CHARGE:  cpu time    1.0774: real time    1.0784
    MIXING:  cpu time    0.0073: real time    0.0073
    --------------------------------------------
      LOOP:  cpu time   45.9528: real time   46.0390

 eigenvalue-minimisations  :  2206
 total energy-change (2. order) :-0.2772322E-03  (-0.1534167E-03)
 number of electron     323.9999993 magnetization 
 augmentation part      -21.1606582 magnetization 

 Broyden mixing:
  rms(total) = 0.46814E-02    rms(broyden)= 0.46814E-02
  rms(prec ) = 0.60778E-02
  weight for this iteration     100.00

 eigenvalues of (default mixing * dielectric matrix)
  average eigenvalue GAMMA=   1.2707
  3.4072  2.4881  1.6475  1.6475  0.8035  0.8035  0.7058  0.3730  0.4301  0.4004

 Free energy of the ion-electron system (eV)
  ---------------------------------------------------
  alpha Z        PSCENC =       251.49604385
  Ewald energy   TEWEN  =     57619.16459611
  -Hartree energ DENC   =    -69475.35940973
  -exchange      EXHF   =         0.00000000
  -V(xc)+E(xc)   XCENC  =     -2085.87310190
  PAW double counting   =      8433.31876343    -5791.26982485
  entropy T*S    EENTRO =        -0.00000000
  eigenvalues    EBANDS =     -1227.44963427
  atomic energy  EATOM  =     11953.08265402
  Solvation  Ediel_sol  =         0.00000000
  ---------------------------------------------------
  free energy    TOTEN  =      -322.88991333 eV

  energy without entropy =     -322.88991333  energy(sigma->0) =     -322.88991333


--------------------------------------------------------------------------------------------------------




--------------------------------------- Iteration      1(  16)  ---------------------------------------


    POTLOK:  cpu time    0.2446: real time    0.2449
    SETDIJ:  cpu time    0.0107: real time    0.0107
    EDDIAG:  cpu time    2.3512: real time    2.3540
  RMM-DIIS:  cpu time   47.4337: real time   47.5198
    ORTHCH:  cpu time    0.2035: real time    0.2037
       DOS:  cpu time    0.0005: real time    0.0005
    CHARGE:  cpu time    1.0729: real time    1.0740
    MIXING:  cpu time    0.0074: real time    0.0074
    --------------------------------------------
      LOOP:  cpu time   51.3244: real time   51.4149

 eigenvalue-minimisations  :  2463
 total energy-change (2. order) :-0.5526094E-03  (-0.7819775E-04)
 number of electron     323.9999993 magnetization 
 augmentation part      -21.1725224 magnetization 

 Broyden mixing:
  rms(total) = 0.35745E-02    rms(broyden)= 0.35745E-02
  rms(prec ) = 0.45063E-02
  weight for this iteration     100.00

 eigenvalues of (default mixing * dielectric matrix)
  average eigenvalue GAMMA=   1.3126
  3.5039  2.3454  2.0500  2.0500  1.0788  0.8095  0.8095  0.6286  0.4164  0.3691
  0.3774

 Free energy of the ion-electron system (eV)
  ---------------------------------------------------
  alpha Z        PSCENC =       251.49604385
  Ewald energy   TEWEN  =     57619.16459611
  -Hartree energ DENC   =    -69477.10906296
  -exchange      EXHF   =         0.00000000
  -V(xc)+E(xc)   XCENC  =     -2085.86538658
  PAW double counting   =      8433.40596506    -5791.35734783
  entropy T*S    EENTRO =        -0.00000000
  eigenvalues    EBANDS =     -1225.70792761
  atomic energy  EATOM  =     11953.08265402
  Solvation  Ediel_sol  =         0.00000000
  ---------------------------------------------------
  free energy    TOTEN  =      -322.89046594 eV

  energy without entropy =     -322.89046594  energy(sigma->0) =     -322.89046594


--------------------------------------------------------------------------------------------------------




--------------------------------------- Iteration      1(  17)  ---------------------------------------


    POTLOK:  cpu time    0.2463: real time    0.2465
    SETDIJ:  cpu time    0.0109: real time    0.0109
    EDDIAG:  cpu time    2.3531: real time    2.3599
  RMM-DIIS:  cpu time   39.5616: real time   39.6519
    ORTHCH:  cpu time    0.2034: real time    0.2036
       DOS:  cpu time    0.0004: real time    0.0004
    CHARGE:  cpu time    1.0736: real time    1.0827
    MIXING:  cpu time    0.0075: real time    0.0075
    --------------------------------------------
      LOOP:  cpu time   43.4569: real time   43.5635

 eigenvalue-minimisations  :  2050
 total energy-change (2. order) :-0.1359751E-02  (-0.2680070E-04)
 number of electron     323.9999993 magnetization 
 augmentation part      -21.1696002 magnetization 

 Broyden mixing:
  rms(total) = 0.16829E-02    rms(broyden)= 0.16829E-02
  rms(prec ) = 0.23045E-02
  weight for this iteration     100.00

 eigenvalues of (default mixing * dielectric matrix)
  average eigenvalue GAMMA=   1.3698
  4.1512  2.5321  2.4817  1.5167  1.5167  0.8649  0.8136  0.8136  0.5854  0.4158
  0.3764  0.3691

 Free energy of the ion-electron system (eV)
  ---------------------------------------------------
  alpha Z        PSCENC =       251.49604385
  Ewald energy   TEWEN  =     57619.16459611
  -Hartree energ DENC   =    -69479.95074151
  -exchange      EXHF   =         0.00000000
  -V(xc)+E(xc)   XCENC  =     -2085.84813216
  PAW double counting   =      8432.47479272    -5790.44178826
  entropy T*S    EENTRO =        -0.00000000
  eigenvalues    EBANDS =     -1222.86925046
  atomic energy  EATOM  =     11953.08265402
  Solvation  Ediel_sol  =         0.00000000
  ---------------------------------------------------
  free energy    TOTEN  =      -322.89182569 eV

  energy without entropy =     -322.89182569  energy(sigma->0) =     -322.89182569


--------------------------------------------------------------------------------------------------------




--------------------------------------- Iteration      1(  18)  ---------------------------------------


    POTLOK:  cpu time    0.2512: real time    0.2516
    SETDIJ:  cpu time    0.0105: real time    0.0105
    EDDIAG:  cpu time    2.3448: real time    2.3505
  RMM-DIIS:  cpu time   40.4432: real time   40.5584
    ORTHCH:  cpu time    0.2014: real time    0.2015
       DOS:  cpu time    0.0004: real time    0.0004
    CHARGE:  cpu time    1.0779: real time    1.0794
    MIXING:  cpu time    0.0076: real time    0.0076
    --------------------------------------------
      LOOP:  cpu time   44.3370: real time   44.4600

 eigenvalue-minimisations  :  2095
 total energy-change (2. order) :-0.7600964E-03  (-0.2303759E-04)
 number of electron     323.9999993 magnetization 
 augmentation part      -21.1674489 magnetization 

 Broyden mixing:
  rms(total) = 0.15283E-02    rms(broyden)= 0.15283E-02
  rms(prec ) = 0.18723E-02
  weight for this iteration     100.00

 eigenvalues of (default mixing * dielectric matrix)
  average eigenvalue GAMMA=   1.4166
  5.0817  2.7977  2.3324  1.7015  1.7015  0.9704  0.8178  0.8178  0.5994  0.4356
  0.4168  0.3758  0.3677

 Free energy of the ion-electron system (eV)
  ---------------------------------------------------
  alpha Z        PSCENC =       251.49604385
  Ewald energy   TEWEN  =     57619.16459611
  -Hartree energ DENC   =    -69481.78087217
  -exchange      EXHF   =         0.00000000
  -V(xc)+E(xc)   XCENC  =     -2085.84061869
  PAW double counting   =      8431.92832428    -5789.89344915
  entropy T*S    EENTRO =        -0.00000000
  eigenvalues    EBANDS =     -1221.04926403
  atomic energy  EATOM  =     11953.08265402
  Solvation  Ediel_sol  =         0.00000000
  ---------------------------------------------------
  free energy    TOTEN  =      -322.89258579 eV

  energy without entropy =     -322.89258579  energy(sigma->0) =     -322.89258579


--------------------------------------------------------------------------------------------------------




--------------------------------------- Iteration      1(  19)  ---------------------------------------


    POTLOK:  cpu time    0.2488: real time    0.2503
    SETDIJ:  cpu time    0.0106: real time    0.0106
    EDDIAG:  cpu time    2.3502: real time    2.3558
  RMM-DIIS:  cpu time   43.9508: real time   44.0751
    ORTHCH:  cpu time    0.2023: real time    0.2025
       DOS:  cpu time    0.0005: real time    0.0005
    CHARGE:  cpu time    1.0793: real time    1.0803
    MIXING:  cpu time    0.0078: real time    0.0078
    --------------------------------------------
      LOOP:  cpu time   47.8502: real time   47.9827

 eigenvalue-minimisations  :  2272
 total energy-change (2. order) :-0.4015740E-03  (-0.7891087E-05)
 number of electron     323.9999993 magnetization 
 augmentation part      -21.1665926 magnetization 

 Broyden mixing:
  rms(total) = 0.91631E-03    rms(broyden)= 0.91631E-03
  rms(prec ) = 0.11379E-02
  weight for this iteration     100.00

 eigenvalues of (default mixing * dielectric matrix)
  average eigenvalue GAMMA=   1.5215
  6.2616  2.9606  2.3646  1.9075  1.9075  1.0402  1.0402  0.8169  0.8169  0.6072
  0.4211  0.4140  0.3756  0.3667

 Free energy of the ion-electron system (eV)
  ---------------------------------------------------
  alpha Z        PSCENC =       251.49604385
  Ewald energy   TEWEN  =     57619.16459611
  -Hartree energ DENC   =    -69482.73739497
  -exchange      EXHF   =         0.00000000
  -V(xc)+E(xc)   XCENC  =     -2085.83861454
  PAW double counting   =      8431.84415200    -5789.80464819
  entropy T*S    EENTRO =        -0.00000000
  eigenvalues    EBANDS =     -1220.09977564
  atomic energy  EATOM  =     11953.08265402
  Solvation  Ediel_sol  =         0.00000000
  ---------------------------------------------------
  free energy    TOTEN  =      -322.89298736 eV

  energy without entropy =     -322.89298736  energy(sigma->0) =     -322.89298736


--------------------------------------------------------------------------------------------------------




--------------------------------------- Iteration      1(  20)  ---------------------------------------


    POTLOK:  cpu time    0.2523: real time    0.2525
    SETDIJ:  cpu time    0.0142: real time    0.0142
    EDDIAG:  cpu time    2.3591: real time    2.3681
  RMM-DIIS:  cpu time   39.3168: real time   39.4025
    ORTHCH:  cpu time    0.2000: real time    0.2002
       DOS:  cpu time    0.0004: real time    0.0004
    CHARGE:  cpu time    1.0772: real time    1.0783
    MIXING:  cpu time    0.0080: real time    0.0080
    --------------------------------------------
      LOOP:  cpu time   43.2280: real time   43.3243

 eigenvalue-minimisations  :  2046
 total energy-change (2. order) :-0.3567127E-03  (-0.6043906E-05)
 number of electron     323.9999993 magnetization 
 augmentation part      -21.1658542 magnetization 

 Broyden mixing:
  rms(total) = 0.37988E-03    rms(broyden)= 0.37988E-03
  rms(prec ) = 0.49395E-03
  weight for this iteration     100.00

 eigenvalues of (default mixing * dielectric matrix)
  average eigenvalue GAMMA=   1.5485
  6.7092  3.2043  2.4746  1.7619  1.7619  1.4171  1.1838  0.8144  0.8144  0.8954
  0.6128  0.3662  0.3756  0.4161  0.4190

 Free energy of the ion-electron system (eV)
  ---------------------------------------------------
  alpha Z        PSCENC =       251.49604385
  Ewald energy   TEWEN  =     57619.16459611
  -Hartree energ DENC   =    -69483.20802981
  -exchange      EXHF   =         0.00000000
  -V(xc)+E(xc)   XCENC  =     -2085.83922359
  PAW double counting   =      8432.25077273    -5790.21051551
  entropy T*S    EENTRO =        -0.00000000
  eigenvalues    EBANDS =     -1219.62964188
  atomic energy  EATOM  =     11953.08265402
  Solvation  Ediel_sol  =         0.00000000
  ---------------------------------------------------
  free energy    TOTEN  =      -322.89334407 eV

  energy without entropy =     -322.89334407  energy(sigma->0) =     -322.89334407


--------------------------------------------------------------------------------------------------------




--------------------------------------- Iteration      1(  21)  ---------------------------------------


    POTLOK:  cpu time    0.2479: real time    0.2481
    SETDIJ:  cpu time    0.0126: real time    0.0126
    EDDIAG:  cpu time    2.3477: real time    2.3531
  RMM-DIIS:  cpu time   41.2869: real time   41.3897
    ORTHCH:  cpu time    0.1976: real time    0.1978
       DOS:  cpu time    0.0005: real time    0.0005
    CHARGE:  cpu time    1.0674: real time    1.0686
    MIXING:  cpu time    0.0095: real time    0.0096
    --------------------------------------------
      LOOP:  cpu time   45.1700: real time   45.2798

 eigenvalue-minimisations  :  2087
 total energy-change (2. order) :-0.1128917E-03  (-0.1712611E-05)
 number of electron     323.9999993 magnetization 
 augmentation part      -21.1667238 magnetization 

 Broyden mixing:
  rms(total) = 0.35197E-03    rms(broyden)= 0.35197E-03
  rms(prec ) = 0.43206E-03
  weight for this iteration     100.00

 eigenvalues of (default mixing * dielectric matrix)
  average eigenvalue GAMMA=   1.5298
  6.9340  3.3180  2.4953  1.8721  1.8721  1.7357  1.0134  1.0134  0.8144  0.8144
  0.6115  0.3661  0.3755  0.4180  0.4180  0.4047

 Free energy of the ion-electron system (eV)
  ---------------------------------------------------
  alpha Z        PSCENC =       251.49604385
  Ewald energy   TEWEN  =     57619.16459611
  -Hartree energ DENC   =    -69483.41463479
  -exchange      EXHF   =         0.00000000
  -V(xc)+E(xc)   XCENC  =     -2085.83971243
  PAW double counting   =      8432.35750633    -5790.31937782
  entropy T*S    EENTRO =        -0.00000000
  eigenvalues    EBANDS =     -1219.42053224
  atomic energy  EATOM  =     11953.08265402
  Solvation  Ediel_sol  =         0.00000000
  ---------------------------------------------------
  free energy    TOTEN  =      -322.89345696 eV

  energy without entropy =     -322.89345696  energy(sigma->0) =     -322.89345696


--------------------------------------------------------------------------------------------------------




--------------------------------------- Iteration      1(  22)  ---------------------------------------


    POTLOK:  cpu time    0.2449: real time    0.2482
    SETDIJ:  cpu time    0.0105: real time    0.0105
    EDDIAG:  cpu time    2.3410: real time    2.3434
  RMM-DIIS:  cpu time   28.6802: real time   28.7476
    ORTHCH:  cpu time    0.1989: real time    0.1991
       DOS:  cpu time    0.0005: real time    0.0005
    CHARGE:  cpu time    1.0758: real time    1.0805
    MIXING:  cpu time    0.0083: real time    0.0083
    --------------------------------------------
      LOOP:  cpu time   32.5599: real time   32.6379

 eigenvalue-minimisations  :  1440
 total energy-change (2. order) :-0.4494423E-04  (-0.4753364E-06)
 number of electron     323.9999993 magnetization 
 augmentation part      -21.1671013 magnetization 

 Broyden mixing:
[...]
  0.000   0.000   0.000  -0.000   0.000   0.011   0.000  -0.000
 -0.000   0.000  -0.000   0.000   0.000   0.000   0.011  -0.000
 -0.000  -0.000   0.000   0.000   0.000  -0.000  -0.000   0.011
 -0.001  -0.000   0.001   0.000  -0.000  -0.000  -0.000   0.000
 -0.000   0.000  -0.016  -0.001   0.000  -0.000   0.000  -0.000
 -0.009  -0.000   0.000  -0.021  -0.000  -0.000  -0.000   0.000
 -0.000  -0.000   0.000   0.001  -0.016  -0.000  -0.000  -0.000
 -0.000   0.000   0.001  -0.000   0.001   0.000   0.000  -0.000
 total augmentation occupancy for first ion, spin component:           1
  1.930   0.239   0.000   0.199  -0.002   0.004   0.046  -0.006   0.002   0.001   0.005  -0.002   0.000
  0.239   1.385  -0.011  -0.963   0.021   0.007   0.386  -0.017  -0.010   0.002  -0.021  -0.003  -0.001
  0.000  -0.011   1.333   0.007   0.004  -0.501  -0.004  -0.002   0.007  -0.121   0.000   0.001  -0.045
  0.199  -0.963   0.007   1.517  -0.005  -0.005  -0.543   0.013  -0.002  -0.002  -0.035   0.006  -0.001
 -0.002   0.021   0.004  -0.005   1.344  -0.002   0.013  -0.503  -0.049   0.001   0.001  -0.122  -0.000
  0.004   0.007  -0.501  -0.005  -0.002   0.317   0.002  -0.008  -0.002   0.042  -0.000   0.002   0.007
  0.046   0.386  -0.004  -0.543   0.013   0.002   0.302  -0.005  -0.000   0.001   0.049  -0.003   0.000
 -0.006  -0.017  -0.002   0.013  -0.503  -0.008  -0.005   0.314   0.009   0.001   0.001   0.042  -0.001
  0.002  -0.010   0.007  -0.002  -0.049  -0.002  -0.000   0.009   0.021  -0.000   0.001  -0.000   0.001
  0.001   0.002  -0.121  -0.002   0.001   0.042   0.001   0.001  -0.000   0.020   0.000  -0.001  -0.001
  0.005  -0.021   0.000  -0.035   0.001  -0.000   0.049   0.001   0.001   0.000   0.021  -0.001  -0.000
 -0.002  -0.003   0.001   0.006  -0.122   0.002  -0.003   0.042  -0.000  -0.001  -0.001   0.020  -0.000
  0.000  -0.001  -0.045  -0.001  -0.000   0.007   0.000  -0.001   0.001  -0.001  -0.000  -0.000   0.021


------------------------ aborting loop because EDIFF is reached ----------------------------------------


    CHARGE:  cpu time    1.0832: real time    1.0844
    FORLOC:  cpu time    0.0696: real time    0.0715
    FORNL :  cpu time   12.9610: real time   12.9849
    STRESS:  cpu time   69.1719: real time   69.3168
    FORCOR:  cpu time    0.2781: real time    0.2783
    FORHAR:  cpu time    0.1160: real time    0.1161
    MIXING:  cpu time    0.0069: real time    0.0069
    OFIELD:  cpu time    0.0000: real time    0.0000

  Number of pair interactions contributing to vdW energy:  273352
  Edisp (eV):  -19.18340
    FORVDW:  cpu time    0.0303: real time    0.0303

  FORCE on cell =-STRESS in cart. coord.  units (eV):
  Direction    XX          YY          ZZ          XY          YZ          ZX
  --------------------------------------------------------------------------------------
  Alpha Z   251.49604   251.49604   251.49604
  Ewald   66656.49740 66632.29014-75802.43751   -83.30732    -4.64637    26.17870
  Hartree 68977.52696 68969.54936-68591.39938   -22.56755    -0.16225     6.64342
  E(xc)   -1358.95625 -1358.94464 -1377.99182     1.43363     0.24012    -0.19298
  Local  ************************139319.20493   102.53054     4.64335   -30.62680
  n-local  3567.38642  3566.23803  3750.80190     1.58638    -1.72873     0.41644
  augment  -760.50297  -760.27671  -801.38096    -1.96910     0.29567     0.30932
  Kinetic  3291.14448  3289.35249  3290.46060   -20.75993    -0.83679     5.13444
  Fock        0.00000     0.00000     0.00000     0.00000     0.00000     0.00000
  vdW       -13.15902   -13.29540    -9.23645    -0.01895     0.08589     0.91224
  -------------------------------------------------------------------------------------
  Total       9.62964     5.85538    29.51734   -23.07229    -2.10909     8.77478
  in kB       5.40666     3.28756    16.57283   -12.95418    -1.18417     4.92669
  external pressure =        8.42 kB  Pullay stress =        0.00 kB

  kinetic pressure (ideal gas correction) =      0.25 kB
  total pressure  =      8.67 kB
  Total+kin.     5.685       3.447      16.889     -12.921      -1.137       5.016

 VOLUME and BASIS-vectors are now :
 -----------------------------------------------------------------------------
  energy-cutoff  :      550.00
  volume of cell :     2853.59
      direct lattice vectors                 reciprocal lattice vectors
    10.575990690  0.000000000  0.000000000     0.094553790  0.049210741  0.000507214
    -4.792684990  9.208691350  0.000000000     0.000000000  0.108593063 -0.000290142
    -0.197919387  0.078285390 29.300318776     0.000000000  0.000000000  0.034129322

  length of vectors
    10.575990690 10.381224677 29.301091807     0.106594435  0.108593451  0.034129322


 FORCES acting on ions
    electron-ion (+dipol)            ewald-force                    non-local-force                 convergence-correction
 -----------------------------------------------------------------------------------------------
   0.225E+01 -.959E+00 -.818E+03   -.219E+01 0.928E+00 0.823E+03   -.231E+00 0.176E+00 -.499E+01   -.971E-03 0.333E-03 -.565E-03
   0.565E+00 -.153E+01 -.822E+03   -.548E+00 0.148E+01 0.828E+03   0.123E+00 0.315E+00 -.502E+01   0.122E-02 -.267E-03 0.408E-03
   0.178E+01 0.409E-01 -.819E+03   -.176E+01 -.801E-01 0.825E+03   -.729E-01 0.567E-01 -.494E+01   0.211E-03 0.204E-03 0.688E-03
   0.261E+01 0.853E+00 -.819E+03   -.259E+01 -.903E+00 0.825E+03   -.139E+00 -.124E-01 -.519E+01   0.605E-03 -.277E-03 0.170E-03
   0.113E+01 -.245E-01 -.820E+03   -.109E+01 0.453E-01 0.826E+03   -.131E+00 -.570E-01 -.515E+01   -.744E-03 -.490E-04 -.155E-03
   0.270E+01 -.189E+01 -.819E+03   -.264E+01 0.185E+01 0.825E+03   -.304E+00 0.197E+00 -.489E+01   0.401E-03 0.450E-03 -.466E-03
   0.207E+01 0.448E+00 -.818E+03   -.199E+01 -.543E+00 0.824E+03   -.568E-01 0.133E+00 -.497E+01   0.382E-03 -.143E-02 -.631E-03
   0.354E+01 -.306E+01 -.817E+03   -.351E+01 0.310E+01 0.822E+03   -.170E+00 0.370E+00 -.472E+01   -.503E-03 -.104E-03 0.938E-03
   0.290E+01 0.166E+01 -.817E+03   -.278E+01 -.169E+01 0.823E+03   -.353E+00 -.151E+00 -.501E+01   -.596E-03 0.121E-02 -.677E-03
   0.239E+01 0.102E-01 0.104E+03   -.239E+01 0.505E-02 -.989E+02   -.259E+00 0.374E-01 -.511E+01   0.225E-03 0.298E-03 0.839E-03
   0.447E+01 0.189E+01 0.106E+03   -.444E+01 -.190E+01 -.100E+03   -.371E+00 -.289E+00 -.517E+01   0.984E-03 0.136E-03 0.954E-03
   0.851E+00 -.211E+01 0.105E+03   -.905E+00 0.218E+01 -.996E+02   0.109E+00 0.982E-01 -.527E+01   -.112E-02 -.424E-03 0.149E-03
   0.609E+01 0.261E+01 0.104E+03   -.621E+01 -.263E+01 -.987E+02   -.274E+00 -.211E+00 -.531E+01   0.234E-03 -.477E-03 0.105E-02
   0.352E+01 0.126E+01 0.103E+03   -.358E+01 -.121E+01 -.971E+02   -.246E+00 -.120E+00 -.524E+01   -.495E-03 0.757E-03 0.404E-03
   0.538E+01 -.841E+00 0.104E+03   -.543E+01 0.791E+00 -.985E+02   -.289E+00 0.464E-01 -.521E+01   0.859E-03 -.983E-05 0.382E-03
   -.157E+00 -.259E+01 0.100E+03   0.172E+00 0.265E+01 -.950E+02   0.436E-01 0.112E+00 -.487E+01   -.552E-03 -.102E-02 0.152E-02
   0.884E+00 -.625E+00 0.103E+03   -.873E+00 0.637E+00 -.972E+02   -.185E+00 -.137E+00 -.517E+01   -.419E-03 0.170E-02 0.759E-03
   0.943E+00 -.230E+00 0.105E+03   -.965E+00 0.244E+00 -.996E+02   -.143E+00 -.705E-01 -.542E+01   0.181E-03 -.104E-02 -.194E-03
   0.558E+01 -.155E+01 -.101E+03   -.549E+01 0.153E+01 0.959E+02   -.594E+00 0.315E+00 0.523E+01   -.981E-03 0.327E-03 0.199E-03
   0.278E+01 0.272E+01 -.102E+03   -.269E+01 -.281E+01 0.969E+02   -.124E+00 0.329E-01 0.513E+01   0.122E-02 -.121E-03 -.639E-03
   0.400E+01 -.100E+00 -.101E+03   -.389E+01 0.540E-01 0.958E+02   -.376E+00 0.146E+00 0.529E+01   0.293E-03 0.105E-03 -.110E-02
   0.112E+01 -.394E+00 -.105E+03   -.950E+00 0.395E+00 0.993E+02   -.276E+00 0.635E-01 0.514E+01   0.660E-03 -.335E-03 -.509E-03
   0.150E+01 0.801E+00 -.102E+03   -.137E+01 -.799E+00 0.968E+02   -.299E+00 -.173E-01 0.514E+01   -.700E-03 0.981E-04 -.316E-03
   0.139E+01 -.289E+01 -.102E+03   -.125E+01 0.287E+01 0.968E+02   -.252E+00 0.278E+00 0.527E+01   0.405E-03 0.417E-03 -.177E-03
   0.755E+00 -.264E+01 -.102E+03   -.555E+00 0.264E+01 0.965E+02   -.255E+00 0.279E+00 0.557E+01   0.359E-03 -.146E-02 0.278E-03
   0.140E+00 -.449E+00 -.105E+03   0.144E-01 0.439E+00 0.988E+02   -.624E-01 0.183E+00 0.528E+01   -.529E-03 0.855E-05 -.133E-02
   0.101E+01 -.114E+01 -.104E+03   -.809E+00 0.116E+01 0.986E+02   -.304E+00 0.650E-01 0.525E+01   -.694E-03 0.111E-02 0.273E-04
   0.243E+01 -.832E+00 0.818E+03   -.232E+01 0.817E+00 -.824E+03   -.468E+00 0.205E+00 0.495E+01   0.256E-03 0.298E-03 -.114E-02
   0.196E+01 -.716E+00 0.819E+03   -.188E+01 0.693E+00 -.825E+03   -.721E-01 0.167E-01 0.557E+01   0.763E-03 0.173E-03 -.152E-02
   0.309E+01 0.959E+00 0.817E+03   -.303E+01 -.982E+00 -.822E+03   -.338E+00 -.558E-01 0.535E+01   -.890E-03 -.393E-03 -.613E-03
   0.346E+01 -.300E+01 0.816E+03   -.339E+01 0.304E+01 -.821E+03   -.318E+00 0.330E+00 0.531E+01   0.229E-03 -.575E-03 -.132E-02
   0.205E+00 0.326E+01 0.819E+03   -.134E+00 -.329E+01 -.824E+03   -.397E-01 -.237E+00 0.518E+01   -.549E-03 0.771E-03 -.658E-03
   0.443E+01 -.118E+01 0.819E+03   -.433E+01 0.111E+01 -.824E+03   -.450E+00 0.139E+00 0.518E+01   0.720E-03 -.315E-04 -.726E-03
   0.281E+01 -.692E+00 0.821E+03   -.270E+01 0.661E+00 -.826E+03   -.398E+00 0.911E-01 0.493E+01   -.553E-03 -.840E-03 -.184E-02
   0.328E+01 -.109E+01 0.817E+03   -.329E+01 0.103E+01 -.823E+03   -.181E+00 0.105E+00 0.536E+01   -.376E-03 0.162E-02 -.110E-02
   0.611E+00 -.293E+00 0.816E+03   -.472E+00 0.254E+00 -.822E+03   -.360E+00 0.163E+00 0.537E+01   0.200E-03 -.110E-02 0.529E-04
   -.411E+01 -.123E+01 -.461E+03   0.427E+01 0.128E+01 0.461E+03   0.216E+00 0.872E-02 -.407E+00   -.472E-03 -.843E-04 -.548E-03
   -.464E+01 0.366E+01 -.461E+03   0.488E+01 -.384E+01 0.461E+03   -.112E+00 -.470E+00 -.571E+00   0.549E-03 -.116E-02 -.593E-03
   -.402E+01 0.696E+00 -.460E+03   0.423E+01 -.736E+00 0.460E+03   0.150E+00 -.241E+00 -.194E+00   -.759E-03 0.818E-03 -.519E-03
   -.527E+01 0.981E+00 -.461E+03   0.553E+01 -.109E+01 0.461E+03   0.418E+00 -.114E+00 0.207E-01   -.325E-03 0.425E-03 -.453E-03
   -.357E+01 0.226E+01 -.458E+03   0.366E+01 -.231E+01 0.458E+03   0.227E+00 -.184E+00 0.429E-01   -.314E-04 -.179E-03 -.449E-03
   -.314E+01 0.469E+00 -.466E+03   0.328E+01 -.572E+00 0.466E+03   0.907E-01 -.102E+00 -.169E+00   0.102E-02 0.788E-04 -.635E-03
   -.492E+01 0.851E+00 -.460E+03   0.509E+01 -.960E+00 0.460E+03   0.928E-01 -.137E+00 -.171E+00   0.689E-03 -.528E-03 -.535E-03
   -.269E+01 0.875E+00 -.462E+03   0.268E+01 -.918E+00 0.462E+03   0.459E-02 -.849E-01 -.596E-01   -.645E-03 -.259E-03 -.543E-03
   -.706E+01 0.114E+00 -.459E+03   0.728E+01 -.177E+00 0.459E+03   0.532E+00 0.760E-01 0.511E-01   -.345E-03 0.699E-03 -.498E-03
   -.706E+01 0.138E+01 0.462E+03   0.734E+01 -.144E+01 -.462E+03   0.418E+00 -.187E+00 0.214E+00   -.230E-03 -.278E-03 0.626E-04
   -.367E+01 0.283E+00 0.463E+03   0.380E+01 -.217E+00 -.463E+03   0.447E-01 0.201E-01 -.123E+00   0.551E-03 0.487E-03 0.160E-03
   -.202E+01 -.438E+00 0.461E+03   0.220E+01 0.452E+00 -.461E+03   -.132E+00 0.211E+00 -.363E+00   0.272E-03 0.222E-03 0.715E-04
   -.189E+00 0.215E+01 0.459E+03   0.303E+00 -.223E+01 -.459E+03   -.664E-01 -.254E+00 -.322E+00   -.259E-05 -.868E-03 0.827E-04
   -.274E+01 0.923E+00 0.459E+03   0.286E+01 -.892E+00 -.460E+03   -.547E-01 0.145E-01 -.468E+00   -.543E-03 0.783E-03 0.344E-04
   -.681E+01 0.584E+00 0.464E+03   0.704E+01 -.626E+00 -.464E+03   0.432E+00 0.250E+00 0.135E+00   0.370E-03 0.166E-03 0.140E-03
   -.692E+01 0.264E+01 0.460E+03   0.712E+01 -.271E+01 -.460E+03   0.251E+00 -.264E+00 -.723E-01   0.201E-03 -.126E-02 0.130E-03
   -.598E+01 -.311E+01 0.460E+03   0.617E+01 0.313E+01 -.460E+03   0.206E+00 0.314E+00 -.161E+00   -.104E-03 0.579E-03 0.280E-04
   -.442E+01 -.972E-01 0.459E+03   0.453E+01 0.888E-01 -.460E+03   0.140E+00 -.122E+00 -.390E+00   -.656E-03 0.382E-03 0.819E-05
 -----------------------------------------------------------------------------------------------
   0.527E+01 -.133E+01 0.189E+00   0.782E-13 0.273E-13 0.210E-11   -.526E+01 0.133E+01 -.179E+00   -.721E-03 0.985E-04 -.109E-01
 
 
 POSITION                                       TOTAL-FORCE (eV/Angst)
 -----------------------------------------------------------------------------------
      1.69250      1.07609     20.00193        -0.173615      0.145810      0.574395
      0.08523      4.13027     20.03482         0.134409      0.259583      0.492038
     -1.51964      7.22392     20.00506        -0.056417      0.020702      0.636441
      5.21253      1.07951     20.01743        -0.127491     -0.060707      0.411447
      3.61206      4.14825     20.02201        -0.092242     -0.031189      0.362099
      2.03129      7.20673     20.00338        -0.236967      0.151463      0.669018
      8.72343      1.08664     20.00554         0.008186      0.043177      0.638588
      7.13726      4.12921     19.97590        -0.143127      0.401614      0.977641
      5.53679      7.23241     19.99307        -0.241226     -0.173967      0.645711
      0.55539      1.05006     12.82803        -0.295936      0.052383      0.519482
     -1.02186      4.13617     12.82983        -0.380022     -0.289472      0.459316
     -2.65533      7.18189     12.83816         0.010950      0.168481      0.396367
      4.09232      1.07090     12.85132        -0.426587     -0.222287      0.330620
      2.49069      4.12479     12.85834        -0.349318     -0.067765      0.295538
      0.90134      7.18941     12.84425        -0.361755     -0.003845      0.404073
      7.58163      1.04356     12.84569         0.008863      0.170331      0.666243
      6.02155      4.14291     12.85093        -0.210537     -0.119465      0.460032
      4.38126      7.19958     12.84694        -0.214720     -0.049436      0.214669
      1.73242      1.05525     16.45439        -0.464181      0.281843     -0.373172
      0.10010      4.16675     16.46770        -0.013810     -0.041124     -0.403360
     -1.47136      7.20645     16.45259        -0.229179      0.094620     -0.277699
      5.23119      1.06987     16.47856        -0.075454      0.064285     -0.511259
      3.63966      4.13792     16.45903        -0.135168     -0.015820     -0.446742
      2.01831      7.19344     16.45504        -0.084000      0.251485     -0.324088
      8.75941      1.07101     16.44158        -0.023394      0.269015     -0.011411
      7.14740      4.13700     16.48116         0.115301      0.170910     -0.443856
      5.54386      7.21619     16.47216        -0.081171      0.087191     -0.415480
      0.57040      1.03263      9.29059        -0.361798      0.186354     -0.544316
     -1.05287      4.10882      9.24664         0.004663     -0.002235      0.136980
     -2.60703      7.18567      9.27597        -0.278442     -0.078518     -0.156098
      4.10960      1.02070      9.29046        -0.234449      0.355133     -0.191872
      2.48576      4.12103      9.27615         0.017928     -0.260417     -0.263041
      0.91445      7.19361      9.27580        -0.347965      0.070489     -0.272044
      7.62302      1.04370      9.28036        -0.286870      0.059633     -0.454405
      6.02028      4.12055      9.27822        -0.196426      0.044218     -0.088583
      4.42339      7.17510      9.28282        -0.224543      0.121173     -0.156355
     -0.12080      0.05954     18.25442         0.391982      0.057565     -0.514244
     -1.68522      3.15140     18.26701         0.116508     -0.650221     -0.797146
     -3.31130      6.20947     18.24006         0.356998     -0.287605     -0.220564
      3.40167      0.05265     18.23380         0.688938     -0.220953      0.099919
      1.81322      3.13163     18.23110         0.344674     -0.245760      0.056447
      0.21806      6.19554     18.25660         0.235687     -0.193734     -0.079887
      6.94425      0.05354     18.24088         0.265173     -0.243231     -0.179616
      5.34491      3.11937     18.24257         0.014341     -0.124862     -0.034229
      3.71239      6.17376     18.22713         0.787530      0.016455      0.095181
     -2.53067      9.23346     11.05172         0.728512     -0.255995      0.289285
      0.68691      3.08738     11.06168         0.179454      0.081698     -0.249832
     -0.89854      6.15197     11.07687         0.016519      0.236750     -0.510273
      5.82382      0.03276     11.08799         0.028441     -0.345818     -0.452600
      4.21940      3.10077     11.09818         0.056643      0.035495     -0.731498
      2.58086      6.13699     11.05273         0.696870      0.221607      0.146751
      9.30586      0.04132     11.07035         0.486334     -0.367554     -0.111359
      7.72020      3.06950     11.07098         0.403683      0.370443     -0.200856
      6.13127      6.17097     11.08854         0.257665     -0.133873     -0.562501
 -----------------------------------------------------------------------------------
    total drift:                                0.009443      0.004055     -0.000108


--------------------------------------------------------------------------------------------------------



  FREE ENERGIE OF THE ION-ELECTRON SYSTEM (eV)
  ---------------------------------------------------
  free  energy   TOTEN  =      -342.06305158 eV

  energy  without entropy=     -342.06305158  energy(sigma->0) =     -342.06305158
 
 d Force =-0.2507475E-02[-0.518E-02, 0.166E-03]  d Energy =-0.2558370E-02 0.509E-04
 d Force = 0.2275755E+02[ 0.227E+02, 0.228E+02]  d Ewald  = 0.2275755E+02-0.476E-05


--------------------------------------------------------------------------------------------------------


    POTLOK:  cpu time    0.2560: real time    0.2563


--------------------------------------------------------------------------------------------------------


           RANDOM_SEED =         238935196              324                0
   IONSTEP:  cpu time    0.0001: real time    0.0001

  ENERGY OF THE ELECTRON-ION-THERMOSTAT SYSTEM (eV)
  ---------------------------------------------------
% ion-electron   TOTEN  =      -342.063052  see above
  kinetic energy EKIN   =         0.670141
  kin. lattice  EKIN_LAT=         0.000000  (temperature   97.82 K)
  nose potential ES     =        -0.002400
  nose kinetic   EPS    =         0.000044
  ---------------------------------------------------
  total energy   ETOTAL =      -341.395266 eV

  maximum distance moved by ions :      0.68E-03


 mean value of Nose-termostat <S>:     0.997 mean value of <T> :    97.819
 mean temperature <T/S>/<1/S>  :    97.819

    WAVPRE:  cpu time    0.0919: real time    0.0952
    FEWALD:  cpu time    0.0014: real time    0.0014
    ORTHCH:  cpu time    7.7519: real time    7.7680
    POTLOK:  cpu time    0.2576: real time    0.2579
    EDDIAG:  cpu time    2.3421: real time    2.3488
     LOOP+:  cpu time  456.0875: real time  457.1798
    4ORBIT:  cpu time    0.0000: real time    0.0000

 total amount of memory used by VASP MPI-rank0   355387. kBytes
=======================================================================

   base      :      30000. kBytes
   nonl-proj :     192614. kBytes
   fftplans  :      17721. kBytes
   grid      :      80453. kBytes
   one-center:        839. kBytes
   wavefun   :      33760. kBytes
 
  
  
 General timing and accounting informations for this job:
 ========================================================
  
                  Total CPU time used (sec):     5481.556
                            User time (sec):     5469.683
                          System time (sec):       11.873
                         Elapsed time (sec):     5494.368
  
                   Maximum memory used (kb):      775812.
                   Average memory used (kb):           0.
  
                          Minor page faults:       351600
                          Major page faults:            0
                 Voluntary context switches:         6411
