2.393495708701883551e+00 -4.380775980947086978e-01 3.301133324534778701e+00 -4.380775980947086978e-01 -4.611152790974602962e-03 -1.942723878217903710e+00 3.301133324534778701e+00 -1.942723878217903710e+00 -3.496881281249680784e-01
2.546368985936783069e+00 -4.679868009036184384e-01 3.282996123556945367e+00 -4.679868009036184384e-01 -8.495370906666149802e-02 -2.076483475060410200e+00 3.282996123556945367e+00 -2.076483475060410200e+00 -2.641738475425410293e-01
2.709205969790611679e+00 -4.970099390585762111e-01 3.268927586806442243e+00 -4.970099390585762111e-01 -1.511734797354810644e-01 -2.211942869402334644e+00 3.268927586806442243e+00 -2.211942869402334644e+00 -1.609563568331958405e-01
2.881066346753053065e+00 -5.248215194213956547e-01 3.258909631331148304e+00 -5.248215194213956547e-01 -2.028545568986395708e-01 -2.349011646483070148e+00 3.258909631331148304e+00 -2.349011646483070148e+00 -4.131954559755673245e-02
3.060268402276811184e+00 -5.512045465666188804e-01 3.253014588939549423e+00 -5.512045465666188804e-01 -2.402681848379589757e-01 -2.487527059733522616e+00 3.253014588939549423e+00 -2.487527059733522616e+00 9.314528637768697272e-02
3.244642182107309480e+00 -5.759962739251529573e-01 3.251296708488010001e+00 -5.759962739251529573e-01 -2.642461793510269552e-01 -2.627254030776113858e+00 3.251296708488010001e+00 -2.627254030776113858e+00 2.401235212209872349e-01
3.431945400181485528e+00 -5.989797060715400523e-01 3.253864487689258400e+00 -5.989797060715400523e-01 -2.758192687087671069e-01 -2.768011730089628752e+00 3.253864487689258400e+00 -2.768011730089628752e+00 3.968123013535163612e-01
3.619736857962941201e+00 -6.199740134845656003e-01 3.260736009495416976e+00 -6.199740134845656003e-01 -2.765245038415043988e-01 -2.909709742913459962e+00 3.260736009495416976e+00 -2.909709742913459962e+00 5.600290272018957349e-01
3.805611522819521753e+00 -6.388526154993793282e-01 3.272019771619213646e+00 -6.388526154993793282e-01 -2.678446868231992850e-01 -3.052329986295486020e+00 3.272019771619213646e+00 -3.052329986295486020e+00 7.266995969054759197e-01
3.987218610975434618e+00 -6.555070144032523194e-01 3.287770022917012813e+00 -6.555070144032523194e-01 -2.515338640096341782e-01 -3.195890543187828836e+00 3.287770022917012813e+00 -3.195890543187828836e+00 8.932797518484485444e-01
1.898034743828134552e+01 6.822226979924121970e+00 2.260801643948524031e+01 6.822226979924121970e+00 6.728065415546097050e+00 1.046902143175149291e+01 2.260801643948524031e+01 1.046902143175149291e+01 5.900130020331570080e+00
1.900349459581163103e+01 6.765225987364987148e+00 2.252440068432950682e+01 6.765225987364987148e+00 6.654405619266324123e+00 1.031210336537437122e+01 2.252440068432950682e+01 1.031210336537437122e+01 5.800034203984390402e+00
1.901967079470345467e+01 6.696499484890896525e+00 2.240444657298916553e+01 6.696499484890896525e+00 6.591059266920895610e+00 1.012392323064167243e+01 2.240444657298916553e+01 1.012392323064167243e+01 5.686639943465372049e+00
1.902864366966886323e+01 6.616690945606940488e+00 2.224872608155762421e+01 6.616690945606940488e+00 6.538133604027323464e+00 9.905124500658489595e+00 2.224872608155762421e+01 9.905124500658489595e+00 5.560394095097492162e+00
1.902971612484401120e+01 6.526658333653236888e+00 2.205802567716332518e+01 6.526658333653236888e+00 6.495092402998037251e+00 9.656833253358728442e+00 2.205802567716332518e+01 9.656833253358728442e+00 5.421028545086963746e+00
1.902194082482418480e+01 6.427277487422822233e+00 2.183329269521098936e+01 6.427277487422822233e+00 6.461131322451672432e+00 9.380211315182130249e+00 2.183329269521098936e+01 9.380211315182130249e+00 5.267935568834537285e+00
1.900419169167548006e+01 6.319513616573332548e+00 2.157563533938159850e+01 6.319513616573332548e+00 6.435142158707243709e+00 9.076492009580116260e+00 2.157563533938159850e+01 9.076492009580116260e+00 5.100275076453010925e+00
1.897534264746398946e+01 6.204296182256562098e+00 2.128614393910322278e+01 6.204296182256562098e+00 6.415784342795816109e+00 8.746837162992433079e+00 2.128614393910322278e+01 8.746837162992433079e+00 4.916956738514319802e+00
1.893401737471494073e+01 6.082644016888900218e+00 2.096603394357435590e+01 6.082644016888900218e+00 6.401574311725100053e+00 8.392462224617579736e+00 2.096603394357435590e+01 8.392462224617579736e+00 4.716675734555365374e+00
1.887900042422982949e+01 5.955575952886739799e+00 2.061650292774059068e+01 5.955575952886739799e+00 6.390939131238212667e+00 8.014475398136543305e+00 2.061650292774059068e+01 8.014475398136543305e+00 4.498234489630565491e+00
3.410464923881742294e+01 1.411445736480485991e+00 1.179655409348680406e+00 1.411445736480485991e+00 6.675031008748102401e+00 8.696451290312287696e+00 1.179655409348680406e+00 8.696451290312287696e+00 2.041091518632594415e+01
3.426287133168565902e+01 1.375359996001766394e+00 1.116447902140732085e+00 1.375359996001766394e+00 6.819161805603821236e+00 8.666765862451548230e+00 1.116447902140732085e+00 8.666765862451548230e+00 2.079021327083842507e+01
3.438672268497003870e+01 1.336922759450695164e+00 1.060312563571434996e+00 1.336922759450695164e+00 6.957687908813409372e+00 8.610984132314182915e+00 1.060312563571434996e+00 8.610984132314182915e+00 2.110126492798791986e+01
3.447477118452125211e+01 1.296540676523994406e+00 1.011638362915915579e+00 1.296540676523994406e+00 7.088735193687622171e+00 8.529707234234479074e+00 1.011638362915915579e+00 8.529707234234479074e+00 2.133996829996400635e+01
3.452606208757307371e+01 1.254673438183177225e+00 9.708142694492991609e-01 1.254673438183177225e+00 7.210570978909993656e+00 8.423412539595545923e+00 9.708142694492991609e-01 8.423412539595545923e+00 2.150374204521357768e+01
3.453942848630012463e+01 1.211798415811351948e+00 9.382999741330985133e-01 1.211798415811351948e+00 7.321020572624133749e+00 8.292630461045282786e+00 9.382999741330985133e-01 8.292630461045282786e+00 2.158996946134033834e+01
3.451377419456341755e+01 1.168392980791627789e+00 9.144137245560529648e-01 1.168392980791627789e+00 7.417909282973661256e+00 8.137696926594022884e+00 9.144137245560529648e-01 8.137696926594022884e+00 2.159621065016395036e+01
3.444802070664555060e+01 1.125022906615097185e+00 8.996152116796745091e-01 1.125022906615097185e+00 7.498655768405465771e+00 7.958965544673700876e+00 8.996152116796745091e-01 7.958965544673700876e+00 2.151981354844491534e+01
3.434108951682914324e+01 1.082165564664868462e+00 8.942934047790891405e-01 1.082165564664868462e+00 7.560749409052826664e+00 7.756560078235491318e+00 8.942934047790891405e-01 7.756560078235491318e+00 2.135819681463012998e+01
3.419190211939678647e+01 1.040262965480857726e+00 8.988019122862296317e-01 1.040262965480857726e+00 7.601502780833055972e+00 7.530480527279397762e+00 8.988019122862296317e-01 7.530480527279397762e+00 2.110863766379371143e+01
3.816733272245955533e+01 -5.010939883630367575e+00 8.559905482341397587e+00 -5.010939883630367575e+00 5.450139231493253078e+01 1.133131676593375126e+01 8.559905482341397587e+00 1.133131676593375126e+01 5.347615997561423029e+01
3.793848392145257264e+01 -4.911546279236475243e+00 8.743258901627024571e+00 -4.911546279236475243e+00 5.444324122581940628e+01 1.134501854128066611e+01 8.743258901627024571e+00 1.134501854128066611e+01 5.312168012805969397e+01
3.765318174817769403e+01 -4.810729336477383988e+00 8.923131143947165000e+00 -4.810729336477383988e+00 5.428967502027293790e+01 1.131329352952623246e+01 8.923131143947165000e+00 1.131329352952623246e+01 5.256001023076618850e+01
3.731319251410017301e+01 -4.709449380033228216e+00 9.098801965791716739e+00 -4.709449380033228216e+00 5.404105382004819091e+01 1.123603883874043419e+01 9.098801965791716739e+00 1.123603883874043419e+01 5.179298518981897814e+01
3.691987096296519866e+01 -4.608941113064180861e+00 9.269276745170543563e+00 -4.608941113064180861e+00 5.369784063883022185e+01 1.111342595547329815e+01 9.269276745170543563e+00 1.111342595547329815e+01 5.082384610101352962e+01
3.647452039255295375e+01 -4.510456387385415766e+00 9.433612306058513752e+00 -4.510456387385415766e+00 5.326094435533415350e+01 1.094607223130490681e+01 9.433612306058513752e+00 1.094607223130490681e+01 4.965672579020539956e+01
3.597832406005860406e+01 -4.415144162882094214e+00 9.590899769740497405e+00 -4.415144162882094214e+00 5.273195979447522319e+01 1.073507518015541606e+01 9.590899769740497405e+00 1.073507518015541606e+01 4.829683744851533334e+01
3.543100758700210662e+01 -4.324273440024393622e+00 9.740230257501368172e+00 -4.324273440024393622e+00 5.211167579438352959e+01 1.048190958635503200e+01 9.740230257501368172e+00 1.048190958635503200e+01 4.674836534776390806e+01
3.483642942075900351e+01 -4.238770246182442136e+00 9.881175052966067796e+00 -4.238770246182442136e+00 5.140583715448487112e+01 1.018841035598901001e+01 9.881175052966067796e+00 1.018841035598901001e+01 4.502261045159769992e+01
3.419518976425437984e+01 -4.159766392586401018e+00 1.001299676396949323e+01 -4.159766392586401018e+00 5.061749633536968673e+01 9.856909706137676253e+00 1.001299676396949323e+01 9.856909706137676253e+00 4.312751258728282977e+01
4.470035402925245904e+01 1.428037017489785221e+01 7.157937110274664505e+00 1.428037017489785221e+01 3.685077944154231488e+01 -2.707053841030934715e-01 7.157937110274664505e+00 -2.707053841030934715e-01 4.041715564163723684e+01
4.439732509823200246e+01 1.426289471717942980e+01 7.099720155185001325e+00 1.426289471717942980e+01 3.663773788231425499e+01 -1.205651014698344292e-01 7.099720155185001325e+00 -1.205651014698344292e-01 3.977787539608019785e+01
4.403855101276850803e+01 1.422619798450265982e+01 7.037665859231350574e+00 1.422619798450265982e+01 3.637914950697537364e+01 1.944598410803781083e-02 7.037665859231350574e+00 1.944598410803781083e-02 3.899447015897398927e+01
4.362688385053115780e+01 1.417100596027424864e+01 6.971808793052129083e+00 1.417100596027424864e+01 3.607641442638144014e+01 1.493105873113160786e-01 6.971808793052129083e+00 1.493105873113160786e-01 3.807184896097343341e+01
4.316465712961289825e+01 1.409833847832741327e+01 6.902390951116236906e+00 1.409833847832741327e+01 3.573053518904647063e+01 2.688212843095146853e-01 6.902390951116236906e+00 2.688212843095146853e-01 3.701467883826445870e+01
4.265397965895701304e+01 1.400944008164506727e+01 6.829775325127021901e+00 1.400944008164506727e+01 3.534197849858906437e+01 3.777015099953193178e-01 6.829775325127021901e+00 3.777015099953193178e-01 3.582754040043697330e+01
4.209709853006042835e+01 1.390572816640219855e+01 6.754445904022285063e+00 1.390572816640219855e+01 3.491131477054305776e+01 4.756574139422083958e-01 6.754445904022285063e+00 4.756574139422083958e-01 3.451567109921072074e+01
4.149520642994843911e+01 1.378886212324269422e+01 6.677076815251105302e+00 1.378886212324269422e+01 3.443797358937460729e+01 5.624297163620749496e-01 6.677076815251105302e+00 5.624297163620749496e-01 3.308283913417287181e+01
4.085281482693411448e+01 1.366051862812964401e+01 6.598082906474453502e+00 1.366051862812964401e+01 3.392484160339130739e+01 6.378109934244330370e-01 6.598082906474453502e+00 6.378109934244330370e-01 3.153780816216144700e+01
4.017122011995798658e+01 1.352246078362217929e+01 6.518242017056652848e+00 1.352246078362217929e+01 3.337150396493219517e+01 7.015765359795899103e-01 6.518242017056652848e+00 7.015765359795899103e-01 2.988496865425506499e+01
5.114562684379266244e+01 1.024510959216419792e+01 -5.602893669603534299e+00 1.024510959216419792e+01 4.221295159504512640e+01 -1.609054873173739963e+01 -5.602893669603534299e+00 -1.609054873173739963e+01 1.957994790179832023e+01
5.111241421959191200e+01 1.024125609830531936e+01 -5.722801265508317137e+00 1.024125609830531936e+01 4.219370140599224328e+01 -1.607484099219604801e+01 -5.722801265508317137e+00 -1.607484099219604801e+01 1.950785473417838034e+01
5.105573502740749348e+01 1.022563475997156424e+01 -5.818119077730651512e+00 1.022563475997156424e+01 4.215853611449977478e+01 -1.603203783395190030e+01 -5.818119077730651512e+00 -1.603203783395190030e+01 1.936869694922071972e+01
5.097465613419733899e+01 1.019840109933661232e+01 -5.888691584096861220e+00 1.019840109933661232e+01 4.210621154317830417e+01 -1.596219109772951406e+01 -5.888691584096861220e+00 -1.596219109772951406e+01 1.916031451673537944e+01
5.086848633030067646e+01 1.015979703978173632e+01 -5.934207740259592967e+00 1.015979703978173632e+01 4.203591552067641146e+01 -1.586547358594408763e+01 -5.934207740259592967e+00 -1.586547358594408763e+01 1.888203350730309538e+01
5.073656896653974258e+01 1.011018546637884974e+01 -5.954442903079091742e+00 1.011018546637884974e+01 4.194669763371051374e+01 -1.574207538125234151e+01 -5.954442903079091742e+00 -1.574207538125234151e+01 1.853312815078004405e+01
5.057805731108008729e+01 1.005003294564898120e+01 -5.949241550381680455e+00 1.005003294564898120e+01 4.183743466658182797e+01 -1.559211744534490229e+01 -5.949241550381680455e+00 -1.559211744534490229e+01 1.811283811653935771e+01
5.039219103329483573e+01 9.979823324354684999e+00 -5.918551841442799777e+00 9.979823324354684999e+00 4.170686516165942948e+01 -1.541582442136153652e+01 -5.918551841442799777e+00 -1.541582442136153652e+01 1.762019571105594196e+01
5.017784691748521908e+01 9.900213251673703141e+00 -5.862408336745488668e+00 9.900213251673703141e+00 4.155339933672350128e+01 -1.521326543026831501e+01 -5.862408336745488668e+00 -1.521326543026831501e+01 1.705381851500821355e+01
4.993424735278285453e+01 9.811893937266821908e+00 -5.781001118946464068e+00 9.811893937266821908e+00 4.137577573414311871e+01 -1.498450959303131924e+01 -5.781001118946464068e+00 -1.498450959303131924e+01 1.641272155462957016e+01
4.556595659737193671e+01 -3.001086555565927849e+00 -1.390788245917063115e+01 -3.001086555565927849e+00 1.644550525272040531e+01 1.859788461431094220e+01 -1.390788245917063115e+01 1.859788461431094220e+01 2.945092480707394245e+01
4.553750489225175357e+01 -3.086686491990825232e+00 -1.395647944044229405e+01 -3.086686491990825232e+00 1.654047833846578541e+01 1.865494540952124680e+01 -1.395647944044229405e+01 1.865494540952124680e+01 2.953682202621982356e+01
4.545884738172280493e+01 -3.159695630821049317e+00 -1.396036160303398432e+01 -3.159695630821049317e+00 1.661067203505608703e+01 1.865999921577799725e+01 -1.396036160303398432e+01 1.865999921577799725e+01 2.950539749388978805e+01
4.533082345229141197e+01 -3.219764227678970414e+00 -1.391963387025899301e+01 -3.219764227678970414e+00 1.665498464770178444e+01 1.861315095639448458e+01 -1.391963387025899301e+01 1.861315095639448458e+01 2.935498992429008069e+01
4.515420254158835434e+01 -3.266664948719129047e+00 -1.383448860152501503e+01 -3.266664948719129047e+00 1.667196473723571160e+01 1.851468042687280757e+01 -1.383448860152501503e+01 1.851468042687280757e+01 2.908526706026196962e+01
4.492964916393113128e+01 -3.300257896190472717e+00 -1.370534549008520386e+01 -3.300257896190472717e+00 1.665989855620748372e+01 1.836497234602836315e+01 -1.370534549008520386e+01 1.836497234602836315e+01 2.869591413186557460e+01
4.465781034641835845e+01 -3.320682967844053923e+00 -1.353274663972488945e+01 -3.320682967844053923e+00 1.661679256166461016e+01 1.816455133042759940e+01 -1.353274663972488945e+01 1.816455133042759940e+01 2.818696611353866999e+01
4.433942055224304823e+01 -3.328167497525332141e+00 -1.331747897529373859e+01 -3.328167497525332141e+00 1.654061823621683658e+01 1.791413435604465221e+01 -1.331747897529373859e+01 1.791413435604465221e+01 2.755837054362459781e+01
4.397498691075278288e+01 -3.323078716830818458e+00 -1.306046931939246747e+01 -3.323078716830818458e+00 1.642903229253404618e+01 1.761454332216695207e+01 -1.306046931939246747e+01 1.761454332216695207e+01 2.681040721762547108e+01
4.356513896182728018e+01 -3.305993703983601595e+00 -1.276274941793508688e+01 -3.305993703983601595e+00 1.627984882825604629e+01 1.726670505139521694e+01 -1.276274941793508688e+01 1.726670505139521694e+01 2.594354829045109412e+01
2.391124669120481627e+01 8.074993619376522602e+00 2.014464046515062279e+01 8.074993619376522602e+00 -2.632269434006977349e+01 9.149024974956144973e+00 2.014464046515062279e+01 9.149024974956144973e+00 -2.964121625352191458e+01
2.376822702043810409e+01 8.011520965286413443e+00 2.014403561456299130e+01 8.011520965286413443e+00 -2.634228783334794954e+01 9.184179624261611607e+00 2.014403561456299130e+01 9.184179624261611607e+00 -2.987102281921114155e+01
2.365083102002021320e+01 7.935163160799148407e+00 2.011494779993954296e+01 7.935163160799148407e+00 -2.630854450208029505e+01 9.199355875369498392e+00 2.011494779993954296e+01 9.199355875369498392e+00 -2.999811475783684855e+01
2.356072661126856360e+01 7.846231795611389614e+00 2.005754198053144677e+01 7.846231795611389614e+00 -2.621988806897781998e+01 9.194498741862746627e+00 2.005754198053144677e+01 9.194498741862746627e+00 -3.002038425674515665e+01
2.349773050612628467e+01 7.745111774642536417e+00 1.997209308842399977e+01 7.745111774642536417e+00 -2.607717998790776903e+01 9.169553237324301165e+00 1.997209308842399977e+01 9.169553237324301165e+00 -2.993821622085548029e+01
2.346132949803417844e+01 7.632242989229052199e+00 1.985894937092523094e+01 7.632242989229052199e+00 -2.588137335676579909e+01 9.124482704142787171e+00 1.985894937092523094e+01 9.124482704142787171e+00 -2.975234380239524157e+01
2.345101038043304342e+01 7.508065330707398566e+00 1.971838576012041955e+01 7.508065330707398566e+00 -2.563351291747600769e+01 9.059268813512522556e+00 1.971838576012041955e+01 9.059268813512522556e+00 -2.946388505851128414e+01
2.346591169945564204e+01 7.373146992053833060e+00 1.955076883212329264e+01 7.373146992053833060e+00 -2.533517494732737418e+01 8.973874907822132485e+00 1.955076883212329264e+01 8.973874907822132485e+00 -2.907459955454945089e+01
2.350533696048591281e+01 7.228092823855990723e+00 1.935642850543619531e+01 7.228092823855990723e+00 -2.498766079152359865e+01 8.868300987071616959e+00 1.935642850543619531e+01 8.868300987071616959e+00 -2.858606356779872115e+01
2.356829640801682046e+01 7.073580991924249162e+00 1.913576801378420811e+01 7.073580991924249162e+00 -2.459280333063326651e+01 8.742528722455293888e+00 1.913576801378420811e+01 8.742528722455293888e+00 -2.800049488374708773e+01
-9.853654746695930555e+00 7.707201168215553899e+00 9.123076664426021054e+00 7.707201168215553899e+00 -1.631239275643222797e+01 -1.406826674723576920e+00 9.123076664426021054e+00 -1.406826674723576920e+00 1.628749478700768805e+01
-9.874914907078263582e+00 7.638649490284558752e+00 9.157718112340482719e+00 7.638649490284558752e+00 -1.630144276841071616e+01 -1.337653461579342062e+00 9.157718112340482719e+00 -1.337653461579342062e+00 1.628403978243996875e+01
-9.910104768416173826e+00 7.558325204196882474e+00 9.185888281858259674e+00 7.558325204196882474e+00 -1.629784152026340749e+01 -1.275920390546551264e+00 9.185888281858259674e+00 -1.275920390546551264e+00 1.623758916547392772e+01
-9.959260891604557742e+00 7.466922966955557683e+00 9.207477490294660782e+00 7.466922966955557683e+00 -1.630173525556988778e+01 -1.221645742072652530e+00 9.207477490294660782e+00 -1.221645742072652530e+00 1.614711923105246427e+01
-1.002254780067045203e+01 7.365137435563618773e+00 9.222302933175203776e+00 7.365137435563618773e+00 -1.631363582685870739e+01 -1.174829516157645859e+00 9.222302933175203776e+00 -1.174829516157645859e+00 1.601215468754192273e+01
-1.010036766545771414e+01 7.253900912840926196e+00 9.230218366920301065e+00 7.253900912840926196e+00 -1.633427445202779893e+01 -1.135435151906634799e+00 9.230218366920301065e+00 -1.135435151906634799e+00 1.583229336509844565e+01
-1.019334202117959087e+01 7.134163982054790409e+00 9.231278632872301770e+00 7.134163982054790409e+00 -1.636474795792405601e+01 -1.103499210214516024e+00 9.231278632872301770e+00 -1.103499210214516024e+00 1.560678576537664419e+01
-1.030223864662890421e+01 7.006913787367417434e+00 9.225556852820995246e+00 7.006913787367417434e+00 -1.640613489094693023e+01 -1.078875447501703055e+00 9.225556852820995246e+00 -1.078875447501703055e+00 1.533490067047860173e+01
-1.042800812507296904e+01 6.873301996968049110e+00 9.213180989898518192e+00 6.873301996968049110e+00 -1.645973316286524124e+01 -1.061435900636058305e+00 9.213180989898518192e+00 -1.061435900636058305e+00 1.501559609489975600e+01
-1.057165588112143517e+01 6.734352315913787024e+00 9.194443531264047564e+00 6.734352315913787024e+00 -1.652698692902741229e+01 -1.051034326037995292e+00 9.194443531264047564e+00 -1.051034326037995292e+00 1.464759240731873469e+01
1.654242388563375243e+01 -1.403512355934686973e+01 -1.185356161157420729e+01 -1.403512355934686973e+01 -1.408683527671046321e+01 5.801818395637821979e+00 -1.185356161157420729e+01 5.801818395637821979e+00 -1.259646541195550640e+01
1.658828281811472038e+01 -1.397212432828106543e+01 -1.177525789333084738e+01 -1.397212432828106543e+01 -1.406137020956586170e+01 5.799982584230538585e+00 -1.177525789333084738e+01 5.799982584230538585e+00 -1.251090932983584558e+01
1.664308451507472952e+01 -1.389047616153334452e+01 -1.166481838728473264e+01 -1.389047616153334452e+01 -1.400127919459080239e+01 5.781006474238414405e+00 -1.166481838728473264e+01 5.781006474238414405e+00 -1.238065760167151907e+01
1.670635639139904427e+01 -1.379081523137356236e+01 -1.152273385490117796e+01 -1.379081523137356236e+01 -1.390719840405513885e+01 5.745199063621093671e+00 -1.152273385490117796e+01 5.745199063621093671e+00 -1.220767327332377761e+01
1.677753498022007506e+01 -1.367388676817496851e+01 -1.134965864480060205e+01 -1.367388676817496851e+01 -1.377990942103325978e+01 5.693032937493320844e+00 -1.134965864480060205e+01 5.693032937493320844e+00 -1.199306510217722277e+01
1.685580234576229941e+01 -1.354061776581649212e+01 -1.114651975086193225e+01 -1.354061776581649212e+01 -1.362070276641543387e+01 5.624944328268708382e+00 -1.114651975086193225e+01 5.624944328268708382e+00 -1.173825084357609150e+01
1.694021331779622841e+01 -1.339195339452762390e+01 -1.091424416696408883e+01 -1.339195339452762390e+01 -1.343101437189646852e+01 5.541442173763137191e+00 -1.091424416696408883e+01 5.541442173763137191e+00 -1.144501177987596741e+01
1.702951372813272712e+01 -1.322898423534239321e+01 -1.065379523968713471e+01 -1.322898423534239321e+01 -1.321258916713080822e+01 5.442962706390220617e+00 -1.065379523968713471e+01 5.442962706390220617e+00 -1.111554724949547612e+01
1.712254029033549330e+01 -1.305283722199596497e+01 -1.036615449196169969e+01 -1.305283722199596497e+01 -1.296724478717517037e+01 5.330051216666971570e+00 -1.036615449196169969e+01 5.330051216666971570e+00 -1.075212929625551617e+01
1.721778436730745554e+01 -1.286473016997634211e+01 -1.005230344671840470e+01 -1.286473016997634211e+01 -1.269708968869534971e+01 5.203162113357570284e+00 -1.005230344671840470e+01 5.203162113357570284e+00 -1.035739349098832207e+01
4.998635316939630968e+01 4.165335979753549189e+00 -1.640077827904422847e+01 4.165335979753549189e+00 4.007873720018248775e+01 -5.518186316914331258e+00 -1.640077827904422847e+01 -5.518186316914331258e+00 4.378720203307653236e+01
4.983365582346260680e+01 4.151476288219476452e+00 -1.619836831744675365e+01 4.151476288219476452e+00 4.025105477941689713e+01 -5.664297730022284760e+00 -1.619836831744675365e+01 -5.664297730022284760e+00 4.378548246837006985e+01
4.961833193091962357e+01 4.129586229506234218e+00 -1.594925497842181095e+01 4.129586229506234218e+00 4.036633439733801509e+01 -5.804940927363695380e+00 -1.594925497842181095e+01 -5.804940927363695380e+00 4.361861590925513354e+01
4.934179153482663338e+01 4.099906542672724363e+00 -1.565448719644034270e+01 4.099906542672724363e+00 4.042278770665112120e+01 -5.939995539409107295e+00 -1.565448719644034270e+01 -5.939995539409107295e+00 4.328601770373153812e+01
4.900587456941956077e+01 4.062815531954369952e+00 -1.531552660150283707e+01 4.062815531954369952e+00 4.041828244712019114e+01 -6.069152044511359811e+00 -1.531552660150283707e+01 -6.069152044511359811e+00 4.278844446027010662e+01
4.861238657764018711e+01 4.018915044998432329e+00 -1.493398958443336610e+01 4.018915044998432329e+00 4.035049720639151616e+01 -6.192204094905678247e+00 -1.493398958443336610e+01 -6.192204094905678247e+00 4.212679035251820636e+01
4.816313310243030088e+01 3.968806929452171506e+00 -1.451154412299720242e+01 3.968806929452171506e+00 4.021719655034669216e+01 -6.308876560239027320e+00 -1.451154412299720242e+01 -6.308876560239027320e+00 4.130256859741753317e+01
4.766022920837884413e+01 3.913213402492301540e+00 -1.405008173837144270e+01 3.913213402492301540e+00 4.001652334910274078e+01 -6.418877114511309045e+00 -1.405008173837144270e+01 -6.418877114511309045e+00 4.031773949873344520e+01
4.710592752525128901e+01 3.852942659530858460e+00 -1.355152834302733389e+01 3.852942659530858460e+00 3.974687840748266154e+01 -6.522016605604814110e+00 -1.355152834302733389e+01 -6.522016605604814110e+00 3.917524351211397970e+01
4.650236031328362429e+01 3.788820091626944109e+00 -1.301798180590675003e+01 3.788820091626944109e+00 3.940688607372128160e+01 -6.618088685754765166e+00 -1.301798180590675003e+01 -6.618088685754765166e+00 3.787784913673655041e+01
-3.254219862601855340e+01 -8.628475921468654164e+00 -2.855237649610122830e+00 -8.628475921468654164e+00 -1.098164724922204805e+01 6.105220871086707746e+00 -2.855237649610122830e+00 6.105220871086707746e+00 -4.130380472042452311e+01
-3.253375156524271006e+01 -8.624243026268338497e+00 -2.966641457802460913e+00 -8.624243026268338497e+00 -1.092749990398263193e+01 6.169163810086144117e+00 -2.966641457802460913e+00 6.169163810086144117e+00 -4.121706782806764835e+01
-3.246780455639179763e+01 -8.614484891757880902e+00 -3.071621004695207269e+00 -8.614484891757880902e+00 -1.082984364037892355e+01 6.217935753013657418e+00 -3.071621004695207269e+00 6.217935753013657418e+00 -4.099072031259952098e+01
-3.234446997721450145e+01 -8.599220247562056940e+00 -3.170419775410504126e+00 -8.599220247562056940e+00 -1.068897813240740824e+01 6.251742725741829432e+00 -3.170419775410504126e+00 6.251742725741829432e+00 -4.062672878462206683e+01
-3.216436590532856599e+01 -8.578355445556969272e+00 -3.262813014450988813e+00 -8.578355445556969272e+00 -1.050561510580972957e+01 6.270697106019341938e+00 -3.262813014450988813e+00 6.270697106019341938e+00 -4.012689128811417305e+01
-3.192835390347389080e+01 -8.551871756117835233e+00 -3.348519777444959988e+00 -8.551871756117835233e+00 -1.028072850107445646e+01 6.274855082720535826e+00 -3.348519777444959988e+00 6.274855082720535826e+00 -3.949353029654858460e+01
-3.163765139726116615e+01 -8.519712990370317485e+00 -3.427184201521594087e+00 -8.519712990370317485e+00 -1.001566685118575961e+01 6.264403952093211991e+00 -3.427184201521594087e+00 6.264403952093211991e+00 -3.872986730538748645e+01
-3.129355073080022720e+01 -8.481860418689631587e+00 -3.498450423810068877e+00 -8.481860418689631587e+00 -9.711928526126051509e+00 6.239568469634731329e+00 -3.498450423810068877e+00 6.239568469634731329e+00 -3.783940475446477336e+01
-3.089745662594959086e+01 -8.438220392951880200e+00 -3.561887662940440347e+00 -8.438220392951880200e+00 -9.371143003251201975e+00 6.200535931592896510e+00 -3.561887662940440347e+00 6.200535931592896510e+00 -3.682615078348337789e+01
-3.045096110081557228e+01 -8.388830372406621549e+00 -3.616990219043644927e+00 -8.388830372406621549e+00 -8.995033408040988832e+00 6.147606011964190209e+00 -3.616990219043644927e+00 6.147606011964190209e+00 -3.569454431351621793e+01
3.266312098836682765e+01 -2.768412095015755359e-01 1.821493384495601120e+01 -2.768412095015755359e-01 3.382397435876324465e+00 -1.858423835465809759e+01 1.821493384495601120e+01 -1.858423835465809759e+01 2.960459289917293191e+01
3.272632666314019190e+01 -2.919744640328617580e-01 1.808783220660610525e+01 -2.919744640328617580e-01 3.507888400352136227e+00 -1.852517441270382648e+01 1.808783220660610525e+01 -1.852517441270382648e+01 2.985127379788934832e+01
3.274331838752619461e+01 -3.042403650740094778e-01 1.793745544578995776e+01 -3.042403650740094778e-01 3.618989498238549096e+00 -1.843403859097097097e+01 1.793745544578995776e+01 -1.843403859097097097e+01 3.000450021248273202e+01
3.271368906812809740e+01 -3.136035131992146452e-01 1.776398055963658251e+01 -3.136035131992146452e-01 3.714213953651789080e+00 -1.831065389233050666e+01 1.776398055963658251e+01 -1.831065389233050666e+01 3.006195348056291294e+01
3.263710241040075744e+01 -3.201524069729876354e-01 1.756797393895885051e+01 -3.201524069729876354e-01 3.791844894440351332e+00 -1.815512651505985176e+01 1.756797393895885051e+01 -1.815512651505985176e+01 3.002227072423642795e+01
3.251332831807644652e+01 -3.239932446727409321e-01 1.735001967428252101e+01 -3.239932446727409321e-01 3.849917652472105711e+00 -1.796768655542672732e+01 1.735001967428252101e+01 -1.796768655542672732e+01 2.988447845929366764e+01
3.234218979402614735e+01 -3.252322245758871855e-01 1.711077265498498434e+01 -3.252322245758871855e-01 3.886131265069780572e+00 -1.774861720883756888e+01 1.711077265498498434e+01 -1.774861720883756888e+01 2.964742620439598397e+01
3.212358063997244528e+01 -3.240817432372514184e-01 1.685094086958231685e+01 -3.240817432372514184e-01 3.898167069843200494e+00 -1.749829016926332415e+01 1.685094086958231685e+01 -1.749829016926332415e+01 2.931024667361118574e+01
3.185755395505404408e+01 -3.207364974987565454e-01 1.657125000630350442e+01 -3.207364974987565454e-01 3.883494007847369200e+00 -1.721711253010073506e+01 1.657125000630350442e+01 -1.721711253010073506e+01 2.887205488129416864e+01
3.154428673639997172e+01 -3.154973824797381310e-01 1.627247885251624027e+01 -3.154973824797381310e-01 3.839634119275991964e+00 -1.690550908445945666e+01 1.627247885251624027e+01 -1.690550908445945666e+01 2.833214283892884566e+01
2.297646849251755086e+01 3.775944388876733004e+00 3.140108794418312144e+00 3.775944388876733004e+00 -1.032801085245891493e+01 -4.356339130648564151e+00 3.140108794418312144e+00 -4.356339130648564151e+00 8.384795487466714548e+00