-3.507188565083830395e-02 -1.080560418176835114e-03 0.000000000000000000e+00 -1.080560418176832512e-03 -3.631960934814068565e-02 0.000000000000000000e+00 0.000000000000000000e+00 0.000000000000000000e+00 3.867400971487242600e-01
-6.134482131843599362e-02 -4.410063191039799088e-03 -2.859133358815982295e-02 -4.410063191039797353e-03 -1.076999176563903614e-02 -1.122194983069429823e-02 -2.859133358815982295e-02 -1.122194983069429823e-02 3.856551200210802111e-01
-7.494178148358097979e-02 -7.885829149372540828e-03 -5.527453373042877371e-02 -7.885829149372540828e-03 2.666029930342040874e-02 -2.358732180883334889e-02 -5.527453373042877371e-02 -2.358732180883334889e-02 4.015138690368108554e-01
-7.795958880876345531e-02 -1.157525781976665585e-02 -8.008092101864451584e-02 -1.157525781976665412e-02 7.342076782478580699e-02 -3.707803298229343791e-02 -8.008092101864451584e-02 -3.707803298229343791e-02 4.297232743555563506e-01
-7.117356151816457699e-02 -1.538308912910960752e-02 -1.030351972247876696e-01 -1.538308912910961272e-02 1.282614413843693735e-01 -5.170070217093157561e-02 -1.030351972247876696e-01 -5.170070217093157561e-02 4.686377873337232436e-01
-5.462116381356899725e-02 -1.939359422801825023e-02 -1.243270594073313251e-01 -1.939359422801822941e-02 1.907134615243885889e-01 -6.724140575422593580e-02 -1.243270594073313251e-01 -6.724140575422593580e-02 5.176245046468523903e-01
-2.979279031249708679e-02 -2.336581203721035949e-02 -1.439540849100705289e-01 -2.336581203721036989e-02 2.593558675698521832e-01 -8.365978166427705254e-02 -1.439540849100705289e-01 -8.365978166427705254e-02 5.741337300449803616e-01
2.479569248327918168e-03 -2.741468515032464623e-02 -1.622674190630763180e-01 -2.741468515032463582e-02 3.325975336724117937e-01 -1.007322156557436538e-01 -1.622674190630763180e-01 -1.007322156557436538e-01 6.363752512674945017e-01
3.998737205308456472e-02 -3.124928676481266571e-02 -1.793164654103099609e-01 -3.124928676481265530e-02 4.085240895628413638e-01 -1.184719453683396595e-01 -1.793164654103099609e-01 -1.184719453683396595e-01 7.011122198835899599e-01
8.184857567231862419e-02 -3.501345740992503619e-02 -1.954980518720836058e-01 -3.501345740992500150e-02 4.853774666599945942e-01 -1.363366561771800489e-01 -1.954980518720836058e-01 -1.363366561771800489e-01 7.662650963986156194e-01
5.416570031999128787e+00 -1.193514185999387855e+01 -1.982919100889237451e-01 -1.193514185999387855e+01 1.908440886322230412e+01 -1.719570854978683272e+01 -1.982919100889237451e-01 -1.719570854978683272e+01 4.303448434038027415e+01
5.193199193346044851e+00 -1.184558438576440942e+01 -2.194007467814432510e-01 -1.184558438576440942e+01 1.895144623277118612e+01 -1.705889989283506125e+01 -2.194007467814432510e-01 -1.705889989283506125e+01 4.258162801264680297e+01
4.917437320886841157e+00 -1.174014654404837188e+01 -2.414666591930190731e-01 -1.174014654404837188e+01 1.874535592793439776e+01 -1.687269549460533113e+01 -2.414666591930190731e-01 -1.687269549460533113e+01 4.195144682252151114e+01
4.590861817195520445e+00 -1.162021077755107612e+01 -2.641351748351117856e-01 -1.162021077755107612e+01 1.846744949691953153e+01 -1.663798153631898913e+01 -2.641351748351117856e-01 -1.663798153631898913e+01 4.114920468645920693e+01
4.214022114629314864e+00 -1.148731904159766515e+01 -2.869100322237663203e-01 -1.148731904159766515e+01 1.811804596496627440e+01 -1.635610501343247947e+01 -2.869100322237663203e-01 -1.635610501343247947e+01 4.017828681672544633e+01
3.789169113490452823e+00 -1.134338548762625543e+01 -3.094367588704433070e-01 -1.134338548762625543e+01 1.769939623237685211e+01 -1.602901552463277568e+01 -3.094367588704433070e-01 -1.602901552463277568e+01 3.904521550710934719e+01
3.317277613122416202e+00 -1.119044833244594273e+01 -3.310773042957718681e-01 -1.119044833244594273e+01 1.721268778198786720e+01 -1.565885762847553764e+01 -3.310773042957718681e-01 -1.565885762847553764e+01 3.775465207083521335e+01
2.801094775311385288e+00 -1.103054579286583348e+01 -3.517784976264710650e-01 -1.103054579286583348e+01 1.666130582606487565e+01 -1.524834303949809389e+01 -3.517784976264710650e-01 -1.524834303949809389e+01 3.631657490845541503e+01
2.242233449880213669e+00 -1.086599966368585690e+01 -3.708491175098892478e-01 -1.086599966368585690e+01 1.604728858141698211e+01 -1.480041387935531638e+01 -3.708491175098892478e-01 -1.480041387935531638e+01 3.473803802249188522e+01
1.642802748135711699e+00 -1.069875954359298298e+01 -3.884486765658689555e-01 -1.069875954359298298e+01 1.537398581306087131e+01 -1.431840218943947995e+01 -3.884486765658689555e-01 -1.431840218943947995e+01 3.302912615524358131e+01
-1.183714662597733458e+01 2.283051846600524293e+00 -1.182277144298546823e+01 2.283051846600524293e+00 1.792861695887064499e+01 1.676169667360597870e+01 -1.182277144298546823e+01 1.676169667360597870e+01 2.773547088588467702e+01
-1.179730529483883217e+01 2.421581231761822384e+00 -1.176738840339384318e+01 2.421581231761822384e+00 1.798696117847932285e+01 1.671695593553017289e+01 -1.176738840339384318e+01 1.671695593553017289e+01 2.785327201092662008e+01
-1.177158789505438641e+01 2.558531320914027685e+00 -1.168544447637654926e+01 2.558531320914027685e+00 1.798421535700896357e+01 1.662505167572825826e+01 -1.168544447637654926e+01 1.662505167572825826e+01 2.785761507495162803e+01
-1.176047898335405684e+01 2.692879160960339302e+00 -1.157758573757367238e+01 2.692879160960339302e+00 1.792043333409624850e+01 1.648682738184144014e+01 -1.157758573757367238e+01 1.648682738184144014e+01 2.774889490196197528e+01
-1.176485794047018096e+01 2.823278760983916946e+00 -1.144461978153531767e+01 2.823278760983916946e+00 1.779606377338011924e+01 1.630350341896766508e+01 -1.144461978153531767e+01 1.630350341896766508e+01 2.752712943850321281e+01
-1.178551441440730407e+01 2.948617435160171940e+00 -1.128721063044712558e+01 2.948617435160171940e+00 1.761101694213279245e+01 1.607637193838710132e+01 -1.128721063044712558e+01 1.607637193838710132e+01 2.719276734821429642e+01
-1.182417127353898323e+01 3.067549192572262218e+00 -1.110627355813254979e+01 3.067549192572262218e+00 1.736613632799547347e+01 1.580735322047443603e+01 -1.110627355813254979e+01 1.580735322047443603e+01 2.674604193618747061e+01
-1.188231808114652388e+01 3.179122866305620576e+00 -1.090247258677723075e+01 3.179122866305620576e+00 1.706142193096818005e+01 1.549806245432988128e+01 -1.090247258677723075e+01 1.549806245432988128e+01 2.618772490388173324e+01
-1.196196485033240897e+01 3.282225770535658338e+00 -1.067677682984129284e+01 3.282225770535658338e+00 1.669848894015111540e+01 1.515076090469372794e+01 -1.067677682984129284e+01 1.515076090469372794e+01 2.551864179239274222e+01
-1.206451141165015351e+01 3.376247722713407118e+00 -1.042976057678259139e+01 3.376247722713407118e+00 1.627751682099985331e+01 1.476738679848623370e+01 -1.042976057678259139e+01 1.476738679848623370e+01 2.473985144790840707e+01
-3.221278659525764532e+00 2.067769098475512379e+01 1.190829230495978841e+01 2.067769098475512379e+01 -6.752073697867274404e+00 7.284489501427096059e+00 1.190829230495978841e+01 7.284489501427096059e+00 -2.415022842708396311e+01
-3.288458094927797060e+00 2.057178307200378597e+01 1.196799718087340203e+01 2.057178307200378597e+01 -6.762552737150056004e+00 7.291506060946861822e+00 1.196799718087340203e+01 7.291506060946861822e+00 -2.421171034287594992e+01
-3.374049129069682795e+00 2.045708155985431276e+01 1.200819125812239463e+01 2.045708155985431276e+01 -6.788896895346980820e+00 7.285607021350609891e+00 1.200819125812239463e+01 7.285607021350609891e+00 -2.438886473075096006e+01
-3.419684245946275070e+00 2.032570884884586704e+01 1.202691429684093372e+01 2.032570884884586704e+01 -6.768744896726246019e+00 7.265198542747429045e+00 1.202691429684093372e+01 7.265198542747429045e+00 -2.443893328732411518e+01
-3.428551125339398098e+00 2.017911221887938922e+01 1.202423957702399804e+01 2.017911221887938922e+01 -6.705870661029552871e+00 7.230701985108479057e+00 1.202423957702399804e+01 7.230701985108479057e+00 -2.439034865064939694e+01
-3.401107767217706357e+00 2.001793286991100018e+01 1.200007549867786238e+01 2.001793286991100018e+01 -6.600732188225553188e+00 7.182117348433761705e+00 1.200007549867786238e+01 7.182117348433761705e+00 -2.424215818079201057e+01
-3.338471691504712346e+00 1.984273872190182786e+01 1.195467854178497014e+01 1.984273872190182786e+01 -6.454282118249047961e+00 7.120232392669358923e+00 1.195467854178497014e+01 7.120232392669358923e+00 -2.399626715762154561e+01
-3.240881058184115648e+00 1.965433585479670242e+01 1.188770062636914560e+01 1.965433585479670242e+01 -6.267271571048625312e+00 7.044717357837840588e+00 1.188770062636914560e+01 7.044717357837840588e+00 -2.365317022110415834e+01
-3.110662507096674467e+00 1.945340210854922702e+01 1.179950815240531092e+01 1.945340210854922702e+01 -6.041276066516453547e+00 6.956708083861466996e+00 1.179950815240531092e+01 6.956708083861466996e+00 -2.321698937095772308e+01
-2.947724438248657819e+00 1.924061532311301193e+01 1.168949655993484171e+01 1.924061532311301193e+01 -5.777229924588585419e+00 6.855563370784121702e+00 1.168949655993484171e+01 6.855563370784121702e+00 -2.268702844722987777e+01
-1.985093185796680970e+01 2.721875869980586504e+00 -1.995992376226639919e+01 2.721875869980586504e+00 -2.537425471503031460e+01 4.871571980402642055e+00 -1.995992376226639919e+01 4.871571980402642055e+00 4.189716112191094410e+00
-1.990341218107543142e+01 2.690605881828124879e+00 -1.977964516114377957e+01 2.690605881828124879e+00 -2.536478680613967995e+01 4.947019379374874681e+00 -1.977964516114377957e+01 4.947019379374874681e+00 4.117948623119713325e+00
-1.995101061366232642e+01 2.658522245255374283e+00 -1.956079222809565010e+01 2.658522245255374283e+00 -2.534529622807185234e+01 5.016161003089869119e+00 -1.956079222809565010e+01 5.016161003089869119e+00 4.043407332615530869e+00
-1.999398604386121292e+01 2.626346148634863376e+00 -1.930353139120797934e+01 2.626346148634863376e+00 -2.531637472513249776e+01 5.078774947433000619e+00 -1.930353139120797934e+01 5.078774947433000619e+00 3.965463512353776476e+00
-2.003298569200642021e+01 2.594465924167185022e+00 -1.900858383885329772e+01 2.594465924167185022e+00 -2.527892840578966016e+01 5.134250976089053786e+00 -1.900858383885329772e+01 5.134250976089053786e+00 3.883543910038337543e+00
-2.006941495082389793e+01 2.563528792186659633e+00 -1.867633790323219500e+01 2.563528792186659633e+00 -2.523473250296034109e+01 5.182015836761914684e+00 -1.867633790323219500e+01 5.182015836761914684e+00 3.796076704857294093e+00
-2.010414294476258590e+01 2.533867608865222998e+00 -1.830762572477451400e+01 2.533867608865222998e+00 -2.518517391736093458e+01 5.221403817107712619e+00 -1.830762572477451400e+01 5.221403817107712619e+00 3.702044836285284024e+00
-2.013864903458664912e+01 2.506222054584956282e+00 -1.790226238338473408e+01 2.506222054584956282e+00 -2.513274907028095839e+01 5.251675236744365982e+00 -1.790226238338473408e+01 5.251675236744365982e+00 3.599432675281137861e+00
-2.017520773747098772e+01 2.480277765183475758e+00 -1.746065470327300062e+01 2.480277765183475758e+00 -2.507897430650369586e+01 5.272053431270689039e+00 -1.746065470327300062e+01 5.272053431270689039e+00 3.486169116775029497e+00
-2.021579769843766883e+01 2.456792913052413319e+00 -1.698330196869721576e+01 2.456792913052413319e+00 -2.502699326765297272e+01 5.281854196333259033e+00 -1.698330196869721576e+01 5.281854196333259033e+00 3.359628295410572729e+00
-1.970521855838918768e+01 6.537917968900457844e+00 6.592111183106919903e+00 6.537917968900457844e+00 1.192695067879543736e+01 -3.090228385588921878e+00 6.592111183106919903e+00 -3.090228385588921878e+00 8.557848510864291214e+00
-1.978650837969887988e+01 6.390192490415973481e+00 6.474366087180428941e+00 6.390192490415973481e+00 1.209237782296449382e+01 -2.975475886832466443e+00 6.474366087180428941e+00 -2.975475886832466443e+00 8.653267018207060346e+00
-1.985047741132746069e+01 6.237606308649249698e+00 6.348386814798203659e+00 6.237606308649249698e+00 1.223703815646875981e+01 -2.851963239996452515e+00 6.348386814798203659e+00 -2.851963239996452515e+00 8.730131423095610188e+00
-1.989757907708856166e+01 6.081265777705573861e+00 6.214209639865336143e+00 6.081265777705573861e+00 1.235915425795875677e+01 -2.720288964514887109e+00 6.214209639865336143e+00 -2.720288964514887109e+00 8.781676642230406671e+00
-1.992823052689074714e+01 5.922567442930959380e+00 6.071852699334370662e+00 5.922567442930959380e+00 1.245683988436973699e+01 -2.581160401537051285e+00 6.071852699334370662e+00 -2.581160401537051285e+00 8.806560541123065633e+00
-1.994364693655456833e+01 5.762962260529062242e+00 5.921207171490034504e+00 5.762962260529062242e+00 1.252779164272839907e+01 -2.435266755259680505e+00 5.921207171490034504e+00 -2.435266755259680505e+00 8.802370905085014741e+00
-1.994491652323276298e+01 5.603701680225531945e+00 5.761982865091595407e+00 5.603701680225531945e+00 1.256979682482417005e+01 -2.283369777689692626e+00 5.761982865091595407e+00 -2.283369777689692626e+00 8.767003847620959078e+00
-1.993383484522735927e+01 5.446182247366387230e+00 5.593708219372867774e+00 5.446182247366387230e+00 1.258053390073120781e+01 -2.126031714356003910e+00 5.593708219372867774e+00 -2.126031714356003910e+00 8.697811373659227741e+00
-1.991201609131491779e+01 5.291691685582367910e+00 5.415820988804934011e+00 5.291691685582367910e+00 1.255773575138130127e+01 -1.963796673834984130e+00 5.415820988804934011e+00 -1.963796673834984130e+00 8.592399405463792661e+00
-1.988136464151273586e+01 5.141281938121125883e+00 5.227523147475786836e+00 5.141281938121125883e+00 1.249893575122823819e+01 -1.797063669082638260e+00 5.227523147475786836e+00 -1.797063669082638260e+00 8.447920441484983556e+00
-4.364826583399798210e+01 4.395371790902149023e+00 -1.348694369276340588e+01 4.395371790902149023e+00 -2.496217497877110603e+01 6.550515350697924788e+00 -1.348694369276340588e+01 6.550515350697924788e+00 -3.904772439136313267e+01
-4.367625471139793092e+01 4.484682271055122627e+00 -1.351203324840154174e+01 4.484682271055122627e+00 -2.502163949961134293e+01 6.690762934744636681e+00 -1.351203324840154174e+01 6.690762934744636681e+00 -3.918306397321175183e+01
-4.363894252480314861e+01 4.570032239781833816e+00 -1.352448327714342646e+01 4.570032239781833816e+00 -2.502851828261485068e+01 6.822312553505922139e+00 -1.352448327714342646e+01 6.822312553505922139e+00 -3.916348881386568337e+01
-4.353769366092507909e+01 4.651592245421213079e+00 -1.352418008009644090e+01 4.651592245421213079e+00 -2.498400516615414091e+01 6.945713751629444488e+00 -1.352418008009644090e+01 6.945713751629444488e+00 -3.899180348600955170e+01
-4.337292501570333059e+01 4.729040141110838036e+00 -1.351064991187466546e+01 4.729040141110838036e+00 -2.488857389561512790e+01 7.060852830222584586e+00 -1.351064991187466546e+01 7.060852830222584586e+00 -3.866908812912325288e+01
-4.314583042751041120e+01 4.802186428696341380e+00 -1.348309688022976616e+01 4.802186428696341380e+00 -2.474358885770924843e+01 7.167578190761846990e+00 -1.348309688022976616e+01 7.167578190761846990e+00 -3.819784411884442221e+01
-4.285803958047387141e+01 4.870936359100539903e+00 -1.344080089217514207e+01 4.870936359100539903e+00 -2.455064183693318824e+01 7.265643485646556599e+00 -1.344080089217514207e+01 7.265643485646556599e+00 -3.758100867656573030e+01
-4.251008306942594572e+01 4.934854086568389420e+00 -1.338264390860003594e+01 4.934854086568389420e+00 -2.431086982221314230e+01 7.354726568014289256e+00 -1.338264390860003594e+01 7.354726568014289256e+00 -3.682091262958591216e+01
-4.210391272535660079e+01 4.994091209623385375e+00 -1.330750789039368343e+01 4.994091209623385375e+00 -2.402569404970686406e+01 7.434846387680482671e+00 -1.330750789039368343e+01 7.434846387680482671e+00 -3.592115644283791198e+01
-4.164076028626922010e+01 5.048060283986989916e+00 -1.321410425010639145e+01 5.048060283986989916e+00 -2.369746429652849784e+01 7.505188102581361598e+00 -1.321410425010639145e+01 7.505188102581361598e+00 -3.488494263513053539e+01
-1.749895223806366928e+01 -1.873870313358207440e+01 5.670110381459726234e+00 -1.873870313358207440e+01 -1.568076441257703912e+01 -1.077099856028318037e+01 5.670110381459726234e+00 -1.077099856028318037e+01 -1.693381930197431018e+01
-1.765928479294593956e+01 -1.875258073498561728e+01 5.610973296012093492e+00 -1.875258073498561728e+01 -1.589497906784213299e+01 -1.067731549907499478e+01 5.610973296012093492e+00 -1.067731549907499478e+01 -1.746220434954708622e+01
-1.778879056924380464e+01 -1.874882453087239398e+01 5.542565972826894338e+00 -1.874882453087239398e+01 -1.607322298026924301e+01 -1.056464787914676151e+01 5.542565972826894338e+00 -1.056464787914676151e+01 -1.791500272814189643e+01
-1.788787664326510551e+01 -1.872798962529854094e+01 5.465721067988339676e+00 -1.872798962529854094e+01 -1.621614377125720097e+01 -1.043316223171532364e+01 5.465721067988339676e+00 -1.043316223171532364e+01 -1.829130776780037593e+01
-1.795685757397498250e+01 -1.869044608763482174e+01 5.381215727175030494e+00 -1.869044608763482174e+01 -1.632433355179922430e+01 -1.028315461227728811e+01 5.381215727175030494e+00 -1.028315461227728811e+01 -1.859086041996299699e+01
-1.799636247930373756e+01 -1.863661949765761250e+01 5.289734578722872449e+00 -1.863661949765761250e+01 -1.639882851613344528e+01 -1.011469903470681153e+01 5.289734578722872449e+00 -1.011469903470681153e+01 -1.881421578868588895e+01
-1.800711299452434844e+01 -1.856689842820621195e+01 5.191740209345319101e+00 -1.856689842820621195e+01 -1.644084989318337264e+01 -9.927925023283657779e+00 5.191740209345319101e+00 -9.927925023283657779e+00 -1.896220653005327605e+01
-1.798990476878395484e+01 -1.848181947986822138e+01 5.087750716161434816e+00 -1.848181947986822138e+01 -1.645165591880960321e+01 -9.722758564133672010e+00 5.087750716161434816e+00 -9.722758564133672010e+00 -1.903609087992574089e+01
-1.794603304488022033e+01 -1.838182673588855565e+01 4.977969637325138308e+00 -1.838182673588855565e+01 -1.643287489824347247e+01 -9.499088636445630840e+00 4.977969637325138308e+00 -9.499088636445630840e+00 -1.903757115740878447e+01
-1.787623796155466849e+01 -1.826732727257505573e+01 4.862545000584733934e+00 -1.826732727257505573e+01 -1.638574656387703854e+01 -9.256656191659995869e+00 4.862545000584733934e+00 -9.256656191659995869e+00 -1.896777607408323263e+01
-1.734425392521619713e+01 -1.305179296804398170e+01 -1.267957361081746370e+01 -1.305179296804398170e+01 5.303749323314980169e-01 1.374544778223394825e+00 -1.267957361081746370e+01 1.374544778223394825e+00 -2.375187810336331395e+01
-1.724911446649551294e+01 -1.304980936542972714e+01 -1.240302634634693923e+01 -1.304980936542972714e+01 4.944129516027147009e-01 1.457525487586337931e+00 -1.240302634634693923e+01 1.457525487586337931e+00 -2.367890724052600504e+01
-1.710557877732521703e+01 -1.303790774974420685e+01 -1.210695528947871402e+01 -1.303790774974420685e+01 4.983066900677310396e-01 1.537714459936627920e+00 -1.210695528947871402e+01 1.537714459936627920e+00 -2.350335840916455865e+01
-1.691495089275727182e+01 -1.301614322106003563e+01 -1.179110330654057037e+01 -1.301614322106003563e+01 5.410092463468020307e-01 1.615148428656009827e+00 -1.179110330654057037e+01 1.615148428656009827e+00 -2.322706827836625010e+01
-1.667901238180632362e+01 -1.298473617966768501e+01 -1.145594793149519930e+01 -1.298473617966768501e+01 6.218777862593825034e-01 1.689662093526629549e+00 -1.145594793149519930e+01 1.689662093526629549e+00 -2.285218575096319071e+01
-1.639963664694139922e+01 -1.294407232607548508e+01 -1.110185649816005515e+01 -1.294407232607548508e+01 7.395715413717638409e-01 1.761090154330632540e+00 -1.110185649816005515e+01 1.761090154330632540e+00 -2.238183316440373360e+01
-1.607904605775809515e+01 -1.289429859381041865e+01 -1.072912287358910177e+01 -1.289429859381041865e+01 8.929150434680923620e-01 1.829065277250564447e+00 -1.072912287358910177e+01 1.829065277250564447e+00 -2.181909612275450527e+01
-1.571970175083335342e+01 -1.283600271698040984e+01 -1.033791235800019237e+01 -1.283600271698040984e+01 1.079612456189278147e+00 1.893440528759443575e+00 -1.033791235800019237e+01 1.893440528759443575e+00 -2.116797856462575567e+01
-1.532492809721514071e+01 -1.276916632889458647e+01 -9.928353518229439345e+00 -1.276916632889458647e+01 1.298047510738521426e+00 1.953848575039815572e+00 -9.928353518229439345e+00 1.953848575039815572e+00 -2.043443129786024315e+01
-1.489696583318992040e+01 -1.269468939740571223e+01 -9.500446354276839145e+00 -1.269468939740571223e+01 1.545557036939278595e+00 2.010142482564698074e+00 -9.500446354276839145e+00 2.010142482564698074e+00 -1.962040119169047969e+01
-5.096337045245406472e+01 -5.679460477200554136e-01 -2.055412999188189005e+01 -5.679460477200554136e-01 -5.067067067479964493e+01 -7.819171399778468867e+00 -2.055412999188189005e+01 -7.819171399778468867e+00 -5.071671616596341181e+01
-5.091240466059379344e+01 -5.601781714236011567e-01 -2.051840938367575262e+01 -5.601781714236011567e-01 -5.062784081322492824e+01 -7.796022740989783983e+00 -2.051840938367575262e+01 -7.796022740989783983e+00 -5.059122912693989349e+01
-5.079456927029121260e+01 -5.541730800223522158e-01 -2.045998565572037364e+01 -5.541730800223522158e-01 -5.051678536482698689e+01 -7.763169079646177195e+00 -2.045998565572037364e+01 -7.763169079646177195e+00 -5.028001042225452011e+01
-5.061083284467558485e+01 -5.500082585666473678e-01 -2.037849075402665022e+01 -5.500082585666473678e-01 -5.033812421000854442e+01 -7.720184247970784952e+00 -2.037849075402665022e+01 -7.720184247970784952e+00 -4.978342810589640521e+01
-5.036282256980400263e+01 -5.477224495816558347e-01 -2.027344039702996525e+01 -5.477224495816558347e-01 -5.009290339694916128e+01 -7.667242587326870584e+00 -2.027344039702996525e+01 -7.667242587326870584e+00 -4.910487214881786855e+01
-5.005135203870503346e+01 -5.476837070564863907e-01 -2.014438904569086830e+01 -5.476837070564863907e-01 -4.978253702781751144e+01 -7.604363468977019203e+00 -2.014438904569086830e+01 -7.604363468977019203e+00 -4.824726761166918010e+01
-4.967853271900039402e+01 -5.497951746782159255e-01 -1.999098801728283448e+01 -5.497951746782159255e-01 -4.940785806690474402e+01 -7.531391922820551699e+00 -1.999098801728283448e+01 -7.531391922820551699e+00 -4.721493428600673070e+01
-4.924614676684789316e+01 -5.542311938101062152e-01 -1.981238497625214023e+01 -5.542311938101062152e-01 -4.897146226339721409e+01 -7.448637889058825401e+00 -1.981238497625214023e+01 -7.448637889058825401e+00 -4.601379977818144340e+01
-4.875700301532229020e+01 -5.610305069773268150e-01 -1.960844432376068980e+01 -5.610305069773268150e-01 -4.847460874936291475e+01 -7.355617086127221427e+00 -1.960844432376068980e+01 -7.355617086127221427e+00 -4.464969483823128371e+01
-4.821387155497319554e+01 -5.700962578669541703e-01 -1.937831372425476673e+01 -5.700962578669541703e-01 -4.792177228645889642e+01 -7.253239963367219545e+00 -1.937831372425476673e+01 -7.253239963367219545e+00 -4.313154961820780642e+01
8.700466976629954274e+00 2.084642296576530285e+01 -1.453417614203440245e+01 2.084642296576530285e+01 1.551863221284439831e+01 -1.100636614150840664e+01 -1.453417614203440245e+01 -1.100636614150840664e+01 7.202925598808350927e+00
8.891685441856274963e+00 2.094184453655166678e+01 -1.453290719063417136e+01 2.094184453655166678e+01 1.546646222499547640e+01 -1.088116889420395061e+01 -1.453290719063417136e+01 -1.088116889420395061e+01 7.368407584931398802e+00
9.076005100878523635e+00 2.101429987424934964e+01 -1.449062072566309922e+01 2.101429987424934964e+01 1.541670503206248277e+01 -1.072934154004958529e+01 -1.449062072566309922e+01 -1.072934154004958529e+01 7.512138671701197090e+00
9.251174011775164630e+00 2.106411068484713667e+01 -1.440672695280840898e+01 2.106411068484713667e+01 1.536678698613509653e+01 -1.054997257874372885e+01 -1.440672695280840898e+01 -1.054997257874372885e+01 7.628095808105380016e+00
9.416066203585428340e+00 2.109029397782373039e+01 -1.428124374462502821e+01 2.109029397782373039e+01 1.531804852883327683e+01 -1.034350882415970752e+01 -1.428124374462502821e+01 -1.034350882415970752e+01 7.715939415600226781e+00
9.568322499058186992e+00 2.109238506675087166e+01 -1.411436769921722068e+01 2.109238506675087166e+01 1.526950666963571734e+01 -1.011016474695671263e+01 -1.411436769921722068e+01 -1.011016474695671263e+01 7.772559669627424839e+00
9.705262014953508043e+00 2.107018735352430028e+01 -1.390670648345269811e+01 2.107018735352430028e+01 1.522008905524645073e+01 -9.850208435458737810e+00 -1.390670648345269811e+01 -9.850208435458737810e+00 7.795061216287852979e+00
9.824418338690668051e+00 2.102348636748482136e+01 -1.365899287208371149e+01 2.102348636748482136e+01 1.516836588127084795e+01 -9.564050958429239913e+00 -1.365899287208371149e+01 -9.564050958429239913e+00 7.780387848688001817e+00
9.923074841919875766e+00 2.095242508907190171e+01 -1.337203113008223632e+01 2.095242508907190171e+01 1.511287159820441772e+01 -9.251853168862611554e+00 -1.337203113008223632e+01 -9.251853168862611554e+00 7.725411869714625013e+00
9.999015327829459565e+00 2.085705713595033117e+01 -1.304696510096397155e+01 2.085705713595033117e+01 1.505203342121307486e+01 -8.914133370851905269e+00 -1.304696510096397155e+01 -8.914133370851905269e+00 7.627452396127798906e+00
2.739578955362467738e+01 -4.908346934810022266e-01 1.957342047526637785e+01 -4.908346934810022266e-01 3.214275244694298550e+01 -6.203340879607682545e+00 1.957342047526637785e+01 -6.203340879607682545e+00 3.403942380217950703e+00
2.741808823125478511e+01 -6.235364453712118893e-01 1.941119231979497783e+01 -6.235364453712118893e-01 3.206563911775685227e+01 -6.147365571329583389e+00 1.941119231979497783e+01 -6.147365571329583389e+00 3.320638881847433499e+00
2.743859316667805004e+01 -7.539168838172778386e-01 1.920918529303075317e+01 -7.539168838172778386e-01 3.198776960313058026e+01 -6.077778925129005749e+00 1.920918529303075317e+01 -6.077778925129005749e+00 3.224198859668012673e+00
2.745966084475444546e+01 -8.807977663892183617e-01 1.896715319506296282e+01 -8.807977663892183617e-01 3.191213347340889683e+01 -5.994334741095207697e+00 1.896715319506296282e+01 -5.994334741095207697e+00 3.120970754235262934e+00
2.748030646584099657e+01 -1.002912922117500383e+00 1.868527188297070651e+01 -1.002912922117500383e+00 3.183853728580480436e+01 -5.896857162149085063e+00 1.868527188297070651e+01 -5.896857162149085063e+00 3.009793908827111952e+00
2.749954523029473208e+01 -1.119084108572142133e+00 1.836371721383308397e+01 -1.119084108572142133e+00 3.176685794036291099e+01 -5.785258259751090648e+00 1.836371721383308397e+01 -5.785258259751090648e+00 2.889665938092679909e+00
2.751644509559641349e+01 -1.228203426154801825e+00 1.800278814468457256e+01 -1.228203426154801825e+00 3.169683165146458137e+01 -5.659502862485402019e+00 1.800278814468457256e+01 -5.659502862485402019e+00 2.759549285265266771e+00
2.752921231953920511e+01 -1.329180560975048886e+00 1.760280121826755462e+01 -1.329180560975048886e+00 3.162756154800638697e+01 -5.519696484599479369e+00 1.760280121826755462e+01 -5.519696484599479369e+00 2.617491936766842109e+00
2.753668624540102883e+01 -1.421206570469014663e+00 1.716405539161650040e+01 -1.421206570469014663e+00 3.155832661596401678e+01 -5.365856711801234802e+00 1.716405539161650040e+01 -5.365856711801234802e+00 2.461928764593400043e+00
2.753702037385132328e+01 -1.503437340657011179e+00 1.668676169322633740e+01 -1.503437340657011179e+00 3.148821239852613019e+01 -5.198159401169769822e+00 1.668676169322633740e+01 -5.198159401169769822e+00 2.290714312379898310e+00
-1.551125142858553119e+01 -1.190571725214559962e+01 -3.808594742434333824e+00 -1.190571725214559962e+01 -7.182030911784490712e+00 8.350471893249389765e+00 -3.808594742434333824e+00 8.350471893249389765e+00 -3.326426659034238398e+00
-1.543877690683581427e+01 -1.184289745055819232e+01 -3.817901379706542198e+00 -1.184289745055819232e+01 -7.106808367218177658e+00 8.313080462791560876e+00 -3.817901379706542198e+00 8.313080462791560876e+00 -3.140385514350627183e+00
-1.535025393183717313e+01 -1.176990996454937921e+01 -3.819568513548611044e+00 -1.176990996454937921e+01 -7.021289897165680749e+00 8.256031509119008405e+00 -3.819568513548611044e+00 8.256031509119008405e+00 -2.933349475348215218e+00
-1.524498633780939905e+01 -1.168693799564026214e+01 -3.813303021526770031e+00 -1.168693799564026214e+01 -6.924742695542576598e+00 8.179618154665503127e+00 -3.813303021526770031e+00 8.179618154665503127e+00 -2.705300221874892053e+00
-1.512449469737768126e+01 -1.159449450808994264e+01 -3.798848421511469731e+00 -1.159449450808994264e+01 -6.818357572236053876e+00 8.084243442777479416e+00 -3.798848421511469731e+00 8.084243442777479416e+00 -2.458069769141722816e+00
-1.498980493906021039e+01 -1.149301918554907331e+01 -3.776076472437936982e+00 -1.149301918554907331e+01 -6.703508538654413762e+00 7.970383697409813450e+00 -3.776076472437936982e+00 7.970383697409813450e+00 -2.193709974185098943e+00
-1.484295059974126829e+01 -1.138318987364574930e+01 -3.744730692176621467e+00 -1.138318987364574930e+01 -6.581587926358063889e+00 7.838478602213161395e+00 -3.744730692176621467e+00 7.838478602213161395e+00 -1.914968859821618352e+00
-1.468482936687428442e+01 -1.126533633511796140e+01 -3.704719479966970042e+00 -1.126533633511796140e+01 -6.454006387059523675e+00 7.689114402055063913e+00 -3.704719479966970042e+00 7.689114402055063913e+00 -1.622762433656812497e+00
-1.451826254388429049e+01 -1.114031961711491370e+01 -3.655749713375213261e+00 -1.114031961711491370e+01 -6.322870738251518574e+00 7.522565899217179997e+00 -3.655749713375213261e+00 7.522565899217179997e+00 -1.321835615087339377e+00
-1.434423941898526245e+01 -1.100854276298303702e+01 -3.597803072249239786e+00 -1.100854276298303702e+01 -6.189939714536670579e+00 7.339510939327603900e+00 -3.597803072249239786e+00 7.339510939327603900e+00 -1.012298325025862367e+00