1.213131009371207769e+00 -1.096220714092356607e-03 6.618819856971090324e-06 -1.096220714092392386e-03 1.211865202721770229e+00 -2.470177198066395691e-05 6.618819856971090324e-06 -2.470177198066395691e-05 4.568657854987851485e-01
1.371712031353912176e+00 -4.229175347869481433e-02 -1.937992821751785277e-01 -4.229175347869474494e-02 1.322376591346919872e+00 -1.008811528192435497e-01 -1.937992821751785277e-01 -1.008811528192435497e-01 8.040042174885013715e-01
1.536663850974975265e+00 -8.182928268491578006e-02 -3.887642656135775754e-01 -8.182928268491582169e-02 1.438542345498431851e+00 -2.036366958363354518e-01 -3.887642656135775754e-01 -2.036366958363354518e-01 1.160093710781280985e+00
1.711928876372527775e+00 -1.195781184736922492e-01 -5.849617876625244905e-01 -1.195781184736921660e-01 1.564539302543379362e+00 -3.081653993071480357e-01 -5.849617876625244905e-01 -3.081653993071480357e-01 1.529582671600464794e+00
1.894466748932909450e+00 -1.553412958179688774e-01 -7.820519931853894269e-01 -1.553412958179688219e-01 1.697512778701889546e+00 -4.142041100060241954e-01 -7.820519931853894269e-01 -4.142041100060241954e-01 1.906359062126991244e+00
2.083289699047831789e+00 -1.890104909439557501e-01 -9.796293140569044544e-01 -1.890104909439557779e-01 1.837184736933332951e+00 -5.213396905679752447e-01 -9.796293140569044544e-01 -5.213396905679752447e-01 2.289247490472579027e+00
2.275967343163566081e+00 -2.204646176479573561e-01 -1.177242974771492534e+00 -2.204646176479572450e-01 1.981139329621295131e+00 -6.290807021484186023e-01 -1.177242974771492534e+00 -6.290807021484186023e-01 2.673817633366015301e+00
2.469699744869847002e+00 -2.496863290961564841e-01 -1.374830809355410466e+00 -2.496863290961564008e-01 2.127348344958024384e+00 -7.370663087924635981e-01 -1.374830809355410466e+00 -7.370663087924635981e-01 3.055584918679703943e+00
2.663492017225252528e+00 -2.765557504129674271e-01 -1.571955279942795158e+00 -2.765557504129673716e-01 2.274871794007312431e+00 -8.447556681115663268e-01 -1.571955279942795158e+00 -8.447556681115663268e-01 3.432578304631759281e+00
2.854224225142450777e+00 -3.011880851005573345e-01 -1.768713246175296350e+00 -3.011880851005572790e-01 2.421458975074652020e+00 -9.517378914581174909e-01 -1.768713246175296350e+00 -9.517378914581174909e-01 3.799463320344597328e+00
2.782600262220345400e+01 3.940444637536481221e+00 -9.212438183040804196e-01 3.940444637536481221e+00 4.677495444888320009e+01 -2.262164408128829152e+01 -9.212438183040804196e-01 -2.262164408128829152e+01 2.105609060180138314e+01
2.786699828572697513e+01 3.860787955160993601e+00 -8.400713591642303690e-01 3.860787955160993601e+00 4.682671735425011406e+01 -2.262359542608839291e+01 -8.400713591642303690e-01 -2.262359542608839291e+01 2.117179489481442189e+01
2.789764485272139183e+01 3.778012605649633482e+00 -7.580277639529074962e-01 3.778012605649633482e+00 4.684441883922244898e+01 -2.256874869902845404e+01 -7.580277639529074962e-01 -2.256874869902845404e+01 2.122050882393119053e+01
2.791656592819378346e+01 3.692623847923854008e+00 -6.753917962129828423e-01 3.692623847923854008e+00 4.682680446785726502e+01 -2.245767884991565211e+01 -6.753917962129828423e-01 -2.245767884991565211e+01 2.119886980391580167e+01
2.792320398505841084e+01 3.605597354383705877e+00 -5.926164467016225013e-01 3.605597354383705877e+00 4.677352578572597963e+01 -2.229144866475718345e+01 -5.926164467016225013e-01 -2.229144866475718345e+01 2.110571051243248419e+01
2.791552056490801803e+01 3.517490652114931393e+00 -5.100501698474158019e-01 3.517490652114931393e+00 4.668353742954282382e+01 -2.207127773405310833e+01 -5.100501698474158019e-01 -2.207127773405310833e+01 2.093850465487396306e+01
2.789198246825682048e+01 3.429314258960438622e+00 -4.280414200789516843e-01 3.429314258960438622e+00 4.655558496336487195e+01 -2.179866441184636017e+01 -4.280414200789516843e-01 -2.179866441184636017e+01 2.069479562751869040e+01
2.785041185492612925e+01 3.341643124727400327e+00 -3.469560745462489382e-01 3.341643124727400327e+00 4.638898890105638628e+01 -2.147526385667273985e+01 -3.469560745462489382e-01 -2.147526385667273985e+01 2.037193517670938547e+01
2.778877026650870263e+01 3.255522612701583718e+00 -2.669335150207431950e-01 3.255522612701583718e+00 4.618202439319583874e+01 -2.110262669073946995e+01 -2.669335150207431950e-01 -2.110262669073946995e+01 1.996671752170302483e+01
2.770472305833299131e+01 3.171370868197296300e+00 -1.883744640953119998e-01 3.171370868197296300e+00 4.593371576738319106e+01 -2.068239064986091336e+01 -1.883744640953119998e-01 -2.068239064986091336e+01 1.947605884080659422e+01
-6.383598691116795010e+00 8.095125891322428657e+00 -5.696890068581055289e+00 8.095125891322428657e+00 -2.365404139804411088e+01 -4.961069377958858162e+00 -5.696890068581055289e+00 -4.961069377958858162e+00 2.176984400094710992e+01
-6.475196450604169485e+00 8.044201637346832356e+00 -5.845672360570138615e+00 8.044201637346832356e+00 -2.379711255874621401e+01 -5.055577617813637126e+00 -5.845672360570138615e+00 -5.055577617813637126e+00 2.145036844212754090e+01
-6.600877948733727685e+00 7.983063244723364704e+00 -5.981659521887426223e+00 7.983063244723364704e+00 -2.395404053478243966e+01 -5.139725279756774512e+00 -5.981659521887426223e+00 -5.139725279756774512e+00 2.105163263179311528e+01
-6.759691330290974243e+00 7.912186641059274272e+00 -6.104760027993059168e+00 7.912186641059274272e+00 -2.412363550713465798e+01 -5.213695412867981105e+00 -6.104760027993059168e+00 -5.213695412867981105e+00 2.057649213558732271e+01
-6.951197277484601145e+00 7.832322327581373145e+00 -6.214552866003705489e+00 7.832322327581373145e+00 -2.430589747580287963e+01 -5.277268358251604674e+00 -6.214552866003705489e+00 -5.277268358251604674e+00 2.002573406455292471e+01
-7.175231046142870106e+00 7.744074366252710284e+00 -6.310800072115738679e+00 7.744074366252710284e+00 -2.450055186716754108e+01 -5.330407506091701997e+00 -6.310800072115738679e+00 -5.330407506091701997e+00 1.940212245979356354e+01
-7.431627892094039289e+00 7.648303087747925666e+00 -6.393227072709592562e+00 7.648303087747925666e+00 -2.470842240208732576e+01 -5.372929807308562289e+00 -6.393227072709592562e+00 -5.372929807308562289e+00 1.870609663910053300e+01
-7.720955267485213547e+00 7.545649163846008811e+00 -6.461943697233094142e+00 7.545649163846008811e+00 -2.493013144743326492e+01 -5.405018310981897223e+00 -6.461943697233094142e+00 -5.405018310981897223e+00 1.793924912946732420e+01
-8.042737244709146083e+00 7.437247498841164983e+00 -6.516803506422474968e+00 7.437247498841164983e+00 -2.516690543203941743e+01 -5.426563187663879795e+00 -6.516803506422474968e+00 -5.426563187663879795e+00 1.710203755359321320e+01
-8.397468056281052640e+00 7.323592325248618806e+00 -6.558245818069041277e+00 7.323592325248618806e+00 -2.541938502768477193e+01 -5.437839010974076182e+00 -6.558245818069041277e+00 -5.437839010974076182e+00 1.619594460902386501e+01
4.026035270723463100e+01 -1.328396638757761705e+00 -2.868740316736098350e+01 -1.328396638757761705e+00 1.247844555547770007e+01 -1.161707784427898638e+01 -2.868740316736098350e+01 -1.161707784427898638e+01 5.229303767370139866e+01
4.038331028946593193e+01 -1.302335927872323218e+00 -2.871195970298726508e+01 -1.302335927872323218e+00 1.245478103076092324e+01 -1.166977644957954219e+01 -2.871195970298726508e+01 -1.166977644957954219e+01 5.240913901521653173e+01
4.040027598715644785e+01 -1.273774088358281986e+00 -2.865723221012784805e+01 -1.273774088358281986e+00 1.237465746259569066e+01 -1.169641434399465929e+01 -2.865723221012784805e+01 -1.169641434399465929e+01 5.230213268689632145e+01
4.031009543324684330e+01 -1.242028994226019423e+00 -2.852304578468282159e+01 -1.242028994226019423e+00 1.223667561818278848e+01 -1.169835577950357397e+01 -2.852304578468282159e+01 -1.169835577950357397e+01 5.197035709979169127e+01
4.011168422231769881e+01 -1.206558442765838457e+00 -2.830989015813191756e+01 -1.206558442765838457e+00 1.203952371677294586e+01 -1.167724485464536954e+01 -2.830989015813191756e+01 -1.167724485464536954e+01 5.141222062659355174e+01
3.980610926937843885e+01 -1.167065097007905283e+00 -2.801851741810472163e+01 -1.167065097007905283e+00 1.178290442139633321e+01 -1.163444582139928407e+01 -2.801851741810472163e+01 -1.163444582139928407e+01 5.063004949183059011e+01
3.939324814155912691e+01 -1.123006754242522831e+00 -2.765057166314031178e+01 -1.123006754242522831e+00 1.146526108556381551e+01 -1.157174270158431817e+01 -2.765057166314031178e+01 -1.157174270158431817e+01 4.962578513101171751e+01
3.887567192912831615e+01 -1.074383414469690878e+00 -2.720771448218775745e+01 -1.074383414469690878e+00 1.108617393943562845e+01 -1.149041229512975981e+01 -2.720771448218775745e+01 -1.149041229512975981e+01 4.840173627825565461e+01
3.825446503750541893e+01 -1.020967702359536933e+00 -2.669284928330543849e+01 -1.020967702359536933e+00 1.064413880775261489e+01 -1.139232607590456681e+01 -2.669284928330543849e+01 -1.139232607590456681e+01 4.696342990311930521e+01
3.753375520344810923e+01 -9.630744452918845733e-01 -2.610929924439149730e+01 -9.630744452918845733e-01 1.013938306584464577e+01 -1.127853346850814731e+01 -2.610929924439149730e+01 -1.127853346850814731e+01 4.531688270663930496e+01
-3.697392980899304149e+01 3.209435881051072137e+00 -6.646255218375640261e+00 3.209435881051072137e+00 -4.631801768733709679e+01 1.637978838768803413e+01 -6.646255218375640261e+00 1.637978838768803413e+01 -3.609392257996079678e+01
-3.696481383079145644e+01 3.235694484927336134e+00 -6.701600863809161979e+00 3.235694484927336134e+00 -4.629061241953610306e+01 1.645476109729980863e+01 -6.701600863809161979e+00 1.645476109729980863e+01 -3.604555247340270796e+01
-3.690734685709719543e+01 3.260366870374392878e+00 -6.747467420798268556e+00 3.260366870374392878e+00 -4.620818639441360176e+01 1.651046985297616132e+01 -6.747467420798268556e+00 1.651046985297616132e+01 -3.585952536268106172e+01
-3.680244621905002589e+01 3.283701481242600639e+00 -6.784160666389552397e+00 3.283701481242600639e+00 -4.607159960991312175e+01 1.654702932110956226e+01 -6.784160666389552397e+00 1.654702932110956226e+01 -3.553779057646789141e+01
-3.665131591377091524e+01 3.305832094989844538e+00 -6.811795266975489760e+00 3.305832094989844538e+00 -4.588132984266997738e+01 1.656419105784965140e+01 -6.811795266975489760e+00 1.656419105784965140e+01 -3.508239299876229467e+01
-3.645470127281095074e+01 3.326739600550712161e+00 -6.830390333621489951e+00 3.326739600550712161e+00 -4.563804597997359735e+01 1.656164928614984078e+01 -6.830390333621489951e+00 1.656164928614984078e+01 -3.449503351438596610e+01
-3.621512495680451593e+01 3.346825330298857981e+00 -6.839964977392965828e+00 3.346825330298857981e+00 -4.534354446197271216e+01 1.653886889617858458e+01 -6.839964977392965828e+00 1.653886889617858458e+01 -3.378027966797239401e+01
-3.593365718541470244e+01 3.365783507187688706e+00 -6.840519198289917391e+00 3.365783507187688706e+00 -4.499876173087251630e+01 1.649544855556223055e+01 -6.840519198289917391e+00 1.649544855556223055e+01 -3.294069234228680187e+01
-3.561123440084669056e+01 3.384130129983331514e+00 -6.831938329919872821e+00 3.384130129983331514e+00 -4.460446222928949567e+01 1.643077671020758856e+01 -6.831938329919872821e+00 1.643077671020758856e+01 -3.197988352869207773e+01
-3.525122015061303671e+01 3.401215422461773219e+00 -6.813935706301648132e+00 3.401215422461773219e+00 -4.416429617071737113e+01 1.634420358389064987e+01 -6.813935706301648132e+00 1.634420358389064987e+01 -3.090165632920524530e+01
2.560539010850974861e+01 8.063948078809842102e+00 1.430240342224609273e+00 8.063948078809842102e+00 4.788615866261825005e+01 2.986649358815022026e+01 1.430240342224609273e+00 2.986649358815022026e+01 5.793299459532357076e+01
2.560391961113951709e+01 7.966047553890592603e+00 1.423112754971255223e+00 7.966047553890592603e+00 4.790723002493520255e+01 2.990147412559265661e+01 1.423112754971255223e+00 2.990147412559265661e+01 5.794894516679830332e+01
2.553402773613089849e+01 7.859029945275912254e+00 1.405311086806931842e+00 7.859029945275912254e+00 4.781287599367357188e+01 2.985260171299380971e+01 1.405311086806931842e+00 2.985260171299380971e+01 5.771869987855828299e+01
2.539574908342202164e+01 7.743708351511694232e+00 1.378305835101869548e+00 7.743708351511694232e+00 4.760304466892616659e+01 2.971992825026086393e+01 1.378305835101869548e+00 2.971992825026086393e+01 5.724139373215042070e+01
2.518816675465261312e+01 7.622003069163767464e+00 1.343256097783191549e+00 7.622003069163767464e+00 4.727716515171395883e+01 2.950421493603253609e+01 1.343256097783191549e+00 2.950421493603253609e+01 5.651766682643000195e+01
2.491133264972986794e+01 7.494848296561457346e+00 1.301874571787990487e+00 7.494848296561457346e+00 4.683729613835527061e+01 2.920669006811218793e+01 1.301874571787990487e+00 2.920669006811218793e+01 5.555148085431211058e+01
2.456453746992225717e+01 7.364458429744637158e+00 1.255424154857758268e+00 7.364458429744637158e+00 4.628487352628220464e+01 2.882968914232313296e+01 1.255424154857758268e+00 2.882968914232313296e+01 5.434624390970187591e+01
2.414705461652919993e+01 7.231681167197326232e+00 1.205790543620202993e+00 7.231681167197326232e+00 4.562358220890487814e+01 2.837613585343676448e+01 1.205790543620202993e+00 2.837613585343676448e+01 5.290788988198740839e+01
2.365943768856066498e+01 7.098903904650014418e+00 1.154167435940570918e+00 7.098903904650014418e+00 4.485769527858148820e+01 2.785006109424442755e+01 1.154167435940570918e+00 2.785006109424442755e+01 5.124463625647292986e+01
2.310099468725418603e+01 6.966887840741411431e+00 1.102354028601261637e+00 6.966887840741411431e+00 4.399307742482389472e+01 2.725611855642367232e+01 1.102354028601261637e+00 2.725611855642367232e+01 4.936675921478099838e+01
-2.769284943541369870e+01 1.562666274998989024e+01 -1.582697816326670559e-01 1.562666274998989024e+01 -6.762385497415468016e+00 -1.842719882857449321e+01 -1.582697816326670559e-01 -1.842719882857449321e+01 -2.429179407043256944e+01
-2.769515127131827725e+01 1.566005793379908262e+01 -2.818263927688425263e-01 1.566005793379908262e+01 -6.905730472053921432e+00 -1.821071487438728198e+01 -2.818263927688425263e-01 -1.821071487438728198e+01 -2.451371704010399100e+01
-2.764887323172055034e+01 1.568433858995384611e+01 -3.999996779991449314e-01 1.568433858995384611e+01 -7.016886870413808985e+00 -1.796633044145342595e+01 -3.999996779991449314e-01 -1.796633044145342595e+01 -2.463946410798807207e+01
-2.755444227005442670e+01 1.569959753441808203e+01 -5.129010164802475513e-01 1.569959753441808203e+01 -7.095167854362315119e+00 -1.769406409296570359e+01 -5.129010164802475513e-01 -1.769406409296570359e+01 -2.466998199691654037e+01
-2.741349194728444516e+01 1.570546350333620467e+01 -6.196022485732067819e-01 1.570546350333620467e+01 -7.140239286429417298e+00 -1.739482542537027498e+01 -6.196022485732067819e-01 -1.739482542537027498e+01 -2.460538208604606325e+01
-2.722841691527908736e+01 1.570186224393710539e+01 -7.200662478924647614e-01 1.570186224393710539e+01 -7.153382026916859537e+00 -1.706870725463104321e+01 -7.200662478924647614e-01 -1.706870725463104321e+01 -2.444817040640179329e+01
-2.700051659753286870e+01 1.568829255001574730e+01 -8.137546818474342691e-01 1.568829255001574730e+01 -7.133649352992918580e+00 -1.671645210845915841e+01 -8.137546818474342691e-01 -1.671645210845915841e+01 -2.419810563647759949e+01
-2.673281679446875003e+01 1.566488436392158867e+01 -9.008160559803464196e-01 1.566488436392158867e+01 -7.083231721405500281e+00 -1.633796717089072814e+01 -9.008160559803464196e-01 -1.633796717089072814e+01 -2.385916029952816686e+01
-2.642711813578627655e+01 1.563108078987126248e+01 -9.810461751706334166e-01 1.563108078987126248e+01 -7.001497983600124542e+00 -1.593373508493800017e+01 -9.810461751706334166e-01 -1.593373508493800017e+01 -2.343229968157799448e+01
-2.608614941082394267e+01 1.558697464382866293e+01 -1.054890556044988381e+00 1.558697464382866293e+01 -6.890657159517476593e+00 -1.550351452909484884e+01 -1.054890556044988381e+00 -1.550351452909484884e+01 -2.292127354756841129e+01
-1.201957373479846325e+01 1.716196504833137837e+01 1.055357625474369954e+00 1.716196504833137837e+01 1.503835797331871404e+01 -1.261713599775594830e+01 1.055357625474369954e+00 -1.261713599775594830e+01 7.492898108290609649e+00
-1.214572556718838037e+01 1.708947791975875674e+01 1.177784751332493718e+00 1.708947791975875674e+01 1.507462865925452533e+01 -1.267837668233451254e+01 1.177784751332493718e+00 -1.267837668233451254e+01 7.362786515073203475e+00
-1.225858779132165566e+01 1.700288753344439385e+01 1.297282739044255395e+00 1.700288753344439385e+01 1.509075700015918464e+01 -1.271437615177529423e+01 1.297282739044255395e+00 -1.271437615177529423e+01 7.207813409811059557e+00
-1.235816040719829090e+01 1.690277248457769232e+01 1.414050480706013246e+00 1.690277248457769232e+01 1.508574853555089845e+01 -1.272488127068292485e+01 1.414050480706013246e+00 -1.272488127068292485e+01 7.027165143019076687e+00
-1.244498584780834882e+01 1.678994642264375514e+01 1.528087976317767271e+00 1.678994642264375514e+01 1.505886194034324355e+01 -1.270947617376502059e+01 1.528087976317767271e+00 -1.270947617376502059e+01 6.820715146999573264e+00
-1.251870249115845546e+01 1.666506026723066114e+01 1.639503712477530462e+00 1.666506026723066114e+01 1.500941013274880120e+01 -1.266767267133052499e+01 1.639503712477530462e+00 -1.266767267133052499e+01 6.589711017629704237e+00
-1.258222139429530273e+01 1.652999445270397416e+01 1.747936067191925291e+00 1.652999445270397416e+01 1.493534994850498698e+01 -1.259952500667844077e+01 1.747936067191925291e+00 -1.259952500667844077e+01 6.329831372088600361e+00
-1.263528942182352388e+01 1.638492979006038652e+01 1.853945554550687547e+00 1.638492979006038652e+01 1.483646441441577224e+01 -1.250458115231704426e+01 1.853945554550687547e+00 -1.250458115231704426e+01 6.043806456426267459e+00
-1.268013054900239744e+01 1.623098730747937424e+01 1.957405606856134739e+00 1.623098730747937424e+01 1.471127088030830521e+01 -1.238253372955196774e+01 1.957405606856134739e+00 -1.238253372955196774e+01 5.729593106380118428e+00
-1.271772115521403990e+01 1.606959541183477214e+01 2.058406629606611471e+00 1.606959541183477214e+01 1.455891953449815190e+01 -1.223329233288486506e+01 2.058406629606611471e+00 -1.223329233288486506e+01 5.387028592053134446e+00
-2.437997521390351530e+00 6.484231232859457572e-01 -5.330612729066694477e+00 6.484231232859457572e-01 -3.164895126762361954e+00 1.980026768419578787e+01 -5.330612729066694477e+00 1.980026768419578787e+01 1.284070062943706292e+00
-2.405611804142234522e+00 7.346032979158949594e-01 -5.213682479473887632e+00 7.346032979158949594e-01 -3.261688802443321489e+00 1.958688906118224082e+01 -5.213682479473887632e+00 1.958688906118224082e+01 1.166976249122373188e+00
-2.364993354058317010e+00 8.187661803940252669e-01 -5.088973842124517866e+00 8.187661803940252669e-01 -3.351412868691330260e+00 1.933945273102898099e+01 -5.088973842124517866e+00 1.933945273102898099e+01 1.055316402448731594e+00
-2.316723732840023864e+00 9.002938614125727268e-01 -4.956559512231264897e+00 9.002938614125727268e-01 -3.434339932553932329e+00 1.905844938642158581e+01 -4.956559512231264897e+00 1.905844938642158581e+01 9.482727017801529934e-01
-2.262147801921901458e+00 9.786229530732813986e-01 -4.816621227825821805e+00 9.786229530732813986e-01 -3.511287815173756321e+00 1.874473319610902067e+01 -4.816621227825821805e+00 1.874473319610902067e+01 8.451181949898554091e-01
-2.202265120478274163e+00 1.052990155643031001e+00 -4.669322553136716181e+00 1.052990155643031001e+00 -3.582238342747632309e+00 1.839915832884025804e+01 -4.669322553136716181e+00 1.839915832884025804e+01 7.451077561478879341e-01
-2.139202023479977122e+00 1.122741212207717609e+00 -4.514881573801982739e+00 1.122741212207717609e+00 -3.648554550513276595e+00 1.802243356293890386e+01 -4.514881573801982739e+00 1.802243356293890386e+01 6.467147857880092277e-01
-2.074594153212269365e+00 1.187512646703950958e+00 -4.353261942215281621e+00 1.187512646703950958e+00 -3.711363214267199506e+00 1.761515863390955872e+01 -4.353261942215281621e+00 1.761515863390955872e+01 5.482491202154523569e-01
-2.010495149433309425e+00 1.246559333201779918e+00 -4.184554527392459811e+00 1.246559333201779918e+00 -3.771518502758370417e+00 1.717778788683145663e+01 -4.184554527392459811e+00 1.717778788683145663e+01 4.481841599639762586e-01
-1.948395264002997784e+00 1.299735881275848159e+00 -4.008613938908162311e+00 1.299735881275848159e+00 -3.830074496570622156e+00 1.671079384058700867e+01 -4.008613938908162311e+00 1.671079384058700867e+01 3.447388723229660168e-01
2.309841093749423280e+01 -2.404015615702257591e+01 2.940603608411258563e+01 -2.404015615702257591e+01 1.377241747447540732e+01 4.255769910071074413e+00 2.940603608411258563e+01 4.255769910071074413e+00 3.792325888006908485e+01
2.303511922865838812e+01 -2.410934328936676252e+01 2.919778423207453599e+01 -2.410934328936676252e+01 1.392421135183443326e+01 4.416203326985874256e+00 2.919778423207453599e+01 4.416203326985874256e+00 3.801820529531009640e+01
2.289543486985704845e+01 -2.413719164125453531e+01 2.891884040985983972e+01 -2.413719164125453531e+01 1.403190462871511279e+01 4.583895373445483479e+00 2.891884040985983972e+01 4.583895373445483479e+00 3.794368926664154884e+01
2.267985357237619226e+01 -2.412347106101739413e+01 2.856998359234647111e+01 -2.412347106101739413e+01 1.409298334073851322e+01 4.758314930214917027e+00 2.856998359234647111e+01 4.758314930214917027e+00 3.769856003572096625e+01
2.238995098994628208e+01 -2.406830547647683716e+01 2.815263009749440215e+01 -2.406830547647683716e+01 1.410541153083718768e+01 4.938045679334210902e+00 2.815263009749440215e+01 4.938045679334210902e+00 3.728364968934982926e+01
2.202898465387523075e+01 -2.397266860623033935e+01 2.766908144198856334e+01 -2.397266860623033935e+01 1.406786140092367177e+01 5.121370335276910879e+00 2.766908144198856334e+01 5.121370335276910879e+00 3.670258754230054166e+01
2.159950393649097578e+01 -2.383794136028886967e+01 2.712217026174888090e+01 -2.383794136028886967e+01 1.397854484957351140e+01 5.306005085332576421e+00 2.712217026174888090e+01 5.306005085332576421e+00 3.595840097421253034e+01
2.110467784922893486e+01 -2.366633673546486349e+01 2.651504786423627635e+01 -2.366633673546486349e+01 1.383593933497974326e+01 5.489134997555781936e+00 2.651504786423627635e+01 5.489134997555781936e+00 3.505510878729717916e+01
2.054919794533147481e+01 -2.346059884780574833e+01 2.585185697948363881e+01 -2.346059884780574833e+01 1.363935440213688999e+01 5.668157587695095145e+00 2.585185697948363881e+01 5.668157587695095145e+00 3.400002272302280204e+01
1.993701221111200184e+01 -2.322402063656844362e+01 2.513697048919235755e+01 -2.322402063656844362e+01 1.338778092449847890e+01 5.839514356876108536e+00 2.513697048919235755e+01 5.839514356876108536e+00 3.279923294861723804e+01
3.543728955177233786e+01 -3.256701236802269861e+00 -4.828691860358499177e+00 -3.256701236802269861e+00 5.653298439323179281e+01 2.871839279371026521e+01 -4.828691860358499177e+00 2.871839279371026521e+01 1.936188979439824820e+01
3.538067007260493568e+01 -3.245681802573846308e+00 -4.717355787055304894e+00 -3.245681802573846308e+00 5.652691246008551929e+01 2.852936711425345706e+01 -4.717355787055304894e+00 2.852936711425345706e+01 1.926908090172086574e+01
3.531747699060111501e+01 -3.231686948114199431e+00 -4.594602403562535464e+00 -3.231686948114199431e+00 5.648522197893873198e+01 2.827924152632759203e+01 -4.594602403562535464e+00 2.827924152632759203e+01 1.911036299113093051e+01
3.524708754338690397e+01 -3.215045353565151309e+00 -4.461019874344501090e+00 -3.215045353565151309e+00 5.640713449682397140e+01 2.796858689544213661e+01 -4.461019874344501090e+00 2.796858689544213661e+01 1.888317581731320871e+01
3.516983041110410824e+01 -3.195843513700865390e+00 -4.317144467001016395e+00 -3.195843513700865390e+00 5.629280570433471809e+01 2.759825087038390379e+01 -4.317144467001016395e+00 2.759825087038390379e+01 1.858836702905450267e+01
3.508442547109511622e+01 -3.174358211798664176e+00 -4.163425954357730774e+00 -3.174358211798664176e+00 5.614111116940686941e+01 2.716908109993969234e+01 -4.163425954357730774e+00 2.716908109993969234e+01 1.822460460683269190e+01
3.499045754844394196e+01 -3.150814334271372807e+00 -4.000504397743453566e+00 -3.150814334271372807e+00 5.595220658263388458e+01 2.668234040781228700e+01 -4.000504397743453566e+00 2.668234040781228700e+01 1.779204424124127115e+01
3.488616214975765217e+01 -3.125471365441481630e+00 -3.828950662667663707e+00 -3.125471365441481630e+00 5.572520969731932894e+01 2.613934351456897076e+01 -3.828950662667663707e+00 2.613934351456897076e+01 1.728961339708061473e+01
3.477015535864963169e+01 -3.098623387541146190e+00 -3.649283717775342772e+00 -3.098623387541146190e+00 5.545984373018585245e+01 2.554154353241569453e+01 -3.649283717775342772e+00 2.554154353241569453e+01 1.671693149734440453e+01
3.464101866082360459e+01 -3.070529884892857275e+00 -3.462022531711470563e+00 -3.070529884892857275e+00 5.515624707287214079e+01 2.489056656310672366e+01 -3.462022531711470563e+00 2.489056656310672366e+01 1.607375635666497971e+01
-3.645234146897913519e+01 4.346643357397985241e+00 -2.779391324746570913e+00 4.346643357397985241e+00 -2.199647394733402539e+00 3.078905794315528688e+00 -2.779391324746570913e+00 3.078905794315528688e+00 -3.524492084932938951e+01
-3.631499639432281867e+01 4.331666701375575634e+00 -2.818781981682223048e+00 4.331666701375575634e+00 -2.072075380794074384e+00 3.287366671479252211e+00 -2.818781981682223048e+00 3.287366671479252211e+00 -3.487542828088611202e+01
-3.611024704212604064e+01 4.315701548753929195e+00 -2.858377798289414962e+00 4.315701548753929195e+00 -1.903061113203695420e+00 3.491743006091409640e+00 -2.858377798289414962e+00 3.491743006091409640e+00 -3.436512157424957792e+01
-3.584010770734574436e+01 4.298953059204584370e+00 -2.898197425447377906e+00 4.298953059204584370e+00 -1.694991904503820646e+00 3.692426466615849279e+00 -2.898197425447377906e+00 3.692426466615849279e+00 -3.372041663187518878e+01
-3.550681649548963748e+01 4.281216073056002713e+00 -2.937979750846878790e+00 4.281216073056002713e+00 -1.450012605806002775e+00 3.888838875796414296e+00 -2.937979750846878790e+00 3.888838875796414296e+00 -3.294776665797687087e+01
-3.511143650667387561e+01 4.262677099100491418e+00 -2.977575567454070704e+00 4.262677099100491418e+00 -1.169522033052559085e+00 4.080644517806947924e+00 -2.977575567454070704e+00 4.080644517806947924e+00 -3.204689188936613675e+01
-3.465573957442538955e+01 4.243037723270358441e+00 -3.016425348892027181e+00 4.243037723270358441e+00 -8.557769426304281390e-01 4.267227913632830827e+00 -3.016425348892027181e+00 4.267227913632830827e+00 -3.102633442873074188e+01
-3.414246737799113873e+01 4.222838821063297665e+00 -3.054100124938436966e+00 4.222838821063297665e+00 -5.118174278542456657e-01 4.448010886017904397e+00 -3.054100124938436966e+00 4.448010886017904397e+00 -2.989034667653533361e+01
-3.357309333683034680e+01 4.201502215223153591e+00 -3.089984416578680282e+00 4.201502215223153591e+00 -1.385946835647875464e-01 4.622750973532168572e+00 -3.089984416578680282e+00 4.622750973532168572e+00 -2.864338619291609334e+01
-3.295039643194842682e+01 4.179773940919159436e+00 -3.123388141281215002e+00 4.179773940919159436e+00 2.594710318602239663e-01 4.790571584851770481e+00 -3.123388141281215002e+00 4.790571584851770481e+00 -2.729246570846384046e+01
-8.275913545365408908e+00 -1.803789921067967938e+01 -1.667160739447123419e+01 -1.803789921067967938e+01 -1.616706831906191688e-01 1.612290524107383760e+01 -1.667160739447123419e+01 1.612290524107383760e+01 9.337227399378679848e+00
-8.369003277476966929e+00 -1.801073591775493554e+01 -1.657577224252592174e+01 -1.801073591775493554e+01 -1.669978885634094690e-01 1.607123316711659911e+01 -1.657577224252592174e+01 1.607123316711659911e+01 9.194120117845463014e+00
-8.465583874542707221e+00 -1.795806385644103642e+01 -1.644273756091258676e+01 -1.795806385644103642e+01 -1.761614090681409284e-01 1.598652514721274187e+01 -1.644273756091258676e+01 1.598652514721274187e+01 9.017376897951626447e+00
-8.565455339091299081e+00 -1.788022847691572892e+01 -1.627228517057159962e+01 -1.788022847691572892e+01 -1.893612421761469433e-01 1.586901754201020509e+01 -1.627228517057159962e+01 1.586901754201020509e+01 8.806525018401288207e+00
-8.669181300360133235e+00 -1.777792067953452815e+01 -1.606476052168071789e+01 -1.777792067953452815e+01 -2.077246463622159089e-01 1.571912852803995442e+01 -1.606476052168071789e+01 1.571912852803995442e+01 8.562455377021297664e+00
-8.777289024410000806e+00 -1.765177681988804892e+01 -1.582038179329957650e+01 -1.765177681988804892e+01 -2.322516089830149455e-01 1.553711264753823329e+01 -1.582038179329957650e+01 1.553711264753823329e+01 8.284386165514625588e+00
-8.890669409067749385e+00 -1.750305142756918997e+01 -1.553994897531350716e+01 -1.750305142756918997e+01 -2.643239307495750534e-01 1.532367898244886284e+01 -1.553994897531350716e+01 1.532367898244886284e+01 7.973499187120968834e+00
-9.010086081042107509e+00 -1.733299903217087135e+01 -1.522395297060669606e+01 -1.733299903217087135e+01 -3.054688650793513371e-01 1.507902753024317910e+01 -1.522395297060669606e+01 1.507902753024317910e+01 7.629194449426326408e+00
-9.136593572454650314e+00 -1.714323779505205891e+01 -1.487341194812411338e+01 -1.714323779505205891e+01 -3.573409365079204814e-01 1.480394009921820242e+01 -1.487341194812411338e+01 1.480394009921820242e+01 7.252071944844700191e+00
-9.271719136722833099e+00 -1.693525860645360126e+01 -1.448905317139787741e+01 -1.693525860645360126e+01 -4.219219381603135366e-01 1.449859850525697347e+01 -1.448905317139787741e+01 1.449859850525697347e+01 6.841040778077906559e+00