0.000000000000000000e+00 2.032270000000000021e+00 9.625159999999999272e+00 -1.760000000000000009e+00 5.080680000000000085e+00 9.625159999999999272e+00 -3.520000000000000018e+00 8.129089999999999705e+00 9.625159999999999272e+00 3.520000000000000018e+00 2.032270000000000021e+00 9.625159999999999272e+00 1.760000000000000009e+00 5.080680000000000085e+00 9.625159999999999272e+00 0.000000000000000000e+00 8.129089999999999705e+00 9.625159999999999272e+00 7.040000000000000036e+00 2.032270000000000021e+00 9.625159999999999272e+00 5.280000000000000249e+00 5.080680000000000085e+00 9.625159999999999272e+00 3.520000000000000018e+00 8.129089999999999705e+00 9.625159999999999272e+00 0.000000000000000000e+00 5.080700000000000216e-01 1.674955999999999889e+01 -1.760000000000000009e+00 3.556480000000000086e+00 1.674955999999999889e+01 -3.520000000000000018e+00 6.604890000000000150e+00 1.674955999999999889e+01 3.520000000000000018e+00 5.080700000000000216e-01 1.674955999999999889e+01 1.760000000000000009e+00 3.556480000000000086e+00 1.674955999999999889e+01 0.000000000000000000e+00 6.604890000000000150e+00 1.674955999999999889e+01 7.040000000000000036e+00 5.080700000000000216e-01 1.674955999999999889e+01 5.280000000000000249e+00 3.556480000000000086e+00 1.674955999999999889e+01 3.520000000000000018e+00 6.604890000000000150e+00 1.674955999999999889e+01 0.000000000000000000e+00 2.032270000000000021e+00 1.325112000000000023e+01 -1.760000000000000009e+00 5.080680000000000085e+00 1.325112000000000023e+01 -3.520000000000000018e+00 8.129089999999999705e+00 1.325112000000000023e+01 3.520000000000000018e+00 2.032270000000000021e+00 1.325112000000000023e+01 1.760000000000000009e+00 5.080680000000000085e+00 1.325112000000000023e+01 0.000000000000000000e+00 8.129089999999999705e+00 1.325112000000000023e+01 7.040000000000000036e+00 2.032270000000000021e+00 1.325112000000000023e+01 5.280000000000000249e+00 5.080680000000000085e+00 1.325112000000000023e+01 3.520000000000000018e+00 8.129089999999999705e+00 1.325112000000000023e+01 0.000000000000000000e+00 5.080700000000000216e-01 2.037518999999999991e+01 -1.760000000000000009e+00 3.556480000000000086e+00 2.037518999999999991e+01 -3.520000000000000018e+00 6.604890000000000150e+00 2.037518999999999991e+01 3.520000000000000018e+00 5.080700000000000216e-01 2.037518999999999991e+01 1.760000000000000009e+00 3.556480000000000086e+00 2.037518999999999991e+01 0.000000000000000000e+00 6.604890000000000150e+00 2.037518999999999991e+01 7.040000000000000036e+00 5.080700000000000216e-01 2.037518999999999991e+01 5.280000000000000249e+00 3.556480000000000086e+00 2.037518999999999991e+01 3.520000000000000018e+00 6.604890000000000150e+00 2.037518999999999991e+01 0.000000000000000000e+00 0.000000000000000000e+00 1.143730000000000047e+01 -1.760000000000000009e+00 3.048410000000000064e+00 1.143730000000000047e+01 -3.520000000000000018e+00 6.096820000000000128e+00 1.143730000000000047e+01 3.520000000000000018e+00 0.000000000000000000e+00 1.143730000000000047e+01 1.760000000000000009e+00 3.048410000000000064e+00 1.143730000000000047e+01 0.000000000000000000e+00 6.096820000000000128e+00 1.143730000000000047e+01 7.040000000000000036e+00 0.000000000000000000e+00 1.143730000000000047e+01 5.280000000000000249e+00 3.048410000000000064e+00 1.143730000000000047e+01 3.520000000000000018e+00 6.096820000000000128e+00 1.143730000000000047e+01 1.760000000000000009e+00 1.524199999999999999e+00 1.856171000000000149e+01 0.000000000000000000e+00 4.572610000000000063e+00 1.856171000000000149e+01 -1.760000000000000009e+00 7.621019999999999683e+00 1.856171000000000149e+01 5.280000000000000249e+00 1.524199999999999999e+00 1.856171000000000149e+01 3.520000000000000018e+00 4.572610000000000063e+00 1.856171000000000149e+01 1.760000000000000009e+00 7.621019999999999683e+00 1.856171000000000149e+01 8.800000000000000711e+00 1.524199999999999999e+00 1.856171000000000149e+01 7.040000000000000036e+00 4.572610000000000063e+00 1.856171000000000149e+01 5.280000000000000249e+00 7.621019999999999683e+00 1.856171000000000149e+01
-3.089999999999999865e-03 2.033939999999999859e+00 9.625249999999999417e+00 -1.759039999999999937e+00 5.078269999999999840e+00 9.626559999999999562e+00 -3.519610000000000127e+00 8.130969999999999587e+00 9.623979999999999535e+00 3.522829999999999906e+00 2.032340000000000035e+00 9.623010000000000730e+00 1.759279999999999955e+00 5.077939999999999898e+00 9.622339999999999449e+00 -9.000000000000000567e-05 8.127670000000000172e+00 9.624890000000000612e+00 7.037819999999999965e+00 2.032579999999999831e+00 9.628679999999999239e+00 5.279569999999999652e+00 5.079570000000000363e+00 9.628009999999999735e+00 3.521679999999999922e+00 8.131479999999999819e+00 9.623760000000000758e+00 9.700000000000000505e-04 5.086399999999999810e-01 1.674794999999999945e+01 -1.762369999999999992e+00 3.553329999999999878e+00 1.675081000000000131e+01 -3.517230000000000079e+00 6.603500000000000369e+00 1.675038999999999945e+01 3.522219999999999906e+00 5.100500000000000034e-01 1.674867000000000061e+01 1.757740000000000080e+00 3.557529999999999859e+00 1.674885000000000090e+01 1.569999999999999998e-03 6.606029999999999625e+00 1.674867000000000061e+01 7.039520000000000444e+00 5.097300000000000164e-01 1.674981999999999971e+01 5.277999999999999581e+00 3.556029999999999802e+00 1.674709000000000003e+01 3.518549999999999844e+00 6.605129999999999946e+00 1.675147000000000119e+01 7.100000000000000191e-04 2.032589999999999897e+00 1.325159000000000020e+01 -1.758829999999999893e+00 5.079629999999999868e+00 1.325352999999999959e+01 -3.519620000000000193e+00 8.128199999999999648e+00 1.325370999999999988e+01 3.521040000000000170e+00 2.032859999999999889e+00 1.325045000000000073e+01 1.761409999999999920e+00 5.081690000000000040e+00 1.325033999999999956e+01 -2.050000000000000173e-03 8.127299999999999969e+00 1.324957999999999991e+01 7.038179999999999659e+00 2.033319999999999794e+00 1.325221999999999944e+01 5.281089999999999840e+00 5.079119999999999635e+00 1.325320999999999927e+01 3.518990000000000062e+00 8.128310000000000812e+00 1.325145000000000017e+01 1.180000000000000059e-03 5.069399999999999462e-01 2.037436999999999898e+01 -1.760070000000000023e+00 3.558419999999999916e+00 2.037535000000000096e+01 -3.517160000000000064e+00 6.605599999999999916e+00 2.037584000000000017e+01 3.520770000000000177e+00 5.066500000000000448e-01 2.037569999999999837e+01 1.761149999999999993e+00 3.554019999999999957e+00 2.037723000000000084e+01 2.619999999999999933e-03 6.602599999999999802e+00 2.037289000000000172e+01 7.040610000000000035e+00 5.076699999999999546e-01 2.037857999999999947e+01 5.276810000000000223e+00 3.555419999999999803e+00 2.037507000000000090e+01 3.520399999999999974e+00 6.607510000000000439e+00 2.037414000000000058e+01 2.309999999999999987e-03 9.499999999999999981e-04 1.143716000000000044e+01 -1.759919999999999929e+00 3.050499999999999989e+00 1.143927000000000049e+01 7.040300000000000225e+00 6.094940000000000246e+00 1.143749000000000038e+01 -1.757830000000000004e+00 9.144959999999999312e+00 1.143661999999999956e+01 1.756829999999999892e+00 3.048160000000000203e+00 1.143490000000000073e+01 -1.200000000000000030e-04 6.098130000000000273e+00 1.144088999999999956e+01 1.761139999999999928e+00 9.144080000000000652e+00 1.143773999999999980e+01 5.280039999999999623e+00 3.044999999999999929e+00 1.143745999999999974e+01 3.518979999999999997e+00 6.098429999999999573e+00 1.143909000000000020e+01 1.759109999999999951e+00 1.524920000000000053e+00 1.856090000000000018e+01 -5.699999999999999772e-04 4.574069999999999858e+00 1.856131999999999849e+01 -1.761209999999999942e+00 7.623730000000000118e+00 1.856278999999999968e+01 5.278019999999999712e+00 1.524829999999999908e+00 1.855814000000000163e+01 3.520509999999999806e+00 4.575420000000000265e+00 1.855940000000000012e+01 1.761719999999999953e+00 7.621809999999999974e+00 1.855962999999999852e+01 8.798690000000000566e+00 1.524809999999999999e+00 1.855828999999999951e+01 7.037040000000000184e+00 4.572210000000000107e+00 1.856225999999999843e+01 5.277569999999999872e+00 7.621120000000000339e+00 1.855962999999999852e+01
-6.190000000000000190e-03 2.035600000000000076e+00 9.625329999999999941e+00 -1.758070000000000022e+00 5.075859999999999594e+00 9.627950000000000230e+00 -3.519210000000000171e+00 8.132830000000000226e+00 9.622799999999999798e+00 3.525659999999999794e+00 2.032410000000000050e+00 9.620850000000000790e+00 1.758550000000000058e+00 5.075199999999999712e+00 9.619529999999999248e+00 -1.700000000000000122e-04 8.126239999999999242e+00 9.624610000000000554e+00 7.035639999999999894e+00 2.032890000000000086e+00 9.632199999999999207e+00 5.279139999999999944e+00 5.078459999999999752e+00 9.630860000000000198e+00 3.523359999999999825e+00 8.133860000000000312e+00 9.622360000000000468e+00 1.940000000000000101e-03 5.091900000000000315e-01 1.674633000000000038e+01 -1.764750000000000041e+00 3.550170000000000048e+00 1.675204000000000093e+01 -3.514460000000000139e+00 6.602089999999999570e+00 1.675121000000000038e+01 3.524430000000000174e+00 5.119899999999999451e-01 1.674776999999999916e+01 1.755479999999999929e+00 3.558539999999999814e+00 1.674813999999999936e+01 3.119999999999999944e-03 6.607140000000000235e+00 1.674776999999999916e+01 7.039030000000000342e+00 5.113499999999999712e-01 1.675007000000000090e+01 5.275999999999999801e+00 3.555550000000000210e+00 1.674461000000000155e+01 3.517090000000000050e+00 6.605349999999999611e+00 1.675336000000000070e+01 1.430000000000000064e-03 2.032939999999999969e+00 1.325205000000000055e+01 -1.757649999999999935e+00 5.078619999999999912e+00 1.325592999999999932e+01 -3.519239999999999924e+00 8.127330000000000609e+00 1.325629999999999953e+01 3.522069999999999812e+00 2.033469999999999889e+00 1.324977999999999945e+01 1.762820000000000054e+00 5.082720000000000127e+00 1.324954999999999927e+01 -4.089999999999999886e-03 8.125550000000000495e+00 1.324804999999999922e+01 7.036369999999999791e+00 2.034400000000000208e+00 1.325332000000000043e+01 5.282180000000000319e+00 5.077580000000000204e+00 1.325529000000000046e+01 3.517980000000000107e+00 8.127560000000000784e+00 1.325178999999999974e+01 2.350000000000000092e-03 5.058099999999999818e-01 2.037353999999999843e+01 -1.760140000000000038e+00 3.560369999999999813e+00 2.037550999999999846e+01 -3.514330000000000176e+00 6.606309999999999683e+00 2.037648000000000081e+01 3.521539999999999893e+00 5.052400000000000224e-01 2.037622000000000000e+01 1.762299999999999978e+00 3.551559999999999828e+00 2.037925999999999860e+01 5.239999999999999866e-03 6.600329999999999586e+00 2.037059999999999960e+01 7.041210000000000413e+00 5.072699999999999987e-01 2.038195999999999941e+01 5.273629999999999818e+00 3.554349999999999898e+00 2.037494999999999834e+01 3.520799999999999930e+00 6.610140000000000349e+00 2.037310000000000088e+01 4.599999999999999922e-03 1.899999999999999996e-03 1.143703999999999965e+01 -1.759840000000000071e+00 3.052589999999999915e+00 1.144124000000000052e+01 7.040619999999999656e+00 6.093090000000000117e+00 1.143769999999999953e+01 -1.755679999999999907e+00 9.144700000000000273e+00 1.143594000000000044e+01 1.753700000000000037e+00 3.047909999999999897e+00 1.143251000000000062e+01 -2.400000000000000061e-04 6.099429999999999907e+00 1.144444999999999979e+01 1.762259999999999938e+00 9.142939999999999401e+00 1.143817999999999913e+01 5.280059999999999754e+00 3.041630000000000056e+00 1.143764000000000003e+01 3.517980000000000107e+00 6.100050000000000416e+00 1.144086000000000070e+01 1.758229999999999960e+00 1.525630000000000042e+00 1.856008999999999887e+01 -1.139999999999999954e-03 4.575510000000000410e+00 1.856091999999999942e+01 -1.762399999999999967e+00 7.626420000000000421e+00 1.856384999999999863e+01 5.276049999999999685e+00 1.525449999999999973e+00 1.855460000000000065e+01 3.520999999999999908e+00 4.578199999999999825e+00 1.855709999999999837e+01 1.763430000000000053e+00 7.622589999999999755e+00 1.855754999999999910e+01 8.797399999999999665e+00 1.525400000000000089e+00 1.855489999999999995e+01 7.034089999999999954e+00 4.571790000000000020e+00 1.856279999999999930e+01 5.275159999999999627e+00 7.621199999999999974e+00 1.855755999999999872e+01
-9.280000000000000054e-03 2.037259999999999849e+00 9.625410000000000466e+00 -1.757109999999999950e+00 5.073479999999999990e+00 9.629339999999999122e+00 -3.518800000000000150e+00 8.134690000000000865e+00 9.621629999999999683e+00 3.528469999999999995e+00 2.032469999999999999e+00 9.618710000000000093e+00 1.757819999999999938e+00 5.072490000000000165e+00 9.616740000000000066e+00 -2.500000000000000052e-04 8.124810000000000088e+00 9.624340000000000117e+00 7.033479999999999954e+00 2.033189999999999831e+00 9.635690000000000310e+00 5.278699999999999726e+00 5.077359999999999651e+00 9.633699999999999264e+00 3.525040000000000173e+00 8.136219999999999786e+00 9.620979999999999421e+00 2.899999999999999800e-03 5.096899999999999764e-01 1.674471000000000132e+01 -1.767109999999999959e+00 3.547000000000000153e+00 1.675327000000000055e+01 -3.511709999999999887e+00 6.600649999999999906e+00 1.675203000000000131e+01 3.526609999999999800e+00 5.138899999999999579e-01 1.674687000000000126e+01 1.753230000000000066e+00 3.559530000000000083e+00 1.674744000000000099e+01 4.669999999999999672e-03 6.608220000000000205e+00 1.674688000000000088e+01 7.038540000000000241e+00 5.129299999999999971e-01 1.675029999999999930e+01 5.274009999999999643e+00 3.555050000000000043e+00 1.674213999999999913e+01 3.515649999999999942e+00 6.605529999999999902e+00 1.675521000000000171e+01 2.139999999999999975e-03 2.033329999999999860e+00 1.325252000000000052e+01 -1.756490000000000107e+00 5.077650000000000219e+00 1.325834000000000046e+01 -3.518850000000000033e+00 8.126509999999999678e+00 1.325886000000000031e+01 3.523080000000000211e+00 2.034110000000000085e+00 1.324910000000000032e+01 1.764219999999999899e+00 5.083770000000000344e+00 1.324878000000000000e+01 -6.130000000000000032e-03 8.123849999999999127e+00 1.324652999999999992e+01 7.034570000000000434e+00 2.035499999999999865e+00 1.325441999999999965e+01 5.283269999999999911e+00 5.076089999999999769e+00 1.325735000000000063e+01 3.516989999999999839e+00 8.126860000000000639e+00 1.325212999999999930e+01 3.500000000000000073e-03 5.046899999999999720e-01 2.037269999999999825e+01 -1.760210000000000052e+00 3.562300000000000022e+00 2.037565999999999988e+01 -3.511519999999999975e+00 6.607020000000000337e+00 2.037712000000000145e+01 3.522310000000000052e+00 5.038399999999999546e-01 2.037671999999999883e+01 1.763449999999999962e+00 3.549129999999999896e+00 2.038126000000000104e+01 7.849999999999999339e-03 6.598080000000000389e+00 2.036831000000000103e+01 7.041800000000000281e+00 5.068899999999999517e-01 2.038530000000000086e+01 5.270450000000000301e+00 3.553300000000000125e+00 2.037482999999999933e+01 3.521199999999999886e+00 6.612750000000000128e+00 2.037206000000000117e+01 6.870000000000000238e-03 2.860000000000000129e-03 1.143692000000000064e+01 -1.759770000000000056e+00 3.054650000000000087e+00 1.144321000000000055e+01 7.040939999999999976e+00 6.091269999999999740e+00 1.143792000000000009e+01 -1.753560000000000008e+00 9.144450000000000855e+00 1.143526999999999916e+01 1.750609999999999999e+00 3.047680000000000167e+00 1.143013999999999974e+01 -3.600000000000000227e-04 6.100699999999999790e+00 1.144795000000000051e+01 1.763379999999999947e+00 9.141819999999999169e+00 1.143862999999999985e+01 5.280079999999999885e+00 3.038310000000000066e+00 1.143783999999999956e+01 3.516980000000000217e+00 6.101639999999999731e+00 1.144260000000000055e+01 1.757379999999999942e+00 1.526310000000000056e+00 1.855928000000000111e+01 -1.709999999999999932e-03 4.576900000000000190e+00 1.856052999999999997e+01 -1.763549999999999951e+00 7.629069999999999574e+00 1.856487999999999872e+01 5.274099999999999788e+00 1.526059999999999972e+00 1.855112000000000094e+01 3.521469999999999878e+00 4.580940000000000012e+00 1.855483999999999867e+01 1.765120000000000022e+00 7.623380000000000045e+00 1.855552000000000135e+01 8.796120000000000161e+00 1.525970000000000049e+00 1.855159000000000091e+01 7.031159999999999854e+00 4.571360000000000312e+00 1.856334999999999980e+01 5.272809999999999775e+00 7.621279999999999610e+00 1.855549999999999855e+01
-1.237000000000000079e-02 2.038899999999999935e+00 9.625479999999999592e+00 -1.756140000000000034e+00 5.071110000000000007e+00 9.630729999999999791e+00 -3.518390000000000128e+00 8.136520000000000863e+00 9.620480000000000587e+00 3.531250000000000000e+00 2.032529999999999948e+00 9.616569999999999396e+00 1.757100000000000106e+00 5.069810000000000372e+00 9.613979999999999748e+00 -3.099999999999999999e-04 8.123379999999999157e+00 9.624069999999999681e+00 7.031349999999999767e+00 2.033479999999999954e+00 9.639170000000000016e+00 5.278260000000000396e+00 5.076249999999999929e+00 9.636530000000000484e+00 3.526720000000000077e+00 8.138579999999999259e+00 9.619609999999999772e+00 3.860000000000000150e-03 5.101599999999999469e-01 1.674308999999999870e+01 -1.769479999999999942e+00 3.543829999999999814e+00 1.675448000000000093e+01 -3.508980000000000210e+00 6.599190000000000111e+00 1.675284999999999869e+01 3.528770000000000184e+00 5.157500000000000417e-01 1.674596000000000018e+01 1.750990000000000046e+00 3.560490000000000155e+00 1.674672999999999945e+01 6.190000000000000190e-03 6.609270000000000422e+00 1.674599999999999866e+01 7.038059999999999761e+00 5.144699999999999829e-01 1.675049999999999883e+01 5.272020000000000373e+00 3.554539999999999811e+00 1.673967000000000027e+01 3.514219999999999899e+00 6.605699999999999683e+00 1.675700000000000145e+01 2.840000000000000076e-03 2.033739999999999881e+00 1.325298000000000087e+01 -1.755330000000000057e+00 5.076719999999999899e+00 1.326074999999999982e+01 -3.518450000000000077e+00 8.125709999999999766e+00 1.326139000000000046e+01 3.524059999999999970e+00 2.034769999999999968e+00 1.324841999999999942e+01 1.765609999999999902e+00 5.084830000000000183e+00 1.324801000000000073e+01 -8.139999999999999666e-03 8.122199999999999420e+00 1.324505000000000088e+01 7.032779999999999809e+00 2.036610000000000031e+00 1.325552000000000064e+01 5.284340000000000259e+00 5.074629999999999974e+00 1.325938000000000017e+01 3.516020000000000145e+00 8.126200000000000756e+00 1.325247000000000064e+01 4.640000000000000027e-03 5.035800000000000276e-01 2.037184999999999846e+01 -1.760289999999999910e+00 3.564210000000000100e+00 2.037580000000000169e+01 -3.508750000000000036e+00 6.607730000000000103e+00 2.037773999999999930e+01 3.523070000000000146e+00 5.024699999999999722e-01 2.037722000000000122e+01 1.764599999999999946e+00 3.546720000000000095e+00 2.038323000000000107e+01 1.044999999999999922e-02 6.595850000000000435e+00 2.036602999999999852e+01 7.042390000000000150e+00 5.065199999999999703e-01 2.038858000000000104e+01 5.267280000000000406e+00 3.552249999999999908e+00 2.037469000000000108e+01 3.521599999999999842e+00 6.615350000000000286e+00 2.037103000000000108e+01 9.110000000000000042e-03 3.810000000000000019e-03 1.143683000000000050e+01 -1.759710000000000107e+00 3.056680000000000064e+00 1.144519999999999982e+01 7.041269999999999918e+00 6.089489999999999625e+00 1.143815000000000026e+01 -1.751489999999999991e+00 9.144220000000000681e+00 1.143459000000000003e+01 1.747600000000000042e+00 3.047449999999999992e+00 1.142779999999999951e+01 -4.699999999999999859e-04 6.101930000000000298e+00 1.145134999999999970e+01 1.764480000000000048e+00 9.140719999999999956e+00 1.143906999999999918e+01 5.280070000000000263e+00 3.035079999999999778e+00 1.143806000000000012e+01 3.516010000000000080e+00 6.103220000000000312e+00 1.144427999999999912e+01 1.756550000000000056e+00 1.526980000000000004e+00 1.855848999999999904e+01 -2.269999999999999882e-03 4.578249999999999709e+00 1.856013000000000090e+01 -1.764650000000000052e+00 7.631669999999999732e+00 1.856587999999999994e+01 5.272190000000000154e+00 1.526639999999999997e+00 1.854775000000000063e+01 3.521900000000000031e+00 4.583610000000000184e+00 1.855264000000000024e+01 1.766769999999999952e+00 7.624189999999999579e+00 1.855354000000000170e+01 8.794859999999999900e+00 1.526510000000000034e+00 1.854839000000000127e+01 7.028249999999999886e+00 4.570920000000000094e+00 1.856390000000000029e+01 5.270529999999999937e+00 7.621349999999999625e+00 1.855348000000000042e+01
-1.545999999999999978e-02 2.040519999999999889e+00 9.625540000000000873e+00 -1.755179999999999962e+00 5.068780000000000285e+00 9.632120000000000459e+00 -3.517970000000000041e+00 8.138320000000000221e+00 9.619350000000000733e+00 3.533999999999999808e+00 2.032570000000000210e+00 9.614449999999999719e+00 1.756369999999999987e+00 5.067179999999999573e+00 9.611269999999999314e+00 -3.499999999999999964e-04 8.121940000000000381e+00 9.623799999999999244e+00 7.029250000000000220e+00 2.033760000000000012e+00 9.642620000000000857e+00 5.277809999999999668e+00 5.075149999999999828e+00 9.639359999999999928e+00 3.528399999999999981e+00 8.140909999999999869e+00 9.618259999999999366e+00 4.799999999999999580e-03 5.106000000000000538e-01 1.674146999999999963e+01 -1.771840000000000082e+00 3.540690000000000115e+00 1.675568000000000168e+01 -3.506279999999999841e+00 6.597699999999999676e+00 1.675366999999999962e+01 3.530879999999999797e+00 5.175699999999999745e-01 1.674502999999999986e+01 1.748750000000000027e+00 3.561420000000000030e+00 1.674603000000000108e+01 7.689999999999999787e-03 6.610289999999999999e+00 1.674512999999999963e+01 7.037569999999999659e+00 5.159700000000000397e-01 1.675067999999999913e+01 5.270030000000000214e+00 3.554009999999999891e+00 1.673720000000000141e+01 3.512799999999999923e+00 6.605839999999999712e+00 1.675872999999999990e+01 3.540000000000000178e-03 2.034180000000000099e+00 1.325345000000000084e+01 -1.754189999999999916e+00 5.075849999999999973e+00 1.326317000000000057e+01 -3.518050000000000122e+00 8.124950000000000117e+00 1.326388000000000034e+01 3.525009999999999977e+00 2.035460000000000047e+00 1.324771999999999927e+01 1.766999999999999904e+00 5.085910000000000153e+00 1.324726000000000070e+01 -1.013000000000000012e-02 8.120620000000000616e+00 1.324361000000000033e+01 7.031019999999999825e+00 2.037720000000000198e+00 1.325661999999999985e+01 5.285400000000000098e+00 5.073199999999999932e+00 1.326139000000000046e+01 3.515080000000000204e+00 8.125600000000000378e+00 1.325281999999999982e+01 5.749999999999999903e-03 5.024899999999999922e-01 2.037096999999999980e+01 -1.760380000000000056e+00 3.566100000000000048e+00 2.037591000000000108e+01 -3.506019999999999914e+00 6.608439999999999870e+00 2.037834000000000145e+01 3.523820000000000174e+00 5.011200000000000099e-01 2.037771000000000043e+01 1.765740000000000087e+00 3.544340000000000046e+00 2.038514999999999944e+01 1.303999999999999951e-02 6.593650000000000233e+00 2.036374999999999957e+01 7.042959999999999887e+00 5.061600000000000543e-01 2.039179999999999993e+01 5.264109999999999623e+00 3.551200000000000134e+00 2.037453000000000003e+01 3.521999999999999797e+00 6.617930000000000312e+00 2.037000000000000099e+01 1.128999999999999969e-02 4.769999999999999934e-03 1.143675999999999959e+01 -1.759679999999999911e+00 3.058650000000000091e+00 1.144717999999999947e+01 7.041629999999999612e+00 6.087780000000000413e+00 1.143840999999999930e+01 -1.749479999999999924e+00 9.144000000000000128e+00 1.143393000000000015e+01 1.744680000000000009e+00 3.047239999999999949e+00 1.142549999999999955e+01 -5.800000000000000034e-04 6.103100000000000414e+00 1.145463999999999949e+01 1.765540000000000109e+00 9.139649999999999608e+00 1.143951999999999991e+01 5.280030000000000001e+00 3.031940000000000079e+00 1.143831999999999915e+01 3.515070000000000139e+00 6.104759999999999742e+00 1.144588000000000072e+01 1.755770000000000053e+00 1.527619999999999978e+00 1.855770000000000053e+01 -2.830000000000000050e-03 4.579519999999999591e+00 1.855972999999999828e+01 -1.765660000000000007e+00 7.634220000000000006e+00 1.856682999999999950e+01 5.270330000000000403e+00 1.527209999999999956e+00 1.854450999999999894e+01 3.522279999999999855e+00 4.586210000000000342e+00 1.855050999999999917e+01 1.768380000000000063e+00 7.625009999999999621e+00 1.855162999999999940e+01 8.793639999999999901e+00 1.527009999999999978e+00 1.854532999999999987e+01 7.025369999999999671e+00 4.570459999999999745e+00 1.856445000000000078e+01 5.268340000000000245e+00 7.621419999999999639e+00 1.855150000000000077e+01
-1.855000000000000052e-02 2.042129999999999779e+00 9.625590000000000757e+00 -1.754219999999999891e+00 5.066480000000000317e+00 9.633509999999999351e+00 -3.517529999999999824e+00 8.140079999999999316e+00 9.618249999999999744e+00 3.536709999999999798e+00 2.032610000000000028e+00 9.612349999999999284e+00 1.755640000000000089e+00 5.064589999999999925e+00 9.608610000000000539e+00 -3.800000000000000209e-04 8.120499999999999829e+00 9.623549999999999827e+00 7.027199999999999669e+00 2.034019999999999939e+00 9.646029999999999660e+00 5.277350000000000207e+00 5.074049999999999727e+00 9.642189999999999372e+00 3.530069999999999819e+00 8.143219999999999459e+00 9.616939999999999600e+00 5.729999999999999850e-03 5.109900000000000553e-01 1.673984000000000094e+01 -1.774199999999999999e+00 3.537570000000000103e+00 1.675685000000000002e+01 -3.503610000000000113e+00 6.596199999999999619e+00 1.675449000000000055e+01 3.532939999999999969e+00 5.193299999999999583e-01 1.674408999999999992e+01 1.746529999999999916e+00 3.562320000000000153e+00 1.674532999999999916e+01 9.159999999999999740e-03 6.611290000000000333e+00 1.674427000000000021e+01 7.037069999999999936e+00 5.174199999999999910e-01 1.675082000000000093e+01 5.268060000000000187e+00 3.553469999999999906e+00 1.673472999999999900e+01 3.511400000000000077e+00 6.605959999999999610e+00 1.676035999999999859e+01 4.239999999999999845e-03 2.034660000000000135e+00 1.325392000000000081e+01 -1.753060000000000063e+00 5.075029999999999930e+00 1.326559999999999917e+01 -3.517619999999999969e+00 8.124219999999999331e+00 1.326632000000000033e+01 3.525920000000000165e+00 2.036169999999999813e+00 1.324700999999999951e+01 1.768369999999999997e+00 5.086990000000000123e+00 1.324652000000000029e+01 -1.209999999999999964e-02 8.119099999999999540e+00 1.324221999999999966e+01 7.029289999999999594e+00 2.038839999999999986e+00 1.325772000000000084e+01 5.286439999999999806e+00 5.071819999999999773e+00 1.326336000000000048e+01 3.514159999999999950e+00 8.125059999999999505e+00 1.325318000000000040e+01 6.830000000000000134e-03 5.013999999999999568e-01 2.037006999999999834e+01 -1.760480000000000045e+00 3.567969999999999864e+00 2.037600000000000122e+01 -3.503350000000000186e+00 6.609140000000000015e+00 2.037893000000000043e+01 3.524560000000000137e+00 4.998099999999999765e-01 2.037819000000000003e+01 1.766869999999999941e+00 3.541999999999999815e+00 2.038701999999999970e+01 1.562000000000000020e-02 6.591499999999999915e+00 2.036148999999999987e+01 7.043520000000000003e+00 5.058200000000000474e-01 2.039492999999999867e+01 5.260950000000000237e+00 3.550159999999999982e+00 2.037435999999999936e+01 3.522400000000000198e+00 6.620490000000000208e+00 2.036899000000000015e+01 1.341000000000000004e-02 5.720000000000000258e-03 1.143671999999999933e+01 -1.759670000000000067e+00 3.060560000000000169e+00 1.144918000000000013e+01 7.042010000000000325e+00 6.086129999999999818e+00 1.143870000000000076e+01 -1.747549999999999937e+00 9.143789999999999196e+00 1.143326000000000064e+01 1.741889999999999938e+00 3.047029999999999905e+00 1.142323999999999984e+01 -6.800000000000000488e-04 6.104190000000000005e+00 1.145777999999999963e+01 1.766580000000000039e+00 9.138590000000000657e+00 1.143995999999999924e+01 5.279950000000000365e+00 3.028929999999999900e+00 1.143861000000000061e+01 3.514159999999999950e+00 6.106270000000000309e+00 1.144739000000000040e+01 1.755039999999999933e+00 1.528229999999999977e+00 1.855692000000000164e+01 -3.380000000000000192e-03 4.580720000000000347e+00 1.855931999999999960e+01 -1.766590000000000105e+00 7.636709999999999887e+00 1.856772000000000133e+01 5.268530000000000157e+00 1.527770000000000072e+00 1.854141999999999868e+01 3.522600000000000176e+00 4.588709999999999845e+00 1.854846999999999824e+01 1.769940000000000069e+00 7.625860000000000305e+00 1.854981000000000080e+01 8.792460000000000164e+00 1.527479999999999949e+00 1.854243999999999915e+01 7.022529999999999717e+00 4.569969999999999644e+00 1.856500000000000128e+01 5.266269999999999563e+00 7.621480000000000032e+00 1.854954999999999998e+01