-9.999999999999999547e-07 -4.048999999999999648e-03 -1.090000000000000040e-03 3.000000000000000076e-06 -4.053000000000000179e-03 -1.090999999999999956e-03 -9.999999999999999547e-07 -4.048999999999999648e-03 -1.095000000000000053e-03 9.999999999999999547e-07 -4.048999999999999648e-03 -1.092000000000000089e-03 0.000000000000000000e+00 -4.048000000000000383e-03 -1.090000000000000040e-03 1.999999999999999909e-06 -4.049999999999999781e-03 -1.090999999999999956e-03 9.999999999999999547e-07 -4.050999999999999913e-03 -1.090000000000000040e-03 -1.999999999999999909e-06 -4.050999999999999913e-03 -1.092000000000000089e-03 -1.999999999999999909e-06 -4.048999999999999648e-03 -1.088999999999999907e-03 -9.999999999999999547e-07 -1.050470000000000015e-01 -5.500000000000000196e-05 0.000000000000000000e+00 -1.050510000000000055e-01 -5.300000000000000078e-05 0.000000000000000000e+00 -1.050480000000000025e-01 -5.399999999999999798e-05 -9.999999999999999547e-07 -1.050490000000000035e-01 -5.300000000000000078e-05 9.999999999999999547e-07 -1.050490000000000035e-01 -5.399999999999999798e-05 0.000000000000000000e+00 -1.050480000000000025e-01 -5.399999999999999798e-05 9.999999999999999547e-07 -1.050480000000000025e-01 -5.399999999999999798e-05 -1.999999999999999909e-06 -1.050480000000000025e-01 -5.300000000000000078e-05 -9.999999999999999547e-07 -1.050500000000000045e-01 -5.599999999999999916e-05 -9.999999999999999547e-07 1.068719999999999948e-01 -2.809999999999999998e-04 3.000000000000000076e-06 1.068680000000000047e-01 -2.790000000000000054e-04 -9.999999999999999547e-07 1.068739999999999968e-01 -2.759999999999999867e-04 0.000000000000000000e+00 1.068729999999999958e-01 -2.779999999999999811e-04 -9.999999999999999547e-07 1.068719999999999948e-01 -2.799999999999999755e-04 3.000000000000000076e-06 1.068709999999999938e-01 -2.790000000000000054e-04 9.999999999999999547e-07 1.068700000000000067e-01 -2.799999999999999755e-04 -3.000000000000000076e-06 1.068700000000000067e-01 -2.779999999999999811e-04 -9.999999999999999547e-07 1.068719999999999948e-01 -2.820000000000000241e-04 -9.999999999999999547e-07 -1.959999999999999937e-04 1.016999999999999892e-03 9.999999999999999547e-07 -1.979999999999999881e-04 1.016999999999999892e-03 9.999999999999999547e-07 -1.959999999999999937e-04 1.018000000000000025e-03 0.000000000000000000e+00 -1.979999999999999881e-04 1.015999999999999976e-03 1.999999999999999909e-06 -1.969999999999999909e-04 1.016999999999999892e-03 -1.999999999999999909e-06 -1.959999999999999937e-04 1.016999999999999892e-03 9.999999999999999547e-07 -1.969999999999999909e-04 1.016999999999999892e-03 -9.999999999999999547e-07 -1.969999999999999909e-04 1.016999999999999892e-03 0.000000000000000000e+00 -1.979999999999999881e-04 1.016999999999999892e-03 -6.999999999999999895e-06 2.245600000000000027e-02 -3.910000000000000172e-04 3.000000000000000076e-06 2.244799999999999920e-02 -3.899999999999999929e-04 0.000000000000000000e+00 2.244700000000000167e-02 -3.910000000000000172e-04 3.000000000000000076e-06 2.245399999999999827e-02 -3.899999999999999929e-04 -3.000000000000000076e-06 2.245499999999999927e-02 -3.910000000000000172e-04 6.999999999999999895e-06 2.244700000000000167e-02 -3.939999999999999817e-04 3.000000000000000076e-06 2.245000000000000120e-02 -3.919999999999999873e-04 -9.999999999999999547e-07 2.244799999999999920e-02 -3.930000000000000117e-04 -6.999999999999999895e-06 2.245199999999999974e-02 -3.910000000000000172e-04 3.999999999999999819e-06 -2.014399999999999871e-02 5.220000000000000031e-04 0.000000000000000000e+00 -2.014399999999999871e-02 5.240000000000000517e-04 -1.999999999999999909e-06 -2.014000000000000165e-02 5.249999999999999676e-04 -1.999999999999999909e-06 -2.014399999999999871e-02 5.230000000000000274e-04 9.999999999999999547e-07 -2.014600000000000071e-02 5.220000000000000031e-04 0.000000000000000000e+00 -2.014099999999999918e-02 5.249999999999999676e-04 -9.999999999999999547e-07 -2.014399999999999871e-02 5.240000000000000517e-04 0.000000000000000000e+00 -2.014300000000000118e-02 5.249999999999999676e-04 9.999999999999999547e-07 -2.014099999999999918e-02 5.249999999999999676e-04
4.087000000000000355e-03 -1.719199999999999895e-02 -9.282000000000000320e-03 -1.010999999999999963e-03 2.570000000000000062e-02 -2.713999999999999833e-03 9.499000000000000499e-03 -2.880100000000000021e-02 1.932700000000000043e-02 -3.087099999999999914e-02 -1.014900000000000004e-02 1.459399999999999933e-02 -5.879999999999999810e-04 3.655200000000000116e-02 3.998600000000000071e-02 1.427600000000000049e-02 -4.751000000000000015e-03 3.930999999999999599e-03 3.033500000000000085e-02 -1.360800000000000030e-02 -2.672400000000000123e-02 -6.191000000000000322e-03 3.400000000000000244e-04 -8.477000000000000160e-03 -3.694999999999999934e-03 -2.157299999999999843e-02 1.970399999999999929e-02 -9.266999999999999196e-03 -1.112670000000000048e-01 -1.231000000000000106e-03 6.279999999999999992e-03 -6.170699999999999796e-02 -1.659300000000000011e-02 -2.496100000000000055e-02 -9.364999999999999714e-02 -1.146000000000000100e-03 -3.663600000000000190e-02 -1.188379999999999992e-01 -9.534000000000000807e-03 1.108400000000000010e-02 -1.031790000000000068e-01 3.774000000000000011e-03 -2.311900000000000066e-02 -1.018929999999999975e-01 8.524999999999999592e-03 -1.454999999999999913e-03 -1.177320000000000033e-01 -2.653499999999999956e-02 6.961000000000000174e-03 -8.917799999999999339e-02 4.207999999999999935e-03 1.343899999999999956e-02 -9.722300000000000386e-02 -6.131899999999999851e-02 -3.995000000000000287e-03 1.048280000000000045e-01 -6.899999999999999667e-05 -1.138300000000000076e-02 1.232729999999999937e-01 1.961000000000000069e-03 9.591999999999999832e-03 1.091440000000000049e-01 -3.719499999999999890e-02 -3.027499999999999983e-02 9.863399999999999945e-02 -8.803000000000000061e-03 -9.863999999999999505e-03 8.685500000000000165e-02 9.766999999999999640e-03 2.100399999999999837e-02 1.339670000000000027e-01 3.345599999999999963e-02 2.045399999999999996e-02 8.455100000000000116e-02 -9.070000000000000371e-04 -1.235299999999999940e-02 1.119229999999999947e-01 -2.932799999999999990e-02 2.287499999999999950e-02 1.261680000000000024e-01 4.035000000000000392e-03 -2.366300000000000001e-02 1.229899999999999917e-02 -1.721800000000000067e-02 -7.988000000000000309e-03 -2.025000000000000064e-02 -1.730900000000000147e-02 -4.125700000000000200e-02 -1.232999999999999938e-03 -1.563099999999999906e-02 -7.927999999999999284e-03 2.610799999999999926e-02 -9.421000000000000554e-03 -5.013000000000000095e-03 3.057100000000000095e-02 -4.116800000000000320e-02 -1.168600000000000021e-02 3.095699999999999841e-02 8.593999999999999209e-03 -1.130899999999999961e-02 1.507299999999999959e-02 -6.337900000000000478e-02 7.969000000000000389e-03 6.242000000000000152e-03 -1.207899999999999946e-02 -6.610000000000000207e-04 -1.658300000000000052e-02 8.177000000000000240e-03 -3.311800000000000160e-02 1.463899999999999924e-02 1.626000000000000015e-02 -1.177300000000000048e-02 -1.787499999999999853e-02 3.000000000000000062e-03 1.314599999999999970e-02 5.507999999999999702e-02 1.433899999999999932e-02 -4.171300000000000008e-02 2.556599999999999845e-02 3.069000000000000113e-03 6.526800000000000657e-02 2.198999999999999913e-02 2.451100000000000154e-02 4.046000000000000117e-03 -2.295900000000000024e-02 -7.895499999999999741e-02 -1.725700000000000151e-02 3.177300000000000263e-02 -3.550000000000000096e-04 -1.869200000000000028e-02 8.350000000000000477e-02 2.129500000000000143e-02 1.816299999999999859e-02 -5.708000000000000400e-03 -4.960900000000000032e-02 2.816700000000000106e-02 -3.194000000000000311e-02 7.564999999999999676e-03 4.284999999999999747e-03 -5.858000000000000013e-02 -5.540000000000000219e-04 4.903199999999999920e-02 -5.233299999999999758e-02 -3.061300000000000132e-02 3.200599999999999973e-02 -2.743800000000000058e-02 8.629100000000000659e-02 -3.249400000000000205e-02 -6.584800000000000375e-02 4.808899999999999980e-02 -2.795200000000000115e-02 -3.318999999999999902e-03 4.665099999999999802e-02 2.172299999999999925e-02 -3.725099999999999939e-02 9.457799999999999541e-02 2.194099999999999870e-02 -2.632200000000000165e-02 1.284999999999999901e-03 6.271999999999999797e-02 -1.863100000000000173e-02 2.663700000000000095e-02
8.094999999999999765e-03 -3.036000000000000157e-02 -1.731600000000000153e-02 -2.155999999999999930e-03 5.544400000000000023e-02 -4.593999999999999993e-03 1.884299999999999864e-02 -5.305200000000000193e-02 3.936800000000000022e-02 -6.137800000000000200e-02 -1.622799999999999937e-02 2.980100000000000110e-02 -9.940000000000000918e-04 7.642599999999999394e-02 7.974900000000000044e-02 2.841300000000000076e-02 -5.428999999999999798e-03 8.862999999999999351e-03 6.098100000000000048e-02 -2.329799999999999927e-02 -5.267600000000000060e-02 -1.232800000000000042e-02 4.776999999999999996e-03 -1.587900000000000075e-02 -7.374000000000000346e-03 -3.876899999999999791e-02 4.026500000000000218e-02 -1.849900000000000155e-02 -1.172149999999999997e-01 -2.259000000000000157e-03 1.245800000000000032e-02 -1.781999999999999904e-02 -3.363700000000000023e-02 -4.976900000000000074e-02 -8.221499999999999642e-02 -2.350000000000000092e-03 -7.342999999999999527e-02 -1.326459999999999861e-01 -1.940100000000000158e-02 2.209500000000000006e-02 -1.012770000000000059e-01 7.566999999999999942e-03 -4.586699999999999805e-02 -9.878099999999999381e-02 1.684799999999999839e-02 -3.001000000000000195e-03 -1.303209999999999924e-01 -5.296100000000000113e-02 1.391000000000000049e-02 -7.321800000000000530e-02 8.576999999999999555e-03 2.698400000000000104e-02 -8.916300000000000614e-02 -1.230480000000000046e-01 -7.881000000000000852e-03 1.026399999999999951e-01 1.190000000000000058e-04 -2.258500000000000091e-02 1.394279999999999964e-01 4.217000000000000262e-03 1.883900000000000158e-02 1.112930000000000030e-01 -7.351800000000000002e-02 -6.033800000000000274e-02 9.005499999999999616e-02 -1.673900000000000041e-02 -1.980700000000000169e-02 6.677900000000000502e-02 1.998000000000000123e-02 4.195299999999999724e-02 1.612180000000000002e-01 6.759300000000000030e-02 4.084399999999999836e-02 6.225699999999999984e-02 -1.268999999999999946e-03 -2.454399999999999984e-02 1.169660000000000005e-01 -5.795800000000000257e-02 4.552199999999999996e-02 1.451399999999999912e-01 8.602000000000000271e-03 -4.678500000000000020e-02 2.454200000000000131e-02 -3.489199999999999940e-02 -1.594599999999999837e-02 -3.993499999999999828e-02 -3.522100000000000231e-02 -8.191500000000000170e-02 -2.625000000000000163e-03 -3.160000000000000309e-02 -1.573000000000000093e-02 5.232699999999999851e-02 -1.934200000000000155e-02 -1.019300000000000067e-02 6.071599999999999914e-02 -8.239399999999999502e-02 -2.327999999999999861e-02 6.215699999999999698e-02 1.654299999999999868e-02 -2.205999999999999975e-02 2.976300000000000126e-02 -1.259470000000000034e-01 1.601299999999999946e-02 1.267099999999999997e-02 -2.490300000000000152e-02 -1.338999999999999913e-03 -3.292500000000000288e-02 1.548000000000000070e-02 -6.575799999999999701e-02 7.026000000000000127e-03 3.250499999999999917e-02 -2.347499999999999934e-02 -5.793700000000000239e-02 6.444000000000000075e-03 2.616900000000000129e-02 8.720400000000000373e-02 2.911400000000000099e-02 -8.296800000000000008e-02 2.887299999999999936e-02 6.206999999999999844e-03 1.295820000000000027e-01 2.178400000000000128e-02 4.920599999999999974e-02 7.648000000000000284e-03 -6.815599999999999437e-02 -1.567129999999999912e-01 -3.438999999999999696e-02 4.100100000000000272e-02 -3.490000000000000263e-04 -3.739699999999999969e-02 1.442430000000000101e-01 4.292300000000000282e-02 3.650500000000000272e-02 -3.321000000000000341e-02 -9.809700000000000364e-02 5.581599999999999756e-02 -4.360800000000000093e-02 1.437100000000000009e-02 8.326000000000000068e-03 -9.679999999999999716e-02 -2.250999999999999963e-03 9.749199999999999533e-02 -8.447399999999999354e-02 -6.160299999999999804e-02 6.332699999999999441e-02 -3.403599999999999681e-02 1.707819999999999894e-01 -6.450100000000000278e-02 -1.115460000000000063e-01 9.517499999999999571e-02 -5.610899999999999915e-02 1.319799999999999966e-02 9.245000000000000440e-02 4.351300000000000306e-02 -5.480899999999999661e-02 1.876099999999999990e-01 4.379700000000000260e-02 -3.254300000000000248e-02 1.902999999999999961e-03 1.248849999999999960e-01 -1.682900000000000021e-02 5.214699999999999891e-02
1.215399999999999987e-02 -4.350300000000000000e-02 -2.509600000000000025e-02 -3.550000000000000204e-03 8.500199999999999423e-02 -6.823000000000000072e-03 2.793700000000000003e-02 -7.674799999999999678e-02 5.894499999999999740e-02 -9.141900000000000026e-02 -2.225399999999999948e-02 4.451600000000000001e-02 -1.126000000000000048e-03 1.153639999999999943e-01 1.179629999999999984e-01 4.231700000000000045e-02 -5.982999999999999603e-03 1.366400000000000080e-02 9.174999999999999822e-02 -3.304900000000000199e-02 -7.884499999999999842e-02 -1.827200000000000005e-02 9.299999999999999239e-03 -2.344699999999999909e-02 -1.112800000000000074e-02 -5.563499999999999696e-02 6.048499999999999710e-02 -2.769900000000000140e-02 -1.228920000000000012e-01 -3.044999999999999964e-03 1.854899999999999952e-02 2.634200000000000083e-02 -5.114199999999999996e-02 -7.432199999999999918e-02 -7.074900000000000633e-02 -3.720999999999999915e-03 -1.101000000000000034e-01 -1.464360000000000106e-01 -2.953000000000000069e-02 3.309299999999999742e-02 -9.939499999999999724e-02 1.124900000000000032e-02 -6.808899999999999675e-02 -9.575799999999999590e-02 2.485100000000000156e-02 -4.589000000000000197e-03 -1.427499999999999880e-01 -7.902299999999999602e-02 2.077199999999999880e-02 -5.730199999999999877e-02 1.324400000000000056e-02 4.059999999999999720e-02 -8.091800000000000381e-02 -1.847119999999999873e-01 -1.161900000000000086e-02 1.003480000000000066e-01 2.979999999999999793e-04 -3.354399999999999743e-02 1.552240000000000009e-01 6.422999999999999890e-03 2.768199999999999827e-02 1.133580000000000004e-01 -1.090519999999999962e-01 -9.005699999999999816e-02 8.113599999999999979e-02 -2.397799999999999931e-02 -2.978099999999999845e-02 4.672699999999999770e-02 3.029400000000000148e-02 6.276700000000000335e-02 1.884579999999999866e-01 1.018830000000000013e-01 6.107100000000000029e-02 4.005700000000000233e-02 -1.369999999999999907e-03 -3.654000000000000303e-02 1.221089999999999953e-01 -8.600399999999999712e-02 6.779300000000000603e-02 1.636460000000000137e-01 1.336399999999999914e-02 -6.919899999999999662e-02 3.646499999999999742e-02 -5.174800000000000233e-02 -2.384299999999999961e-02 -5.922499999999999987e-02 -5.244399999999999756e-02 -1.217290000000000039e-01 -4.366000000000000089e-03 -4.683199999999999863e-02 -2.334800000000000070e-02 7.824899999999999911e-02 -2.865900000000000045e-02 -1.555499999999999938e-02 9.012699999999999878e-02 -1.223780000000000007e-01 -3.479700000000000154e-02 9.328000000000000180e-02 2.496999999999999914e-02 -3.223100000000000270e-02 4.382300000000000084e-02 -1.862860000000000071e-01 2.415399999999999839e-02 1.912600000000000064e-02 -3.727699999999999764e-02 -2.017999999999999829e-03 -4.921299999999999980e-02 2.288799999999999862e-02 -9.774099999999999455e-02 -3.829999999999999854e-04 4.820200000000000179e-02 -3.503699999999999870e-02 -9.747000000000000108e-02 9.842000000000000054e-03 3.892700000000000327e-02 1.186350000000000043e-01 4.378599999999999853e-02 -1.234989999999999977e-01 3.237700000000000300e-02 9.029000000000000567e-03 1.925459999999999949e-01 2.180999999999999953e-02 7.360400000000000276e-02 1.083699999999999941e-02 -1.128350000000000047e-01 -2.330250000000000099e-01 -5.135800000000000087e-02 5.010099999999999970e-02 -3.660000000000000059e-04 -5.591499999999999942e-02 2.042690000000000061e-01 6.424199999999999355e-02 5.488300000000000123e-02 -5.984199999999999936e-02 -1.454670000000000130e-01 8.277900000000000535e-02 -5.511200000000000127e-02 2.083199999999999982e-02 1.213900000000000048e-02 -1.345030000000000114e-01 -4.564999999999999614e-03 1.450299999999999923e-01 -1.164020000000000055e-01 -9.221699999999999342e-02 9.383900000000000574e-02 -3.993200000000000222e-02 2.532630000000000159e-01 -9.576099999999999890e-02 -1.568960000000000077e-01 1.413550000000000084e-01 -8.422599999999999532e-02 2.924900000000000069e-02 1.374589999999999979e-01 6.520299999999999707e-02 -7.277200000000000335e-02 2.787810000000000010e-01 6.542800000000000005e-02 -3.872500000000000248e-02 2.308000000000000156e-03 1.860610000000000042e-01 -1.482600000000000064e-02 7.682999999999999552e-02
1.636999999999999914e-02 -5.657100000000000323e-02 -3.248499999999999999e-02 -5.276999999999999573e-03 1.141699999999999937e-01 -9.405000000000000165e-03 3.665899999999999714e-02 -9.980999999999999595e-02 7.799100000000000477e-02 -1.208700000000000052e-01 -2.817599999999999966e-02 5.872999999999999748e-02 -9.330000000000000186e-04 1.531740000000000046e-01 1.544280000000000097e-01 5.589899999999999730e-02 -6.352000000000000007e-03 1.832999999999999907e-02 1.224539999999999934e-01 -4.278300000000000158e-02 -1.051030000000000020e-01 -2.387799999999999992e-02 1.394699999999999933e-02 -3.126099999999999712e-02 -1.499900000000000018e-02 -7.212399999999999367e-02 8.028000000000000413e-02 -3.685100000000000181e-02 -1.282560000000000089e-01 -3.429999999999999889e-03 2.456900000000000056e-02 7.048100000000000198e-02 -6.892600000000000116e-02 -9.849499999999999922e-02 -5.930400000000000255e-02 -5.278999999999999838e-03 -1.463720000000000021e-01 -1.601370000000000016e-01 -3.975200000000000261e-02 4.407300000000000106e-02 -9.760699999999999932e-02 1.481200000000000051e-02 -8.962799999999999934e-02 -9.291699999999999959e-02 3.253999999999999948e-02 -6.160999999999999810e-03 -1.549159999999999981e-01 -1.043779999999999986e-01 2.750500000000000167e-02 -4.156100000000000072e-02 1.839800000000000116e-02 5.423100000000000143e-02 -7.253700000000000425e-02 -2.457409999999999872e-01 -1.515400000000000080e-02 9.798700000000000465e-02 4.620000000000000083e-04 -4.417800000000000199e-02 1.705800000000000094e-01 8.451999999999999444e-03 3.605099999999999971e-02 1.153769999999999935e-01 -1.436129999999999907e-01 -1.193049999999999944e-01 7.189800000000000357e-02 -3.040100000000000094e-02 -3.975299999999999667e-02 2.679899999999999990e-02 4.059000000000000108e-02 8.335900000000000254e-02 2.154490000000000016e-01 1.360010000000000108e-01 8.100300000000000555e-02 1.803400000000000142e-02 -1.224999999999999960e-03 -4.829900000000000165e-02 1.274460000000000037e-01 -1.133289999999999992e-01 8.956999999999999684e-02 1.815279999999999949e-01 1.822899999999999868e-02 -9.072500000000000009e-02 4.802499999999999825e-02 -6.759199999999999930e-02 -3.162800000000000333e-02 -7.804999999999999438e-02 -6.881400000000000017e-02 -1.604470000000000063e-01 -6.450000000000000004e-03 -6.129400000000000126e-02 -3.075900000000000162e-02 1.036880000000000024e-01 -3.730800000000000088e-02 -2.115300000000000166e-02 1.186709999999999987e-01 -1.609140000000000015e-01 -4.625699999999999951e-02 1.241349999999999953e-01 3.391000000000000264e-02 -4.181800000000000100e-02 5.722000000000000003e-02 -2.440100000000000047e-01 3.242099999999999843e-02 2.562800000000000147e-02 -4.901599999999999707e-02 -2.675999999999999993e-03 -6.540500000000000480e-02 3.036000000000000157e-02 -1.288449999999999873e-01 -7.571999999999999738e-03 6.320599999999999830e-02 -4.637399999999999856e-02 -1.361479999999999912e-01 1.309899999999999953e-02 5.132500000000000256e-02 1.491429999999999978e-01 5.822499999999999898e-02 -1.629889999999999950e-01 3.605400000000000271e-02 1.153599999999999938e-02 2.536640000000000006e-01 2.204199999999999909e-02 9.753399999999999570e-02 1.363999999999999935e-02 -1.566480000000000095e-01 -3.072039999999999771e-01 -6.807399999999999562e-02 5.900799999999999795e-02 -3.840000000000000097e-04 -7.403800000000000658e-02 2.630899999999999905e-01 8.503199999999999648e-02 7.312299999999999356e-02 -8.537500000000000644e-02 -1.912929999999999908e-01 1.088549999999999934e-01 -6.636799999999999644e-02 2.684200000000000128e-02 1.572600000000000040e-02 -1.713939999999999908e-01 -7.474999999999999874e-03 1.912770000000000026e-01 -1.479379999999999862e-01 -1.222250000000000003e-01 1.233960000000000057e-01 -4.513299999999999951e-02 3.329639999999999822e-01 -1.260580000000000034e-01 -2.015379999999999949e-01 1.861649999999999971e-01 -1.120349999999999957e-01 4.468199999999999950e-02 1.811800000000000077e-01 8.661900000000000155e-02 -9.101299999999999668e-02 3.672130000000000116e-01 8.668800000000000117e-02 -4.478900000000000242e-02 2.416000000000000179e-03 2.457850000000000035e-01 -1.268999999999999989e-02 1.004489999999999966e-01
2.084599999999999995e-02 -6.952300000000000146e-02 -3.935000000000000303e-02 -7.419000000000000247e-03 1.427569999999999950e-01 -1.235400000000000040e-02 4.489200000000000135e-02 -1.221730000000000038e-01 9.645199999999999607e-02 -1.496159999999999990e-01 -3.395399999999999807e-02 7.244299999999999351e-02 -3.559999999999999797e-04 1.897000000000000075e-01 1.890060000000000073e-01 6.907099999999999351e-02 -6.479000000000000384e-03 2.284800000000000025e-02 1.528819999999999901e-01 -5.240100000000000313e-02 -1.313169999999999893e-01 -2.901199999999999959e-02 1.876099999999999990e-02 -3.938799999999999940e-02 -1.901200000000000112e-02 -8.821800000000000475e-02 9.958300000000000485e-02 -4.593499999999999667e-02 -1.332800000000000096e-01 -3.269999999999999903e-03 3.054199999999999970e-02 1.142979999999999968e-01 -8.680599999999999428e-02 -1.221769999999999939e-01 -4.791299999999999726e-02 -7.036999999999999852e-03 -1.819659999999999889e-01 -1.736759999999999970e-01 -4.985699999999999854e-02 5.503000000000000252e-02 -9.598099999999999687e-02 1.825399999999999939e-02 -1.103470000000000006e-01 -9.032700000000000451e-02 3.993900000000000228e-02 -7.657999999999999877e-03 -1.667180000000000051e-01 -1.286980000000000068e-01 3.406399999999999706e-02 -2.612700000000000092e-02 2.422500000000000001e-02 6.782799999999999940e-02 -6.407100000000000295e-02 -3.055450000000000110e-01 -1.843600000000000100e-02 9.557499999999999329e-02 5.919999999999999698e-04 -5.441100000000000103e-02 1.854129999999999945e-01 1.017799999999999955e-02 4.388600000000000140e-02 1.173980000000000024e-01 -1.770599999999999952e-01 -1.479699999999999904e-01 6.235999999999999877e-02 -3.591699999999999754e-02 -4.966099999999999681e-02 7.106999999999999602e-03 5.072900000000000326e-02 1.036310000000000009e-01 2.419530000000000014e-01 1.696189999999999920e-01 1.005120000000000041e-01 -3.723999999999999880e-03 -8.530000000000000256e-04 -5.980499999999999705e-02 1.330679999999999918e-01 -1.398280000000000078e-01 1.107510000000000022e-01 1.986199999999999910e-01 2.307599999999999929e-02 -1.111970000000000042e-01 5.918699999999999656e-02 -8.224299999999999666e-02 -3.925200000000000217e-02 -9.636400000000000521e-02 -8.415899999999999770e-02 -1.978449999999999931e-01 -8.852999999999999758e-03 -7.498100000000000598e-02 -3.794399999999999856e-02 1.284579999999999889e-01 -4.524600000000000150e-02 -2.703600000000000100e-02 1.462350000000000039e-01 -1.978100000000000136e-01 -5.767599999999999810e-02 1.545360000000000067e-01 4.339900000000000008e-02 -5.083300000000000318e-02 6.993699999999999917e-02 -2.988069999999999893e-01 4.084299999999999736e-02 3.219700000000000339e-02 -5.994100000000000122e-02 -3.279999999999999930e-03 -8.147100000000000175e-02 3.786599999999999688e-02 -1.588670000000000082e-01 -1.453899999999999984e-02 7.740700000000000358e-02 -5.740100000000000063e-02 -1.736550000000000038e-01 1.615899999999999975e-02 6.324299999999999367e-02 1.785329999999999973e-01 7.230000000000000315e-02 -2.011400000000000132e-01 3.987799999999999678e-02 1.374799999999999980e-02 3.124850000000000128e-01 2.245000000000000120e-02 1.208189999999999958e-01 1.609800000000000120e-02 -1.992510000000000114e-01 -3.785769999999999968e-01 -8.444699999999999429e-02 6.765999999999999792e-02 -3.780000000000000265e-04 -9.156400000000000650e-02 3.202400000000000246e-01 1.050699999999999967e-01 9.105900000000000105e-02 -1.095909999999999940e-01 -2.351590000000000069e-01 1.338590000000000058e-01 -7.731100000000000472e-02 3.229699999999999932e-02 1.908599999999999880e-02 -2.071780000000000010e-01 -1.095899999999999999e-02 2.358810000000000073e-01 -1.788949999999999985e-01 -1.514050000000000118e-01 1.518500000000000127e-01 -4.966099999999999681e-02 4.091560000000000197e-01 -1.551949999999999996e-01 -2.451190000000000035e-01 2.291519999999999946e-01 -1.392770000000000119e-01 5.935399999999999704e-02 2.231390000000000040e-01 1.075829999999999981e-01 -1.093910000000000021e-01 4.520879999999999899e-01 1.074530000000000068e-01 -5.065499999999999864e-02 2.167999999999999788e-03 3.036249999999999782e-01 -1.048900000000000006e-02 1.227850000000000052e-01
2.568199999999999997e-02 -8.231399999999999828e-02 -4.555700000000000027e-02 -1.004700000000000037e-02 1.705820000000000114e-01 -1.565300000000000025e-02 5.252600000000000324e-02 -1.437749999999999861e-01 1.142949999999999938e-01 -1.775579999999999936e-01 -3.954200000000000076e-02 8.564099999999999491e-02 6.340000000000000149e-04 2.248050000000000048e-01 2.215669999999999862e-01 8.175000000000000322e-02 -6.316999999999999699e-03 2.721499999999999961e-02 1.828269999999999895e-01 -6.181699999999999695e-02 -1.573249999999999926e-01 -3.354200000000000237e-02 2.378900000000000112e-02 -4.791000000000000120e-02 -2.319200000000000081e-02 -1.038899999999999962e-01 1.183339999999999947e-01 -5.492999999999999966e-02 -1.379289999999999961e-01 -2.435000000000000098e-03 3.645799999999999735e-02 1.574830000000000119e-01 -1.045829999999999954e-01 -1.452610000000000012e-01 -3.662900000000000184e-02 -9.003000000000000586e-03 -2.166200000000000070e-01 -1.869750000000000023e-01 -5.965999999999999776e-02 6.597100000000000186e-02 -9.458900000000000641e-02 2.155800000000000077e-02 -1.301140000000000074e-01 -8.804499999999999826e-02 4.704300000000000148e-02 -9.017999999999999974e-03 -1.780589999999999951e-01 -1.516560000000000130e-01 4.041499999999999954e-02 -1.111000000000000008e-02 3.089499999999999885e-02 8.133600000000000552e-02 -5.557600000000000040e-02 -3.635459999999999803e-01 -2.141399999999999901e-02 9.312700000000000145e-02 6.669999999999999497e-04 -6.416499999999999981e-02 1.996489999999999931e-01 1.148599999999999968e-02 5.112300000000000177e-02 1.194599999999999967e-01 -2.092630000000000046e-01 -1.759620000000000073e-01 5.254199999999999843e-02 -4.043800000000000172e-02 -5.946900000000000103e-02 -1.225200000000000074e-02 6.056899999999999784e-02 1.234890000000000015e-01 2.677160000000000095e-01 2.023870000000000113e-01 1.194810000000000039e-01 -2.514200000000000115e-02 -2.570000000000000127e-04 -7.102899999999999492e-02 1.390619999999999912e-01 -1.653779999999999972e-01 1.312419999999999976e-01 2.147830000000000017e-01 2.779500000000000026e-02 -1.304629999999999956e-01 6.992299999999999904e-02 -9.557300000000000517e-02 -4.668900000000000133e-02 -1.141220000000000012e-01 -9.833899999999999586e-02 -2.337229999999999863e-01 -1.156399999999999963e-02 -8.789900000000000491e-02 -4.489499999999999741e-02 1.523899999999999977e-01 -5.245799999999999769e-02 -3.323299999999999865e-02 1.727080000000000004e-01 -2.329199999999999882e-01 -6.905899999999999539e-02 1.843110000000000026e-01 5.344600000000000045e-02 -5.929199999999999748e-02 8.196199999999999319e-02 -3.504050000000000220e-01 4.945100000000000190e-02 3.886300000000000171e-02 -6.990799999999999792e-02 -3.811000000000000151e-03 -9.737800000000000622e-02 4.535100000000000242e-02 -1.876190000000000080e-01 -2.126000000000000112e-02 9.067899999999999572e-02 -6.803199999999999525e-02 -2.096989999999999965e-01 1.894699999999999857e-02 7.458399999999999752e-02 2.066290000000000071e-01 8.587000000000000188e-02 -2.376830000000000054e-01 4.381499999999999978e-02 1.567899999999999849e-02 3.685829999999999940e-01 2.299100000000000102e-02 1.433039999999999869e-01 1.825699999999999892e-02 -2.403160000000000018e-01 -4.464940000000000020e-01 -1.003919999999999951e-01 7.600200000000000011e-02 -3.280000000000000038e-04 -1.082950000000000024e-01 3.752800000000000025e-01 1.241310000000000052e-01 1.085249999999999965e-01 -1.322909999999999919e-01 -2.766919999999999935e-01 1.576239999999999863e-01 -8.787999999999999978e-02 3.711600000000000316e-02 2.222599999999999923e-02 -2.415920000000000012e-01 -1.495400000000000028e-02 2.785139999999999838e-01 -2.090970000000000051e-01 -1.795200000000000129e-01 1.790769999999999862e-01 -5.355700000000000044e-02 4.811630000000000074e-01 -1.829939999999999900e-01 -2.872910000000000186e-01 2.698940000000000228e-01 -1.656890000000000029e-01 7.313300000000000356e-02 2.628750000000000253e-01 1.279240000000000099e-01 -1.277669999999999917e-01 5.326109999999999456e-01 1.275870000000000060e-01 -5.624599999999999739e-02 1.521000000000000000e-03 3.591630000000000100e-01 -8.307000000000000148e-03 1.436369999999999869e-01