2.103770649811706750e-01 0.000000000000000000e+00 0.000000000000000000e+00 0.000000000000000000e+00 2.232539351868687572e+00 -4.507808719600406633e+00 0.000000000000000000e+00 -4.507808719600406633e+00 -1.948438091088287860e-01
4.298317719273188342e-02 7.048734736948628066e-02 -9.773835621654010375e-02 7.048734736948628066e-02 2.233642411948097539e+00 -4.449635862625640925e+00 -9.773835621654010375e-02 -4.449635862625640925e+00 -4.263236792157538146e-01
-1.110293260258198439e-01 1.396003903777409128e-01 -1.937226660772977116e-01 1.396003903777409128e-01 2.246644054523433631e+00 -4.397339965090353076e+00 -1.937226660772977116e-01 -4.397339965090353076e+00 -6.386717859781646522e-01
-2.508467118290184095e-01 2.069232211259701137e-01 -2.878986807259084069e-01 2.069232211259701137e-01 2.271471947786210865e+00 -4.350957192898784243e+00 -2.878986807259084069e-01 -4.350957192898784243e+00 -8.314903044493888729e-01
-3.767221415465642487e-01 2.720399317153800456e-01 -3.803025660666151664e-01 2.720399317153800456e-01 2.306914533944290024e+00 -4.310668375572151767e+00 -3.803025660666151664e-01 -4.310668375572151767e+00 -1.005249391384584801e+00
-4.891619378378586624e-01 3.345888631035414673e-01 -4.709343220994179346e-01 3.345888631035414673e-01 2.351561342732197080e+00 -4.276600093775304146e+00 -4.709343220994179346e-01 -4.276600093775304146e+00 -1.160780862581340056e+00
-5.888713358356388872e-01 3.942806880565107308e-01 -5.599566953934099756e-01 3.942806880565107308e-01 2.403784908458999503e+00 -4.248951259981577522e+00 -5.599566953934099756e-01 -4.248951259981577522e+00 -1.299477105353007422e+00
-6.768448979065857518e-01 4.508441622924658776e-01 -6.474239348049556364e-01 4.508441622924658776e-01 2.461758852960429067e+00 -4.227866537807944525e+00 -6.474239348049556364e-01 -4.227866537807944525e+00 -1.423001751294762363e+00
-7.544569284119307939e-01 5.040080415295847827e-01 -7.336072846158769867e-01 5.040080415295847827e-01 2.523439802646760377e+00 -4.213617171536227168e+00 -7.336072846158769867e-01 -4.213617171536227168e+00 -1.533994911416339146e+00
-8.230274828565413703e-01 5.536276621508957607e-01 -8.187237402516317486e-01 5.536276621508957607e-01 2.586675886215537457e+00 -4.206293575927031902e+00 -8.187237402516317486e-01 -4.206293575927031902e+00 -1.634933950158379279e+00
2.272167490203454321e+01 -1.368840822094912468e+01 -2.287839985555087452e+01 -1.368840822094912468e+01 4.167449031103769386e+01 1.907161125426170400e+01 -2.287839985555087452e+01 1.907161125426170400e+01 5.055769267522426702e+01
2.261658292532580106e+01 -1.371317257223710229e+01 -2.283125367834461983e+01 -1.371317257223710229e+01 4.157388513393028262e+01 1.902307382136511293e+01 -2.283125367834461983e+01 1.902307382136511293e+01 5.029217152672367064e+01
2.244462372200029066e+01 -1.371425079539711334e+01 -2.272593562258619571e+01 -1.371425079539711334e+01 4.138754382490593287e+01 1.889560001873809014e+01 -2.272593562258619571e+01 1.889560001873809014e+01 4.981505777841912419e+01
2.220684073382576784e+01 -1.369192114156722262e+01 -2.256293262776722486e+01 -1.369192114156722262e+01 4.111690981174334780e+01 1.869049414859033220e+01 -2.256293262776722486e+01 1.869049414859033220e+01 4.912826440688483842e+01
2.190387741655900911e+01 -1.364682706650421196e+01 -2.234313161939029158e+01 -1.364682706650421196e+01 4.076335695943675574e+01 1.840998222002636808e+01 -2.234313161939029158e+01 1.840998222002636808e+01 4.823622603963375610e+01
2.153670764918325631e+01 -1.358015113754486869e+01 -2.206799341593024977e+01 -1.358015113754486869e+01 4.032898954221777643e+01 1.805696847929977977e+01 -2.206799341593024977e+01 1.805696847929977977e+01 4.714398597854335549e+01
2.110611401302431389e+01 -1.349354547082146105e+01 -2.173958751022647817e+01 -1.349354547082146105e+01 3.981587705292579216e+01 1.763531366095124753e+01 -2.173958751022647817e+01 1.763531366095124753e+01 4.585768313934723039e+01
2.061547030313125006e+01 -1.338887087081982052e+01 -2.136026164625641144e+01 -1.338887087081982052e+01 3.922887149578085086e+01 1.714952195527822809e+01 -2.136026164625641144e+01 1.714952195527822809e+01 4.438707370257386486e+01
2.006693296582409047e+01 -1.326854464430189751e+01 -2.093333744698072962e+01 -1.326854464430189751e+01 3.857171187045071292e+01 1.660501925947304258e+01 -2.093333744698072962e+01 1.660501925947304258e+01 4.274290511843109641e+01
1.946373667058286117e+01 -1.313527973986385433e+01 -2.046262347485173194e+01 -1.313527973986385433e+01 3.784975451134319258e+01 1.600804883344606466e+01 -2.046262347485173194e+01 1.600804883344606466e+01 4.093841170667326423e+01
-2.626212618651177166e+01 -3.214400878636209491e+00 1.334880810060565892e+01 -3.214400878636209491e+00 1.227815364522594344e+01 -1.197863284267419060e+00 1.334880810060565892e+01 -1.197863284267419060e+00 -1.380658394384971821e+01
-2.640947656603303884e+01 -3.207363248569521819e+00 1.321454331448963870e+01 -3.207363248569521819e+00 1.212754103093417868e+01 -1.201015556068122825e+00 1.321454331448963870e+01 -1.201015556068122825e+00 -1.423338688393569740e+01
-2.651461949231581627e+01 -3.200069038239986785e+00 1.306446218788520319e+01 -3.200069038239986785e+00 1.198524894802334195e+01 -1.214595982837433752e+00 1.306446218788520319e+01 -1.214595982837433752e+00 -1.460284413527515390e+01
-2.657687686037971275e+01 -3.192793155072083167e+00 1.289856472079235417e+01 -3.192793155072083167e+00 1.185246866199951299e+01 -1.237981441079863743e+00 1.289856472079235417e+01 -1.237981441079863743e+00 -1.491354450642242391e+01
-2.659676183075043099e+01 -3.185718870682131776e+00 1.271679593172619249e+01 -3.185718870682131776e+00 1.172929180867085108e+01 -1.270493825815029121e+00 1.271679593172619249e+01 -1.270493825815029121e+00 -1.516479156523549143e+01
-2.657493418124672147e+01 -3.178956148039924656e+00 1.251906418487856065e+01 -3.178956148039924656e+00 1.161553511642103764e+01 -1.311546667870705507e+00 1.251906418487856065e+01 -1.311546667870705507e+00 -1.535653033022945912e+01
-2.651282343047587986e+01 -3.172596622953620660e+00 1.230507624566334890e+01 -3.172596622953620660e+00 1.151050215310805491e+01 -1.360571825236301491e+00 1.230507624566334890e+01 -1.360571825236301491e+00 -1.548980544961735006e+01
-2.641145589948929384e+01 -3.166621968261589259e+00 1.207446557084791117e+01 -3.166621968261589259e+00 1.141367975820620728e+01 -1.417019483062856633e+00 1.207446557084791117e+01 -1.417019483062856633e+00 -1.556503844811670412e+01
-2.627264597728853701e+01 -3.161160474095253914e+00 1.182662736409839610e+01 -3.161160474095253914e+00 1.132404161066410175e+01 -1.480504770956099225e+00 1.182662736409839610e+01 -1.480504770956099225e+00 -1.558452022093151967e+01
-2.609806143558212099e+01 -3.156065523161557973e+00 1.156092017475768330e+01 -3.156065523161557973e+00 1.124065302523850995e+01 -1.550587837036861538e+00 1.156092017475768330e+01 -1.550587837036861538e+00 -1.554958865086093134e+01
2.314725481125766393e+01 7.724517300190926861e+00 7.239820982362608959e+00 7.724517300190926861e+00 6.060955982525610963e+00 -1.885272556454773252e+01 7.239820982362608959e+00 -1.885272556454773252e+01 3.347734730151866245e+01
2.302151464919866797e+01 7.778973376581165056e+00 7.197901684223070085e+00 7.778973376581165056e+00 6.011996937617293035e+00 -1.884873578363343682e+01 7.197901684223070085e+00 -1.884873578363343682e+01 3.325007164828073059e+01
2.284578696537344555e+01 7.820821745282226622e+00 7.139331700401201353e+00 7.820821745282226622e+00 5.937148647665096313e+00 -1.883126940940863037e+01 7.139331700401201353e+00 -1.883126940940863037e+01 3.291039056741736601e+01
2.262129529259571470e+01 7.849814153259446314e+00 7.064767128202910307e+00 7.849814153259446314e+00 5.836907618738356618e+00 -1.880037963895216890e+01 7.064767128202910307e+00 -1.880037963895216890e+01 3.245922614162875419e+01
2.234880212232909713e+01 7.865826473995488399e+00 6.974952726732199793e+00 7.865826473995488399e+00 5.710990133083170051e+00 -1.875606647226405244e+01 6.974952726732199793e+00 -1.875606647226405244e+01 3.189856439519223841e+01
2.202942459322958868e+01 7.868929636928830185e+00 6.870792846329639936e+00 7.868929636928830185e+00 5.558952881709056548e+00 -1.869822351518656589e+01 6.870792846329639936e+00 -1.869822351518656589e+01 3.123051547890248614e+01
2.166417344979548787e+01 7.859300965655661386e+00 6.753120907897331548e+00 7.859300965655661386e+00 5.380210696748588539e+00 -1.862672664120237798e+01 6.753120907897331548e+00 -1.862672664120237798e+01 3.045640931973093046e+01
2.125421902776165339e+01 7.837366036806842295e+00 6.622876726495086075e+00 7.837366036806842295e+00 5.174036551457380284e+00 -1.854143399143453763e+01 6.622876726495086075e+00 -1.854143399143453763e+01 2.957885257454158534e+01
2.080058980398598578e+01 7.803674553530563607e+00 6.481000117182713183e+00 7.803674553530563607e+00 4.939366504258289048e+00 -1.844211504520798783e+01 6.481000117182713183e+00 -1.844211504520798783e+01 2.860048736491767940e+01
2.030497035263230288e+01 7.758847148413494210e+00 6.328324500862312796e+00 7.758847148413494210e+00 4.675739513801215885e+00 -1.832857474656693242e+01 6.328324500862312796e+00 -1.832857474656693242e+01 2.752202298524399637e+01
-1.199748991419805577e+01 5.599429169496742631e+00 1.066470077935064653e+00 5.599429169496742631e+00 5.351216841917365130e+00 -4.875901630446492163e+00 1.066470077935064653e+00 -4.875901630446492163e+00 2.003720333356734784e+01
-1.216162623983974633e+01 5.573146374570869810e+00 9.594034136774975963e-01 5.573146374570869810e+00 5.299139645364308926e+00 -4.975190179206381735e+00 9.594034136774975963e-01 -4.975190179206381735e+00 1.973483361575530282e+01
-1.233137004409604209e+01 5.543788510727309493e+00 8.518302674805466879e-01 5.543788510727309493e+00 5.221684085919993557e+00 -5.082238754823256599e+00 8.518302674805466879e-01 -5.082238754823256599e+00 1.937555703432536447e+01
-1.250561791988471327e+01 5.511554553013677804e+00 7.439857916732116605e-01 5.511554553013677804e+00 5.119103404554111059e+00 -5.197119711859886415e+00 7.439857916732116605e-01 -5.197119711859886415e+00 1.896029610995284287e+01
-1.268431560128368396e+01 5.476607299196205147e+00 6.362498477100303473e-01 5.476607299196205147e+00 4.990909207967967554e+00 -5.319670252550039891e+00 6.362498477100303473e-01 -5.319670252550039891e+00 1.848926790632603812e+01
-1.286771632926264353e+01 5.439199990244583560e+00 5.289842084048480553e-01 5.439199990244583560e+00 4.836486482378028917e+00 -5.449872288253025054e+00 5.289842084048480553e-01 -5.449872288253025054e+00 1.796315979179126288e+01
-1.305645320624582695e+01 5.399404980721581815e+00 4.224421147273567656e-01 5.399404980721581815e+00 4.655129770797294064e+00 -5.587544932561918642e+00 4.224421147273567656e-01 -5.587544932561918642e+00 1.738151955033120544e+01
-1.325141257562715147e+01 5.357457422956199977e+00 3.169129849286327905e-01 5.357457422956199977e+00 4.446061261675995802e+00 -5.732760540039491204e+00 3.169129849286327905e-01 -5.732760540039491204e+00 1.674418438417963984e+01
-1.345362548992607898e+01 5.313465848792590762e+00 2.126500599783680001e-01 5.313465848792590762e+00 4.208503143464366936e+00 -5.885501022045048991e+00 2.126500599783680001e-01 -5.885501022045048991e+00 1.605147988886902155e+01
-1.366437624263175721e+01 5.267538790074907773e+00 1.098704035648696287e-01 5.267538790074907773e+00 3.941713781894024660e+00 -6.045784467219284863e+00 1.098704035648696287e-01 -6.045784467219284863e+00 1.530226648003574397e+01
-3.131737803050628344e+01 1.277465315689879510e+01 -7.568927697599446835e-01 1.277465315689879510e+01 1.983348645374192420e+00 -6.641207277421056432e+00 -7.568927697599446835e-01 -6.641207277421056432e+00 -2.232881812119724430e+01
-3.133607908480095716e+01 1.281960975078736986e+01 -7.933875994775643203e-01 1.281960975078736986e+01 1.934522229359295409e+00 -6.804184188214810192e+00 -7.933875994775643203e-01 -6.804184188214810192e+00 -2.242763745463354041e+01
-3.130562043696458829e+01 1.285791913824843213e+01 -8.257533845340833123e-01 1.285791913824843213e+01 1.908877714311652873e+00 -6.965328025369778686e+00 -8.257533845340833123e-01 -6.965328025369778686e+00 -2.243561780552562013e+01
-3.122605763468320106e+01 1.288924803316584011e+01 -8.543974746270094345e-01 1.288924803316584011e+01 1.906692838661384393e+00 -7.124083312025724091e+00 -8.543974746270094345e-01 -7.124083312025724091e+00 -2.235605500324423645e+01
-3.109785357534033068e+01 1.291335572890015904e+01 -8.796716717678266795e-01 1.291335572890015904e+01 1.927708379873712241e+00 -7.279876055427068948e+00 -8.796716717678266795e-01 -7.279876055427068948e+00 -2.218944897696359320e+01
-3.092217476034247525e+01 1.292989042343990214e+01 -9.020388733400662717e-01 1.292989042343990214e+01 1.970961511390891152e+00 -7.432076715132209799e+00 -9.020388733400662717e-01 -7.432076715132209799e+00 -2.193752170495043785e+01
-3.070079871564239227e+01 1.293861141014563465e+01 -9.219804926226011776e-01 1.293861141014563465e+01 2.035026509271643747e+00 -7.580277941443639200e+00 -9.219804926226011776e-01 -7.580277941443639200e+00 -2.160319869866868459e+01
-3.043550296719284631e+01 1.293922243469189581e+01 -9.400705223710101865e-01 1.293922243469189581e+01 2.118366554202645968e+00 -7.724146448245214458e+00 -9.400705223710101865e-01 -7.724146448245214458e+00 -2.118905366757076436e+01
-3.012799097736523279e+01 1.293135317917186278e+01 -9.567533440734836692e-01 1.293135317917186278e+01 2.219537406347279695e+00 -7.863460044792839554e+00 -9.567533440734836692e-01 -7.863460044792839554e+00 -2.069816025028333328e+01
-2.978018839927504757e+01 1.291476293694609545e+01 -9.725659186949179302e-01 1.291476293694609545e+01 2.336965214601538054e+00 -7.998089119819126402e+00 -9.725659186949179302e-01 -7.998089119819126402e+00 -2.013246261581721797e+01
1.515749229951489063e+01 -1.016188005843324582e+01 7.985608713446509022e+00 -1.016188005843324582e+01 2.147741169534386785e+01 7.156208055656818168e+00 7.985608713446509022e+00 7.156208055656818168e+00 7.783122756623965799e+00
1.494802957774133390e+01 -9.999692464050399465e+00 8.067536882018842448e+00 -9.999692464050399465e+00 2.148891536885088271e+01 7.149657352687545320e+00 8.067536882018842448e+00 7.149657352687545320e+00 7.526899732354303652e+00
1.474206411473457301e+01 -9.831007424445997955e+00 8.138529459726482784e+00 -9.831007424445997955e+00 2.149562584506330509e+01 7.115075321836211941e+00 8.138529459726482784e+00 7.115075321836211941e+00 7.254344332117892868e+00
1.454067881803152673e+01 -9.657156383312983650e+00 8.198231394917979031e+00 -9.657156383312983650e+00 2.149692178359110528e+01 7.052355447607380867e+00 8.198231394917979031e+00 7.052355447607380867e+00 6.965527566245023117e+00
1.434437075994423161e+01 -9.479435279179153184e+00 8.246092357533584050e+00 -9.479435279179153184e+00 2.149184454497535413e+01 6.961426719670763319e+00 8.246092357533584050e+00 6.961426719670763319e+00 6.660733476056855729e+00
1.415324645596812303e+01 -9.299246566067735031e+00 8.281455502018109982e+00 -9.299246566067735031e+00 2.147908043810569012e+01 6.842360148356648963e+00 8.281455502018109982e+00 6.842360148356648963e+00 6.339713525397373317e+00
1.396725264835548153e+01 -9.117992698001966545e+00 8.303575219903510884e+00 -9.117992698001966545e+00 2.145744003994974491e+01 6.695244496577898552e+00 8.303575219903510884e+00 6.695244496577898552e+00 6.001757610963676548e+00
1.378557271830797148e+01 -8.936934108344495087e+00 8.311759160469458507e+00 -8.936934108344495087e+00 2.142520134999799097e+01 6.520221784995095859e+00 8.311759160469458507e+00 6.520221784995095859e+00 5.645676309723402397e+00
1.360739004702725374e+01 -8.757348983040545320e+00 8.305261715247903354e+00 -8.757348983040545320e+00 2.138078438840146234e+01 6.317469539433964165e+00 8.305261715247903354e+00 6.317469539433964165e+00 5.270084920235892589e+00
1.343167498472412191e+01 -8.580462250287624215e+00 8.283177502527646396e+00 -8.580462250287624215e+00 2.132269793822406356e+01 6.087058770224794912e+00 8.283177502527646396e+00 6.087058770224794912e+00 4.872586843853850880e+00
-2.532534870145822836e+01 -2.226852768815120065e+00 -8.955768255407228651e+00 -2.226852768815120065e+00 -7.131380369465462721e+00 -1.593525345174634644e+01 -8.955768255407228651e+00 -1.593525345174634644e+01 -1.490185219050706422e+01
-2.529822060077934509e+01 -2.171024727949715682e+00 -8.985744159429360778e+00 -2.171024727949715682e+00 -7.089680391939299220e+00 -1.597928345018971541e+01 -8.985744159429360778e+00 -1.597928345018971541e+01 -1.480621037952466423e+01
-2.523016919621336740e+01 -2.115695977280855011e+00 -9.000500958571658217e+00 -2.115695977280855011e+00 -7.024125438356040974e+00 -1.601190374303057951e+01 -9.000500958571658217e+00 -1.601190374303057951e+01 -1.463807902889589485e+01
-2.512141639451431274e+01 -2.061125408021561523e+00 -9.000020160604615072e+00 -2.061125408021561523e+00 -6.935103845535220302e+00 -1.603294790020342830e+01 -9.000020160604615072e+00 -1.603294790020342830e+01 -1.439864164130886159e+01
-2.497314569837028841e+01 -2.007627388073362162e+00 -8.984375734446240713e+00 -2.007627388073362162e+00 -6.823854592853447087e+00 -1.604202758488872860e+01 -8.984375734446240713e+00 -1.604202758488872860e+01 -1.408995085423824456e+01
-2.478687347060042612e+01 -1.955479300878780968e+00 -8.953604664555538051e+00 -1.955479300878780968e+00 -6.691986504277362968e+00 -1.603871747580793539e+01 -8.953604664555538051e+00 -1.603871747580793539e+01 -1.371450311866676230e+01
-2.456428250408936975e+01 -1.904903053191838058e+00 -8.907762427621010559e+00 -1.904903053191838058e+00 -6.541385787216134062e+00 -1.602249979053501150e+01 -8.907762427621010559e+00 -1.602249979053501150e+01 -1.327562703590470861e+01
-2.430757337414782171e+01 -1.856120551766552662e+00 -8.846941484790166399e+00 -1.856120551766552662e+00 -6.374031110226432872e+00 -1.599296770002091606e+01 -8.846941484790166399e+00 -1.599296770002091606e+01 -1.277602247145932068e+01
-2.401883570270945611e+01 -1.809372195586445908e+00 -8.771104851604004438e+00 -1.809372195586445908e+00 -6.192178525307457271e+00 -1.594947397623309548e+01 -8.771104851604004438e+00 -1.594947397623309548e+01 -1.221953580906693482e+01
-2.370023308062596712e+01 -1.764787430258029310e+00 -8.680234035833024109e+00 -1.764787430258029310e+00 -5.997880669933889131e+00 -1.589131591445048741e+01 -8.680234035833024109e+00 -1.589131591445048741e+01 -1.161001343246389261e+01
1.307656659048999970e+01 -7.605284127139028350e+00 -2.121226690274168902e+01 -7.605284127139028350e+00 2.278263208640126436e+01 9.283087821428348541e-02 -2.121226690274168902e+01 9.283087821428348541e-02 -1.537318320754440926e+01
1.296616006641966123e+01 -7.565215945690991539e+00 -2.113513431248428986e+01 -7.565215945690991539e+00 2.268944361620618722e+01 2.351167273724629608e-02 -2.113513431248428986e+01 2.351167273724629608e-02 -1.566791051811533642e+01
1.288520124196775818e+01 -7.518746867786730625e+00 -2.102190281176567055e+01 -7.518746867786730625e+00 2.262257391579759158e+01 -5.748291091273523973e-02 -2.102190281176567055e+01 -5.748291091273523973e-02 -1.590270541270508531e+01
1.283386891312469125e+01 -7.466252365006079472e+00 -2.087305514975991017e+01 -7.466252365006079472e+00 2.258200510557644236e+01 -1.499025583491049030e-01 -2.087305514975991017e+01 -1.499025583491049030e-01 -1.607751425251653643e+01
1.281182336750870299e+01 -7.408286704919272658e+00 -2.068912771443820020e+01 -7.408286704919272658e+00 2.256712927917538636e+01 -2.534611959872269948e-01 -2.068912771443820020e+01 -2.534611959872269948e-01 -1.619253371313912382e+01
1.281847457835148418e+01 -7.345368395898458580e+00 -2.047053173657844738e+01 -7.345368395898458580e+00 2.257712397503859592e+01 -3.678012318463069197e-01 -2.047053173657844738e+01 -3.678012318463069197e-01 -1.624883657051523755e+01
1.285282128810680469e+01 -7.278087464711950894e+00 -2.021767844695856908e+01 -7.278087464711950894e+00 2.261071974163425224e+01 -4.926723515397883890e-01 -2.021767844695856908e+01 -4.926723515397883890e-01 -1.624838958053924287e+01
1.291368344323804962e+01 -7.206980299330941087e+00 -1.993099695595552490e+01 -7.206980299330941087e+00 2.266650409063821314e+01 -6.276454446907179241e-01 -1.993099695595552490e+01 -6.276454446907179241e-01 -1.619303434191223801e+01
1.299982735141147394e+01 -7.132565408127579332e+00 -1.961079121675297898e+01 -7.132565408127579332e+00 2.274297513573113960e+01 -7.724880765115789139e-01 -1.961079121675297898e+01 -7.724880765115789139e-01 -1.608513096170745982e+01
1.310959020991638369e+01 -7.055486456667299677e+00 -1.925722214574230051e+01 -7.055486456667299677e+00 2.283832703741002845e+01 -9.269141734177357428e-01 -1.925722214574230051e+01 -9.269141734177357428e-01 -1.592750441657319271e+01
-3.259253566556348858e+01 -1.579429930680717131e+00 -9.522235910382121915e+00 -1.579429930680717131e+00 4.958202646816777914e+00 -2.445362135151972183e+01 -9.522235910382121915e+00 -2.445362135151972183e+01 -3.699916153777048322e+01
-3.275719599674103932e+01 -1.582796038648091930e+00 -9.443123074508017467e+00 -1.582796038648091930e+00 5.008192139724531700e+00 -2.456797603600253055e+01 -9.443123074508017467e+00 -2.456797603600253055e+01 -3.719727837852432373e+01
-3.285211652196468890e+01 -1.587742915550421907e+00 -9.354897570655939631e+00 -1.587742915550421907e+00 5.090094567836790596e+00 -2.465212873518689918e+01 -9.354897570655939631e+00 -2.465212873518689918e+01 -3.725861221320057837e+01
-3.287556769404679358e+01 -1.594047394008654139e+00 -9.257615190670650307e+00 -1.594047394008654139e+00 5.204226084940543728e+00 -2.470529836324615047e+01 -9.257615190670650307e+00 -2.470529836324615047e+01 -3.718275390160432181e+01
-3.282846077978513222e+01 -1.601542098488499821e+00 -9.151275934552144165e+00 -1.601542098488499821e+00 5.348782754721784549e+00 -2.472657365338248781e+01 -9.151275934552144165e+00 -2.472657365338248781e+01 -3.697247443869212447e+01
-3.271163265685115817e+01 -1.610003861610906251e+00 -9.035786815892489443e+00 -1.610003861610906251e+00 5.521960640866505621e+00 -2.471496894967175706e+01 -9.035786815892489443e+00 -2.471496894967175706e+01 -3.663024726291516231e+01
-3.252567843825568872e+01 -1.619265307841583956e+00 -8.910980459157391564e+00 -1.619265307841583956e+00 5.722197571721339138e+00 -2.466961017987934213e+01 -8.910980459157391564e+00 -2.466961017987934213e+01 -3.615789490786900728e+01
-3.227145359895173726e+01 -1.629066075238305045e+00 -8.776540710559864067e+00 -1.629066075238305045e+00 5.947726805535452854e+00 -2.458964186905220473e+01 -8.776540710559864067e+00 -2.458964186905220473e+01 -3.555818836851024400e+01
-3.194977641932918289e+01 -1.639201593703604853e+00 -8.632114221749738192e+00 -1.639201593703604853e+00 6.196818795121190604e+00 -2.447424573680048709e+01 -8.632114221749738192e+00 -2.447424573680048709e+01 -3.483397302892178260e+01
-3.156107463686453585e+01 -1.649244125760966462e+00 -8.477236060687319608e+00 -1.649244125760966462e+00 6.468376300864877138e+00 -2.432291965652132149e+01 -8.477236060687319608e+00 -2.432291965652132149e+01 -3.398744336833098600e+01
1.882806960214356840e-01 -1.146352295305728930e+01 8.603865242694345161e-01 -1.146352295305728930e+01 -4.147174431181777265e+01 1.351955868995490384e+01 8.603865242694345161e-01 1.351955868995490384e+01 -5.222444037412959972e+01
1.649125912489141366e-01 -1.142472663096313568e+01 9.613096434319189365e-01 -1.142472663096313568e+01 -4.144269410749508609e+01 1.357846813926470020e+01 9.613096434319189365e-01 1.357846813926470020e+01 -5.222020702181573881e+01
1.926645675286800530e-01 -1.137706849135862974e+01 1.061461351728321567e+00 -1.137706849135862974e+01 -4.134788583056374023e+01 1.362511027431387944e+01 1.061461351728321567e+00 1.362511027431387944e+01 -5.204987573960508485e+01
2.719317377433606020e-01 -1.132051090444542574e+01 1.160954538553679249e+00 -1.132051090444542574e+01 -4.118641636586342969e+01 1.365927813121154344e+01 1.160954538553679249e+00 1.365927813121154344e+01 -5.171497053433061808e+01
4.019050612285287594e-01 -1.125501624042517612e+01 1.259902093303027382e+00 -1.125501624042517612e+01 -4.095879371567183114e+01 1.368050133747837371e+01 1.259902093303027382e+00 1.368050133747837371e+01 -5.121714711711954493e+01
5.812110503445757637e-01 -1.118067857379375063e+01 1.358304015976367074e+00 -1.118067857379375063e+01 -4.066616558883848143e+01 1.368815900144167230e+01 1.358304015976367074e+00 1.368815900144167230e+01 -5.055907720365439673e+01
8.090594793262471107e-01 -1.109753553434948969e+01 1.456216751271215859e+00 -1.109753553434948969e+01 -4.030890828334681686e+01 1.368159260163039193e+01 1.456216751271215859e+00 1.368159260163039193e+01 -4.974384643739949752e+01
1.082308260011698220e+00 -1.100573764128577459e+01 1.553734373683437253e+00 -1.100573764128577459e+01 -3.988990047877028644e+01 1.365989902288424318e+01 1.553734373683437253e+00 1.365989902288424318e+01 -4.877497320450014939e+01
1.399057087584484327e+00 -1.090534133930012750e+01 1.650838068313859042e+00 -1.090534133930012750e+01 -3.941047803295013807e+01 1.362213752024458735e+01 1.650838068313859042e+00 1.362213752024458735e+01 -4.765836538329657657e+01
1.757236323135605627e+00 -1.079642188798923463e+01 1.747546650061653439e+00 -1.079642188798923463e+01 -3.887227784211440706e+01 1.356729208915610307e+01 1.747546650061653439e+00 1.356729208915610307e+01 -4.639949810944804653e+01
-3.300516471070401536e+01 -1.204249304778882568e+01 -9.357859288798282549e+00 -1.204249304778882568e+01 -4.792348649851911446e+00 1.488758599589898779e+01 -9.357859288798282549e+00 1.488758599589898779e+01 -4.572661720819358777e+01
-3.310720529227559439e+01 -1.207901638370376141e+01 -9.218152846444686688e+00 -1.207901638370376141e+01 -4.713907762256138945e+00 1.491547484060531836e+01 -9.218152846444686688e+00 1.491547484060531836e+01 -4.576698017685856001e+01
-3.314144357845636080e+01 -1.210935884738694135e+01 -9.068856687173937559e+00 -1.210935884738694135e+01 -4.590140478294137516e+00 1.491693577404191551e+01 -9.068856687173937559e+00 1.491693577404191551e+01 -4.565278387989785358e+01
-3.310819797781584128e+01 -1.213350170892250546e+01 -8.909671132332373844e+00 -1.213350170892250546e+01 -4.421533775778105912e+00 1.489195006629292806e+01 -8.909671132332373844e+00 1.489195006629292806e+01 -4.538696891410052814e+01
-3.300825514681989858e+01 -1.215137004864704551e+01 -8.740333963098043668e+00 -1.215137004864704551e+01 -4.208967960753173365e+00 1.484027422845225530e+01 -8.740333963098043668e+00 1.484027422845225530e+01 -4.497140827105197047e+01
-3.284255158126120477e+01 -1.216283275714957846e+01 -8.560470581153870384e+00 -1.216283275714957846e+01 -3.953548098254715537e+00 1.476162731178209242e+01 -8.560470581153870384e+00 1.476162731178209242e+01 -4.440891143813022524e+01
-3.261234218550197994e+01 -1.216777745493498486e+01 -8.369594008687654352e+00 -1.216777745493498486e+01 -3.656716391803475297e+00 1.465567217779706688e+01 -8.369594008687654352e+00 1.465567217779706688e+01 -4.370202568389144915e+01
-3.231884440407271342e+01 -1.216629779158253477e+01 -8.167516946540859024e+00 -1.216629779158253477e+01 -3.319727745761658522e+00 1.452229644700205924e+01 -8.167516946540859024e+00 1.452229644700205924e+01 -4.285578935570028136e+01
-3.196368773965270194e+01 -1.215786932944831911e+01 -7.953396548500059282e+00 -1.215786932944831911e+01 -2.944623720957329827e+00 1.436060108343608555e+01 -7.953396548500059282e+00 1.436060108343608555e+01 -4.187192560581530643e+01
-3.154962548987244020e+01 -1.214254825827989848e+01 -7.726876946164035864e+00 -1.214254825827989848e+01 -2.534157615021001675e+00 1.417038005802475276e+01 -7.726876946164035864e+00 1.417038005802475276e+01 -4.075728958343898967e+01
5.644703540693137001e+01 8.488245842430657717e+00 -4.642987949656307123e+00 8.488245842430657717e+00 4.438002201937592872e+01 -7.286436333152879641e+00 -4.642987949656307123e+00 -7.286436333152879641e+00 5.623178466881513060e+01
5.634052802402396054e+01 8.299092826824910674e+00 -4.659868687107497465e+00 8.299092826824910674e+00 4.423635653188688366e+01 -7.314155562294167190e+00 -4.659868687107497465e+00 -7.314155562294167190e+00 5.591157978045890076e+01
5.614098029749023056e+01 8.096319155520426136e+00 -4.658076495568189479e+00 8.096319155520426136e+00 4.402496327270287679e+01 -7.346824653782110914e+00 -4.658076495568189479e+00 -7.346824653782110914e+00 5.537950371517482751e+01
5.584931392583609977e+01 7.882194937800329981e+00 -4.637474827111581099e+00 7.882194937800329981e+00 4.374645670749452364e+01 -7.384136374781403944e+00 -4.637474827111581099e+00 -7.384136374781403944e+00 5.463644403448717668e+01
5.546670663493026865e+01 7.659365789746454212e+00 -4.598234366646176241e+00 7.659365789746454212e+00 4.340163905533179900e+01 -7.425851766420138667e+00 -4.598234366646176241e+00 -7.425851766420138667e+00 5.368644597072749747e+01
5.499503595876629447e+01 7.430630943858290927e+00 -4.540798894934090058e+00 7.430630943858290927e+00 4.299158563113828535e+01 -7.471697732844704731e+00 -4.540798894934090058e+00 -7.471697732844704731e+00 5.253471541360522679e+01
5.443578685604815348e+01 7.199011523016384473e+00 -4.465936494063596385e+00 7.199011523016384473e+00 4.251665487322184589e+01 -7.521469452164895486e+00 -4.465936494063596385e+00 -7.521469452164895486e+00 5.118676548566507023e+01
5.379348247685126694e+01 6.967511581610432714e+00 -4.374722478958279481e+00 6.967511581610432714e+00 4.197986790446303473e+01 -7.575064513435608937e+00 -4.374722478958279481e+00 -7.575064513435608937e+00 4.964985029551852591e+01
5.307131462896467866e+01 6.739135174030130848e+00 -4.268488191904483031e+00 6.739135174030130848e+00 4.138277795752924249e+01 -7.632261026275787508e+00 -4.268488191904483031e+00 -7.632261026275787508e+00 4.793320389671573878e+01
5.227407955831738917e+01 6.516937560137725960e+00 -4.148701523115351897e+00 6.516937560137725960e+00 4.072799651152060818e+01 -7.692922442758627355e+00 -4.148701523115351897e+00 -7.692922442758627355e+00 4.604693083584022872e+01