 vasp.6.1.1 19Jun20 (build Dec 21 2021 08:45:49) complex                        
  
 executed on             LinuxIFC date 2023.10.05  07:24:48
 running on   40 total cores
 distrk:  each k-point on   40 cores,    1 groups
 distr:  one band on NCORE=   1 cores,   40 groups


--------------------------------------------------------------------------------------------------------


 INCAR:
 POTCAR:   PAW_PBE Te 08Apr2002                   
 POTCAR:   PAW_PBE Mo 08Apr2002                   
 -----------------------------------------------------------------------------
|                                                                             |
|           W    W    AA    RRRRR   N    N  II  N    N   GGGG   !!!           |
|           W    W   A  A   R    R  NN   N  II  NN   N  G    G  !!!           |
|           W    W  A    A  R    R  N N  N  II  N N  N  G       !!!           |
|           W WW W  AAAAAA  RRRRR   N  N N  II  N  N N  G  GGG   !            |
|           WW  WW  A    A  R   R   N   NN  II  N   NN  G    G                |
|           W    W  A    A  R    R  N    N  II  N    N   GGGG   !!!           |
|                                                                             |
|     For optimal performance we recommend to set                             |
|       NCORE = 4 - approx SQRT(number of cores).                             |
|     NCORE specifies how many cores store one orbital (NPAR=cpu/NCORE).      |
|     This setting can greatly improve the performance of VASP for DFT.       |
|     The default, NCORE=1 might be grossly inefficient on modern             |
|     multi-core architectures or massively parallel machines. Do your        |
|     own testing!!!!                                                         |
|     Unfortunately you need to use the default for GW and RPA                |
|     calculations (for HF NCORE is supported but not extensively tested      |
|     yet).                                                                   |
|                                                                             |
 -----------------------------------------------------------------------------

 POTCAR:   PAW_PBE Te 08Apr2002                   
   VRHFIN =Te: s2p4                                                                                 
   LEXCH  = PE                                                                                      
   EATOM  =   223.2721 eV,   16.4100 Ry                                                             
                                                                                                    
   TITEL  = PAW_PBE Te 08Apr2002                                                                    
   LULTRA =        F    use ultrasoft PP ?                                                          
   IUNSCR =        1    unscreen: 0-lin 1-nonlin 2-no                                               
   RPACOR =    2.200    partial core radius                                                         
   POMASS =  127.600; ZVAL   =    6.000    mass and valenz                                          
   RCORE  =    2.300    outmost cutoff radius                                                       
   RWIGS  =    2.900; RWIGS  =    1.535    wigner-seitz radius (au A)                               
   ENMAX  =  174.982; ENMIN  =  131.236 eV                                                          
   ICORE  =        3    local potential                                                             
   LCOR   =        T    correct aug charges                                                         
   LPAW   =        T    paw PP                                                                      
   EAUG   =  368.792                                                                                
   DEXC   =    -.169                                                                                
   RMAX   =    3.486    core radius for proj-oper                                                   
   RAUG   =    1.300    factor for augmentation sphere                                              
   RDEP   =    2.397    radius for radial grids                                                     
   QCUT   =   -3.586; QGAM   =    7.172    optimization parameters                                  
                                                                                                    
   Description                                                                                      
     l     E      TYP  RCUT    TYP  RCUT                                                            
     0   .000     23  2.300                                                                         
     0   .000     23  2.300                                                                         
     1   .000     23  2.300                                                                         
     1   .000     23  2.300                                                                         
     2   .000     23  2.300                                                                         
     3  -.100     23  2.300                                                                         
  local pseudopotential read in
  partial core-charges read in
  atomic valenz-charges read in
  non local Contribution for L=           0  read in
    real space projection operators read in
  non local Contribution for L=           0  read in
    real space projection operators read in
  non local Contribution for L=           1  read in
    real space projection operators read in
  non local Contribution for L=           1  read in
    real space projection operators read in
  non local Contribution for L=           2  read in
    real space projection operators read in
    PAW grid and wavefunctions read in
 
   number of l-projection  operators is LMAX  =           5
   number of lm-projection operators is LMMAX =          13
 
 POTCAR:   PAW_PBE Mo 08Apr2002                   
   VRHFIN =Mo: 4p5s4d                                                                               
   LEXCH  = PE                                                                                      
   EATOM  =   217.5180 eV,   15.9871 Ry                                                             
                                                                                                    
   TITEL  = PAW_PBE Mo 08Apr2002                                                                    
   LULTRA =        F    use ultrasoft PP ?                                                          
   IUNSCR =        1    unscreen: 0-lin 1-nonlin 2-no                                               
   RPACOR =    2.200    partial core radius                                                         
   POMASS =   95.940; ZVAL   =    6.000    mass and valenz                                          
   RCORE  =    2.750    outmost cutoff radius                                                       
   RWIGS  =    2.750; RWIGS  =    1.455    wigner-seitz radius (au A)                               
   ENMAX  =  224.584; ENMIN  =  168.438 eV                                                          
   RCLOC  =    2.111    cutoff for local pot                                                        
   LCOR   =        T    correct aug charges                                                         
   LPAW   =        T    paw PP                                                                      
   EAUG   =  345.278                                                                                
   DEXC   =    -.088                                                                                
   RMAX   =    3.077    core radius for proj-oper                                                   
   RAUG   =    1.300    factor for augmentation sphere                                              
   RDEP   =    2.815    radius for radial grids                                                     
   QCUT   =   -4.063; QGAM   =    8.126    optimization parameters                                  
                                                                                                    
   Description                                                                                      
     l     E      TYP  RCUT    TYP  RCUT                                                            
     2   .000     23  2.500                                                                         
     2   .000     23  2.500                                                                         
     0   .000     23  2.600                                                                         
     0  1.000     23  2.600                                                                         
     1   .400     23  2.750                                                                         
     1  2.000     23  2.750                                                                         
     3   .000      7   .000                                                                         
  local pseudopotential read in
  partial core-charges read in
  atomic valenz-charges read in
  non local Contribution for L=           2  read in
    real space projection operators read in
  non local Contribution for L=           2  read in
    real space projection operators read in
  non local Contribution for L=           0  read in
    real space projection operators read in
  non local Contribution for L=           0  read in
    real space projection operators read in
  non local Contribution for L=           1  read in
    real space projection operators read in
  non local Contribution for L=           1  read in
    real space projection operators read in
    PAW grid and wavefunctions read in
 
   number of l-projection  operators is LMAX  =           6
   number of lm-projection operators is LMMAX =          18
 
 -----------------------------------------------------------------------------
|                                                                             |
|               ----> ADVICE to this user running VASP <----                  |
|                                                                             |
|     You have a (more or less) 'large supercell' and for larger cells it     |
|     might be more efficient to use real-space projection operators.         |
|     Therefore, try LREAL= Auto in the INCAR file.                           |
|     Mind: If you want to do very accurate calculations, keep the            |
|     reciprocal projection scheme (i.e. LREAL=.FALSE.).                      |
|                                                                             |
 -----------------------------------------------------------------------------

 PAW_PBE Te 08Apr2002                   :
 energy of atom  1       EATOM= -223.2721
 kinetic energy error for atom=    0.0006 (will be added to EATOM!!)
 PAW_PBE Mo 08Apr2002                   :
 energy of atom  2       EATOM= -217.5180
 kinetic energy error for atom=    0.0009 (will be added to EATOM!!)
 
 
 POSCAR: Te Mo
  positions in cartesian coordinates
  No initial velocities read in
 exchange correlation table for  LEXCH =        8
   RHO(1)=    0.500       N(1)  =     2000
   RHO(2)=  100.500       N(2)  =     4000
 


--------------------------------------------------------------------------------------------------------


 ion  position               nearest neighbor table
   1  0.222  0.111  0.683-  40 2.65  41 2.69  37 2.72   4 3.50   7 3.50   5 3.51   9 3.52   2 3.52
                             3 3.52  19 3.53
   2  0.222  0.445  0.683-  41 2.65  42 2.69  38 2.73   8 3.50   5 3.50   7 3.51   6 3.51   1 3.52
                             3 3.52  20 3.53
   3  0.222  0.778  0.683-  42 2.65  40 2.69  39 2.72   9 3.50   6 3.50   4 3.51   8 3.51   2 3.52
                             1 3.52  21 3.53
   4  0.555  0.111  0.683-  43 2.65  44 2.69  40 2.72   1 3.50   7 3.50   3 3.51   5 3.51   6 3.52
                             8 3.52  22 3.52
   5  0.555  0.444  0.683-  44 2.65  45 2.69  41 2.72   8 3.50   2 3.50   1 3.51   4 3.51   9 3.52
                             6 3.52  23 3.54
   6  0.556  0.778  0.683-  45 2.64  43 2.69  42 2.73   9 3.50   3 3.50   2 3.51   7 3.52   4 3.52
                             5 3.52  24 3.53
   7  0.889  0.112  0.683-  37 2.65  38 2.68  43 2.73   1 3.50   4 3.50   2 3.51   8 3.51   6 3.52
                            25 3.53   9 3.53
   8  0.889  0.445  0.683-  38 2.64  39 2.69  44 2.72   5 3.50   2 3.50   3 3.51   7 3.51   9 3.51
                             4 3.52  26 3.52
   9  0.889  0.778  0.683-  39 2.64  37 2.68  45 2.72   6 3.50   3 3.50   8 3.51   1 3.52  27 3.52
                             5 3.52   7 3.53
  10  0.222  0.222  0.438-  49 2.65  50 2.69  46 2.72  16 3.50  13 3.50  11 3.51  14 3.51  18 3.52
                            12 3.52  28 3.53
  11  0.222  0.555  0.438-  50 2.65  51 2.71  47 2.72  14 3.50  17 3.51  16 3.51  10 3.51  15 3.52
                            12 3.53  29 3.53
  12  0.222  0.889  0.438-  51 2.65  49 2.69  48 2.73  18 3.50  15 3.50  13 3.51  17 3.52  10 3.52
                            30 3.53  11 3.53
  13  0.556  0.222  0.438-  52 2.65  53 2.69  49 2.73  16 3.50  10 3.50  12 3.51  15 3.51  17 3.51
                            14 3.52  31 3.53
  14  0.556  0.556  0.438-  53 2.65  54 2.69  50 2.73  17 3.49  11 3.50  10 3.51  18 3.51  13 3.52
                            15 3.52  32 3.53
  15  0.556  0.889  0.438-  54 2.64  52 2.68  51 2.73  12 3.50  18 3.51  16 3.51  13 3.51  14 3.52
                            11 3.52  33 3.53
  16  0.889  0.222  0.438-  46 2.65  47 2.69  52 2.73  13 3.50  10 3.50  11 3.51  15 3.51  17 3.52
                            34 3.53  18 3.53
  17  0.888  0.556  0.438-  47 2.66  48 2.69  53 2.72  14 3.49  11 3.51  18 3.51  13 3.51  12 3.52
                            16 3.52  35 3.54
  18  0.889  0.888  0.438-  48 2.64  46 2.69  54 2.72  12 3.50  15 3.51  17 3.51  14 3.51  10 3.52
                            16 3.53  36 3.53
  19  0.222  0.111  0.562-  37 2.65  41 2.69  40 2.73  25 3.50  22 3.50  23 3.51  27 3.51  21 3.52
                            20 3.52   1 3.53
  20  0.222  0.444  0.562-  38 2.64  42 2.69  41 2.74  26 3.50  23 3.51  25 3.51  24 3.51  21 3.52
                            19 3.52   2 3.53
  21  0.222  0.778  0.562-  39 2.64  40 2.69  42 2.73  27 3.50  24 3.50  22 3.52  20 3.52  26 3.52
                            19 3.52   3 3.53
  22  0.556  0.111  0.562-  40 2.64  44 2.69  43 2.72  25 3.50  19 3.50  26 3.51  23 3.51  21 3.52
                             4 3.52  24 3.53
  23  0.555  0.444  0.562-  41 2.64  45 2.70  44 2.73  26 3.49  20 3.51  19 3.51  22 3.51  24 3.52
                            27 3.52   5 3.54
  24  0.555  0.777  0.562-  42 2.64  43 2.70  45 2.72  27 3.50  21 3.50  20 3.51  23 3.52  25 3.52
                            22 3.53   6 3.53
  25  0.889  0.111  0.562-  43 2.65  38 2.69  37 2.73  22 3.50  19 3.50  20 3.51  27 3.52  26 3.52
                            24 3.52   7 3.53
  26  0.888  0.445  0.562-  44 2.63  39 2.70  38 2.73  23 3.49  20 3.50  22 3.51  21 3.52  27 3.52
                            25 3.52   8 3.52
  27  0.889  0.778  0.562-  45 2.64  37 2.69  39 2.72  24 3.50  21 3.50  19 3.51   9 3.52  26 3.52
                            25 3.52  23 3.52
  28  0.222  0.222  0.317-  46 2.64  50 2.70  49 2.72  31 3.50  34 3.51  36 3.51  32 3.51  30 3.52
                            29 3.53  10 3.53
  29  0.223  0.556  0.317-  47 2.65  51 2.69  50 2.72  32 3.49  33 3.50  35 3.51  30 3.51  34 3.52
                            28 3.53  11 3.53
  30  0.222  0.888  0.317-  48 2.64  49 2.70  51 2.71  36 3.50  33 3.50  35 3.51  29 3.51  31 3.52
                            28 3.52  12 3.53
  31  0.556  0.222  0.317-  49 2.64  53 2.69  52 2.73  28 3.50  34 3.50  35 3.52  32 3.52  30 3.52
                            33 3.52  13 3.53
  32  0.556  0.555  0.317-  50 2.64  54 2.70  53 2.73  29 3.49  35 3.50  28 3.51  33 3.52  36 3.52
                            31 3.52  14 3.53
  33  0.555  0.888  0.317-  51 2.64  52 2.69  54 2.72  30 3.50  36 3.50  29 3.50  32 3.52  34 3.52
                            31 3.52  15 3.53
  34  0.889  0.222  0.317-  52 2.64  47 2.69  46 2.73  31 3.50  28 3.51  33 3.52  36 3.52  35 3.52
                            29 3.52  16 3.53
  35  0.889  0.556  0.317-  53 2.64  48 2.69  47 2.73  32 3.50  30 3.51  29 3.51  31 3.52  36 3.52
                            34 3.52  17 3.54
  36  0.889  0.889  0.317-  54 2.65  46 2.70  48 2.73  30 3.50  33 3.50  28 3.51  32 3.52  35 3.52
                            34 3.52  18 3.53
  37  0.000  0.000  0.623-  19 2.65   7 2.65   9 2.68  27 2.69   1 2.72  25 2.73
  38  0.999  0.333  0.622-  20 2.64   8 2.64   7 2.68  25 2.69  26 2.73   2 2.73  44 3.49
  39  1.000  0.667  0.622-   9 2.64  21 2.64   8 2.69  26 2.70  27 2.72   3 2.72
  40  0.333  1.000  0.622-  22 2.64   1 2.65   3 2.69  21 2.69   4 2.72  19 2.73
  41  0.334  0.333  0.622-  23 2.64   2 2.65   1 2.69  19 2.69   5 2.72  20 2.74
  42  0.333  0.666  0.622-  24 2.64   3 2.65   2 2.69  20 2.69   6 2.73  21 2.73
  43  0.666  1.000  0.622-  25 2.65   4 2.65   6 2.69  24 2.70  22 2.72   7 2.73
  44  0.667  0.333  0.622-  26 2.63   5 2.65  22 2.69   4 2.69   8 2.72  23 2.73  38 3.49
  45  0.666  0.666  0.622-   6 2.64  27 2.64   5 2.69  23 2.70   9 2.72  24 2.72
  46  0.000  0.111  0.378-  28 2.64  16 2.65  18 2.69  36 2.70  10 2.72  34 2.73
  47  1.000  0.444  0.378-  29 2.65  17 2.66  16 2.69  34 2.69  11 2.72  35 2.73
  48  0.000  0.778  0.378-  30 2.64  18 2.64  17 2.69  35 2.69  12 2.73  36 2.73
  49  0.333  0.111  0.378-  31 2.64  10 2.65  12 2.69  30 2.70  28 2.72  13 2.73
  50  0.333  0.444  0.378-  32 2.64  11 2.65  10 2.69  28 2.70  29 2.72  14 2.73
  51  0.333  0.778  0.377-  33 2.64  12 2.65  29 2.69  11 2.71  30 2.71  15 2.73
  52  0.666  0.110  0.378-  34 2.64  13 2.65  15 2.68  33 2.69  31 2.73  16 2.73
  53  0.667  0.445  0.378-  35 2.64  14 2.65  31 2.69  13 2.69  17 2.72  32 2.73
  54  0.667  0.778  0.378-  15 2.64  36 2.65  14 2.69  32 2.70  18 2.72  33 2.72
 

IMPORTANT INFORMATION: All symmetrisations will be switched off!
NOSYMM: (Re-)initialisation of all symmetry stuff for point group C_1.


----------------------------------------------------------------------------------------

                                     Primitive cell                                     

  volume of cell :    2801.2811

  direct lattice vectors                    reciprocal lattice vectors
    10.501212932  0.000000000  0.000000000     0.095227095  0.054805316 -0.003431827
    -5.266908324  9.151527833  0.000000000     0.000000000  0.109271372 -0.000167726
     1.024731552  0.044742274 29.148996917     0.000000000  0.000000000  0.034306498

  length of vectors
    10.501212932 10.558919687 29.167037866     0.109925428  0.109271500  0.034306498

  position of ions in fractional coordinates (direct lattice)
     0.221965699  0.111382948  0.682819287
     0.222231417  0.444576543  0.682801278
     0.222183594  0.777775870  0.682788903
     0.554707973  0.110868843  0.682883567
     0.555404531  0.443870379  0.682930359
     0.555755686  0.777874866  0.682714425
     0.888988466  0.111964547  0.682819705
     0.889054079  0.444813159  0.682697262
     0.888839118  0.777573720  0.682669418
     0.222171596  0.222354327  0.438169522
     0.221631915  0.554684044  0.438246598
     0.222382102  0.889006614  0.438129791
     0.555653305  0.221957365  0.438184339
     0.555535670  0.555525463  0.438134347
     0.555554270  0.889258799  0.438059300
     0.888676929  0.222280670  0.438217454
     0.888356798  0.555769319  0.438350184
     0.889175977  0.888457203  0.438013430
     0.222101440  0.111083404  0.561865083
     0.221602844  0.444492288  0.561883685
     0.222216511  0.777951788  0.561841838
     0.555811396  0.111270957  0.562091435
     0.555166700  0.443698835  0.561706514
     0.555399123  0.776999251  0.561714027
     0.888851273  0.111479219  0.561815795
     0.888194725  0.444596468  0.561916562
     0.888760878  0.778063753  0.562124311
     0.222398886  0.221952824  0.317159884
     0.223085273  0.556178669  0.317107945
     0.221838810  0.888195125  0.317264333
     0.555559465  0.222239969  0.317214757
     0.555529140  0.555484863  0.317217181
     0.555358828  0.888357317  0.317088797
     0.888619981  0.222067180  0.317351595
     0.888868028  0.555819367  0.317113030
     0.889090701  0.888934754  0.317029093
     0.000070110  0.000138233  0.622618792
     0.999497634  0.333208722  0.622289393
     0.999876860  0.667218463  0.622378473
     0.332958473  0.999697938  0.622416997
     0.333887177  0.333097694  0.622359210
     0.333310081  0.666182347  0.622283734
     0.666226750  0.999999813  0.622361814
     0.667221005  0.333339252  0.622399470
     0.666178973  0.666447200  0.622478374
     0.000168410  0.111019419  0.377748686
     0.999882829  0.444104357  0.377669244
     0.000008929  0.777747649  0.377644446
     0.333259362  0.111095347  0.377673205
     0.333311179  0.444414813  0.377624747
     0.333257676  0.778192537  0.377396690
     0.666045165  0.110273336  0.377630365
     0.667128604  0.444505261  0.377568648
     0.666739345  0.778250925  0.377710850

  ion indices of the primitive-cell ions
   primitive index   ion index
                 1           1
                 2           2
                 3           3
                 4           4
                 5           5
                 6           6
                 7           7
                 8           8
                 9           9
                10          10
                11          11
                12          12
                13          13
                14          14
                15          15
                16          16
                17          17
                18          18
                19          19
                20          20
                21          21
                22          22
                23          23
                24          24
                25          25
                26          26
                27          27
                28          28
                29          29
                30          30
                31          31
                32          32
                33          33
                34          34
                35          35
                36          36
                37          37
                38          38
                39          39
                40          40
                41          41
                42          42
                43          43
                44          44
                45          45
                46          46
                47          47
                48          48
                49          49
                50          50
                51          51
                52          52
                53          53
                54          54

----------------------------------------------------------------------------------------

 
 

Automatic generation of k-mesh.
 generate k-points for:    3    3    1
Space group operators:
 irot       det(A)        alpha          n_x          n_y          n_z        tau_x        tau_y        tau_z
    1     1.000000     0.000000     1.000000     0.000000     0.000000     0.000000     0.000000     0.000000
 
 Subroutine IBZKPT returns following result:
 ===========================================
 
 Found      5 irreducible k-points:
 
 Following reciprocal coordinates:
            Coordinates               Weight
  0.000000  0.000000  0.000000      1.000000
  0.333333 -0.000000  0.000000      2.000000
  0.000000  0.333333  0.000000      2.000000
  0.333333  0.333333  0.000000      2.000000
 -0.333333  0.333333 -0.000000      2.000000
 
 Following cartesian coordinates:
            Coordinates               Weight
  0.000000  0.000000  0.000000      1.000000
  0.031742  0.018268 -0.001144      2.000000
  0.000000  0.036424 -0.000056      2.000000
  0.031742  0.054692 -0.001200      2.000000
 -0.031742  0.018155  0.001088      2.000000
 


--------------------------------------------------------------------------------------------------------




 Dimension of arrays:
   k-points           NKPTS =      5   k-points in BZ     NKDIM =      5   number of bands    NBANDS=    200
   number of dos      NEDOS =    301   number of ions     NIONS =     54
   non local maximal  LDIM  =      6   non local SUM 2l+1 LMDIM =     18
   total plane-waves  NPLWV = ******
   max r-space proj   IRMAX =      1   max aug-charges    IRDMAX=  34696
   dimension x,y,z NGX =    80 NGY =   84 NGZ =  224
   dimension x,y,z NGXF=   160 NGYF=  168 NGZF=  448
   support grid    NGXF=   160 NGYF=  168 NGZF=  448
   ions per type =              36  18
   NGX,Y,Z   is equivalent  to a cutoff of  12.66, 13.23, 12.77 a.u.
   NGXF,Y,Z  is equivalent  to a cutoff of  25.33, 26.45, 25.54 a.u.

 SYSTEM =  dpgen_md                                
 POSCAR =  Te Mo                                   

 Startparameter for this run:
   NWRITE =      2    write-flag & timer
   PREC   = a         normal or accurate (medium, high low for compatibility)
   ISTART =      0    job   : 0-new  1-cont  2-samecut
   ICHARG =      2    charge: 1-file 2-atom 10-const
   ISPIN  =      1    spin polarized calculation?
   LNONCOLLINEAR =      F non collinear calculations
   LSORBIT =      F    spin-orbit coupling
   INIWAV =      1    electr: 0-lowe 1-rand  2-diag
   LASPH  =      F    aspherical Exc in radial PAW
   METAGGA=      F    non-selfconsistent MetaGGA calc.

 Electronic Relaxation 1
   ENCUT  =  550.0 eV  40.42 Ry    6.36 a.u.  20.08 20.19 55.77*2*pi/ulx,y,z
   ENINI  =  550.0     initial cutoff
   ENAUG  =  368.8 eV  augmentation charge cutoff
   NELM   =    100;   NELMIN=  6; NELMDL= -5     # of ELM steps 
   EDIFF  = 0.1E-05   stopping-criterion for ELM
   LREAL  =      F    real-space projection
   NLSPLINE    = F    spline interpolate recip. space projectors
   LCOMPAT=      F    compatible to vasp.4.4
   GGA_COMPAT  = T    GGA compatible to vasp.4.4-vasp.4.6
   LMAXPAW     = -100 max onsite density
   LMAXMIX     =    2 max onsite mixed and CHGCAR
   VOSKOWN=      0    Vosko Wilk Nusair interpolation
   ROPT   =    0.00000   0.00000
 Ionic relaxation
   EDIFFG = 0.1E-04   stopping-criterion for IOM
   NSW    =     10    number of steps for IOM
   NBLOCK =      1;   KBLOCK =      1    inner block; outer block 
   IBRION =      0    ionic relax: 0-MD 1-quasi-New 2-CG
   NFREE  =      0    steps in history (QN), initial steepest desc. (CG)
   ISIF   =      2    stress and relaxation
   IWAVPR =     11    prediction:  0-non 1-charg 2-wave 3-comb
   ISYM   =      0    0-nonsym 1-usesym 2-fastsym
   LCORR  =      T    Harris-Foulkes like correction to forces

   POTIM  = 2.0000    time-step for ionic-motion
   TEIN   =  100.0    initial temperature
   TEBEG  =  100.0;   TEEND  = 100.0 temperature during run
   SMASS  =   0.04    Nose mass-parameter (am)
   estimated Nose-frequenzy (Omega)   =  0.79E+14 period in steps = 0.40E+02 mass=   0.327E-28a.u.
   SCALEE = 1.0000    scale energy and forces
   NPACO  =    256;   APACO  = 16.0  distance and # of slots for P.C.
   PSTRESS=    0.0 pullay stress

  Mass of Ions in am
   POMASS = 127.60 95.94
  Ionic Valenz
   ZVAL   =   6.00  6.00
  Atomic Wigner-Seitz radii
   RWIGS  =  -1.00 -1.00
  virtual crystal weights 
   VCA    =   1.00  1.00
   NELECT =     324.0000    total number of electrons
   NUPDOWN=      -1.0000    fix difference up-down

 DOS related values:
   EMIN   =  10.00;   EMAX   =-10.00  energy-range for DOS
   EFERMI =   0.00
   ISMEAR =     0;   SIGMA  =   0.10  broadening in eV -4-tet -1-fermi 0-gaus

 Electronic relaxation 2 (details)
   IALGO  =     68    algorithm
   LDIAG  =      T    sub-space diagonalisation (order eigenvalues)
   LSUBROT=      F    optimize rotation matrix (better conditioning)
   TURBO    =      0    0=normal 1=particle mesh
   IRESTART =      0    0=no restart 2=restart with 2 vectors
   NREBOOT  =      0    no. of reboots
   NMIN     =      0    reboot dimension
   EREF     =   0.00    reference energy to select bands
   IMIX   =      4    mixing-type and parameters
     AMIX     =   0.40;   BMIX     =  1.00
     AMIX_MAG =   1.60;   BMIX_MAG =  1.00
     AMIN     =   0.10
     WC   =   100.;   INIMIX=   1;  MIXPRE=   1;  MAXMIX= -45

 Intra band minimization:
   WEIMIN = 0.0010     energy-eigenvalue tresh-hold
   EBREAK =  0.13E-08  absolut break condition
   DEPER  =   0.30     relativ break condition  

   TIME   =   0.40     timestep for ELM

  volume/ion in A,a.u.               =      51.88       350.07
  Fermi-wavevector in a.u.,A,eV,Ry     =   0.797635  1.507312  8.656323  0.636222
  Thomas-Fermi vector in A             =   1.904391
 
 Write flags
   LWAVE        =      F    write WAVECAR
   LDOWNSAMPLE  =      F    k-point downsampling of WAVECAR
   LCHARG       =      F    write CHGCAR
   LVTOT        =      F    write LOCPOT, total local potential
   LVHAR        =      F    write LOCPOT, Hartree potential only
   LELF         =      F    write electronic localiz. function (ELF)
   LORBIT       =      0    0 simple, 1 ext, 2 COOP (PROOUT), +10 PAW based schemes


 Dipole corrections
   LMONO  =      F    monopole corrections only (constant potential shift)
   LDIPOL =      F    correct potential (dipole corrections)
   IDIPOL =      0    1-x, 2-y, 3-z, 4-all directions 
   EPSILON=  1.0000000 bulk dielectric constant

 Exchange correlation treatment:
   GGA     =    --    GGA type
   LEXCH   =     8    internal setting for exchange type
   VOSKOWN=      0    Vosko Wilk Nusair interpolation
   LHFCALC =     F    Hartree Fock is set to
   LHFONE  =     F    Hartree Fock one center treatment
   AEXX    =    0.0000 exact exchange contribution

 Linear response parameters
   LEPSILON=     F    determine dielectric tensor
   LRPA    =     F    only Hartree local field effects (RPA)
   LNABLA  =     F    use nabla operator in PAW spheres
   LVEL    =     F    velocity operator in full k-point grid
   LINTERFAST=   F  fast interpolation
   KINTER  =     0    interpolate to denser k-point grid
   CSHIFT  =0.1000    complex shift for real part using Kramers Kronig
   OMEGAMAX=  -1.0    maximum frequency
   DEG_THRESHOLD= 0.2000000E-02 threshold for treating states as degnerate
   RTIME   =   -0.100 relaxation time in fs
  (WPLASMAI=    0.000 imaginary part of plasma frequency in eV, 0.658/RTIME)
   DFIELD  = 0.0000000 0.0000000 0.0000000 field for delta impulse in time
 
 Orbital magnetization related:
   ORBITALMAG=     F  switch on orbital magnetization
   LCHIMAG   =     F  perturbation theory with respect to B field
   DQ        =  0.001000  dq finite difference perturbation B field
   LLRAUG    =     F  two centre corrections for induced B field



--------------------------------------------------------------------------------------------------------


 molecular dynamics for ions
   using nose mass (canonical ensemble)
 charge density and potential will be updated during run
 non-spin polarized calculation
 RMM-DIIS sequential band-by-band and
  variant of blocked Davidson during initial phase
 perform sub-space diagonalisation
    before iterative eigenvector-optimisation
 modified Broyden-mixing scheme, WC =      100.0
 initial mixing is a Kerker type mixing with AMIX =  0.4000 and BMIX =      1.0000
 Hartree-type preconditioning will be used
 using additional bands           38
 reciprocal scheme for non local part
 use partial core corrections
 calculate Harris-corrections to forces 
   (improved forces if not selfconsistent)
 use gradient corrections 
 use of overlap-Matrix (Vanderbilt PP)
 Gauss-broadening in eV      SIGMA  =   0.10


--------------------------------------------------------------------------------------------------------


  energy-cutoff  :      550.00
  volume of cell :     2801.28
      direct lattice vectors                 reciprocal lattice vectors
    10.501212932  0.000000000  0.000000000     0.095227095  0.054805316 -0.003431827
    -5.266908324  9.151527833  0.000000000     0.000000000  0.109271372 -0.000167726
     1.024731552  0.044742274 29.148996917     0.000000000  0.000000000  0.034306498

  length of vectors
    10.501212932 10.558919687 29.167037866     0.109925428  0.109271500  0.034306498


 
 k-points in units of 2pi/SCALE and weight: read from INCAR                         
   0.00000000  0.00000000  0.00000000       0.111
   0.03174236  0.01826844 -0.00114394       0.222
   0.00000000  0.03642379 -0.00005591       0.222
   0.03174236  0.05469223 -0.00119985       0.222
  -0.03174236  0.01815535  0.00108803       0.222
 
 k-points in reciprocal lattice and weights: read from INCAR                         
   0.00000000  0.00000000  0.00000000       0.111
   0.33333333 -0.00000000  0.00000000       0.222
   0.00000000  0.33333333  0.00000000       0.222
   0.33333333  0.33333333  0.00000000       0.222
  -0.33333333  0.33333333 -0.00000000       0.222
 
 position of ions in fractional coordinates (direct lattice) 
   0.22196570  0.11138295  0.68281929
   0.22223142  0.44457654  0.68280128
   0.22218359  0.77777587  0.68278890
   0.55470797  0.11086884  0.68288357
   0.55540453  0.44387038  0.68293036
   0.55575569  0.77787487  0.68271443
   0.88898847  0.11196455  0.68281971
   0.88905408  0.44481316  0.68269726
   0.88883912  0.77757372  0.68266942
   0.22217160  0.22235433  0.43816952
   0.22163192  0.55468404  0.43824660
   0.22238210  0.88900661  0.43812979
   0.55565330  0.22195737  0.43818434
   0.55553567  0.55552546  0.43813435
   0.55555427  0.88925880  0.43805930
   0.88867693  0.22228067  0.43821745
   0.88835680  0.55576932  0.43835018
   0.88917598  0.88845720  0.43801343
   0.22210144  0.11108340  0.56186508
   0.22160284  0.44449229  0.56188368
   0.22221651  0.77795179  0.56184184
   0.55581140  0.11127096  0.56209144
   0.55516670  0.44369884  0.56170651
   0.55539912  0.77699925  0.56171403
   0.88885127  0.11147922  0.56181580
   0.88819472  0.44459647  0.56191656
   0.88876088  0.77806375  0.56212431
   0.22239889  0.22195282  0.31715988
   0.22308527  0.55617867  0.31710795
   0.22183881  0.88819513  0.31726433
   0.55555947  0.22223997  0.31721476
   0.55552914  0.55548486  0.31721718
   0.55535883  0.88835732  0.31708880
   0.88861998  0.22206718  0.31735160
   0.88886803  0.55581937  0.31711303
   0.88909070  0.88893475  0.31702909
   0.00007011  0.00013823  0.62261879
   0.99949763  0.33320872  0.62228939
   0.99987686  0.66721846  0.62237847
   0.33295847  0.99969794  0.62241700
   0.33388718  0.33309769  0.62235921
   0.33331008  0.66618235  0.62228373
   0.66622675  0.99999981  0.62236181
   0.66722100  0.33333925  0.62239947
   0.66617897  0.66644720  0.62247837
   0.00016841  0.11101942  0.37774869
   0.99988283  0.44410436  0.37766924
   0.00000893  0.77774765  0.37764445
   0.33325936  0.11109535  0.37767321
   0.33331118  0.44441481  0.37762475
   0.33325768  0.77819254  0.37739669
   0.66604516  0.11027334  0.37763036
   0.66712860  0.44450526  0.37756865
   0.66673935  0.77825092  0.37771085
 
 position of ions in cartesian coordinates  (Angst):
   2.44397177  1.04987504 19.90349728
   0.69184355  4.09910469 19.90297234
  -1.06360164  7.14838705 19.90261164
   5.94094285  1.04517306 19.90537099
   4.19441694  4.09264799 19.90673493
   2.43871220  7.14928968 19.90044067
   9.44545707  1.05519758 19.90350949
   7.69293749  4.10126543 19.89994040
   5.93803224  7.14653172 19.89912876
   1.61095752  2.05448651 12.77220204
  -0.14498096  5.09581462 12.77444873
  -1.89806911  8.15537170 12.77104393
   5.11502589  2.05085437 12.77263394
   3.35686676  5.10350986 12.77117674
   1.59924231  8.15767642 12.76898918
   8.61050901  2.05381458 12.77359921
   6.85082910  5.10575118 12.77746816
   5.10684982  8.15033854 12.76765212
   2.32302928  1.04172199 16.37780356
   0.56177846  4.09292350 16.37834579
  -1.18812079  7.14458553 16.37712601
   5.82663272  1.04344851 16.38440152
   4.06860103  4.08565427 16.37318143
   2.31558672  7.13586264 16.37340044
   9.32257603  1.04534209 16.37636688
   7.56128672  4.09387838 16.37930414
   5.81110328  7.14562281 16.38535980
   1.49145662  2.04539790  9.24489248
  -0.26172559  5.10407270  9.24337852
  -2.02335495  8.14253754  9.24793705
   4.98859067  2.04802817  9.24649198
   3.23310440  5.09772820  9.24656262
   1.47797565  8.14401399  9.24282038
   8.48718035  2.04645301  9.25048068
   6.73169851  5.10078476  9.24352674
   4.97946262  8.14929575  9.24108004
   0.63802530  0.02912242 18.14871326
   9.37863726  3.07721154 18.13911159
   7.62351219  6.13391497 18.14170819
  -1.13103924  9.17661186 18.14283113
   2.38957644  3.07619859 18.14114670
   0.62911256  6.12442868 18.13894665
   2.36703541  9.17937200 18.14122260
   5.88875494  3.07841101 18.14232022
   4.12344417  6.12686120 18.14462020
  -0.19586960  1.03289864 11.01099527
   8.54793515  4.08113116 11.00867963
  -3.70924763  7.13447593 11.00795679
   3.30151216  1.03359012 11.00879510
   1.54644358  4.08397032 11.00738260
  -0.21232864  7.13853625 11.00073495
   6.80045230  1.02606555 11.00754634
   5.05139757  4.08479555 11.00574736
   3.28964779  7.13908464 11.00989240
 


--------------------------------------------------------------------------------------------------------


 k-point   1 :   0.0000 0.0000 0.0000  plane waves:   81969
 k-point   2 :   0.3333-0.0000 0.0000  plane waves:   82055
 k-point   3 :   0.0000 0.3333 0.0000  plane waves:   82059
 k-point   4 :   0.3333 0.3333 0.0000  plane waves:   82050
 k-point   5 :  -0.3333 0.3333-0.0000  plane waves:   82041

 maximum and minimum number of plane-waves per node :     82059    81969

 maximum number of plane-waves:     82059
 maximum index in each direction: 
   IXMAX=   20   IYMAX=   20   IZMAX=   55
   IXMIN=  -20   IYMIN=  -20   IZMIN=  -55


 serial   3D FFT for wavefunctions
 parallel 3D FFT for charge:
    minimum data exchange during FFTs selected (reduces bandwidth)


 total amount of memory used by VASP MPI-rank0   346553. kBytes
=======================================================================

   base      :      30000. kBytes
   nonl-proj :     189112. kBytes
   fftplans  :      16219. kBytes
   grid      :      77231. kBytes
   one-center:        839. kBytes
   wavefun   :      33152. kBytes
 
     INWAV:  cpu time    0.0001: real time    0.0001
 Broyden mixing: mesh for mixing (old mesh)
   NGX = 41   NGY = 41   NGZ =111
  (NGX  =160   NGY  =168   NGZ  =448)
  gives a total of 186591 points

 initial charge density was supplied:
 charge density of overlapping atoms calculated
 number of electron     324.0000000 magnetization 
 keeping initial charge density in first step


--------------------------------------------------------------------------------------------------------


 Maximum index for augmentation-charges         1163 (set IRDMAX)


--------------------------------------------------------------------------------------------------------


 First call to EWALD:  gamma=   0.126
 Maximum number of real-space cells 4x 4x 2
 Maximum number of reciprocal cells 2x 2x 5

    FEWALD:  cpu time    0.0021: real time    0.0021


--------------------------------------- Iteration      1(   1)  ---------------------------------------


    POTLOK:  cpu time    0.2861: real time    0.2867
    SETDIJ:  cpu time    0.0110: real time    0.0111
     EDDAV:  cpu time   46.4482: real time   46.5386
       DOS:  cpu time    0.0009: real time    0.0010
    --------------------------------------------
      LOOP:  cpu time   46.7463: real time   46.8374

 eigenvalue-minimisations  :  2000
 total energy-change (2. order) : 0.2130824E+04  (-0.1163532E+05)
 number of electron     324.0000000 magnetization 
 augmentation part      324.0000000 magnetization 

 Free energy of the ion-electron system (eV)
  ---------------------------------------------------
  alpha Z        PSCENC =       256.19213675
  Ewald energy   TEWEN  =     58093.49732307
  -Hartree energ DENC   =    -69812.45416090
  -exchange      EXHF   =         0.00000000
  -V(xc)+E(xc)   XCENC  =     -2096.94665872
  PAW double counting   =      7476.04436201    -4809.59211051
  entropy T*S    EENTRO =        -0.11175438
  eigenvalues    EBANDS =      1071.11246317
  atomic energy  EATOM  =     11953.08265402
  Solvation  Ediel_sol  =         0.00000000
  ---------------------------------------------------
  free energy    TOTEN  =      2130.82425452 eV

  energy without entropy =     2130.93600890  energy(sigma->0) =     2130.88013171


--------------------------------------------------------------------------------------------------------




--------------------------------------- Iteration      1(   2)  ---------------------------------------


     EDDAV:  cpu time   65.1819: real time   65.3080
       DOS:  cpu time    0.0006: real time    0.0006
    --------------------------------------------
      LOOP:  cpu time   65.1824: real time   65.3086

 eigenvalue-minimisations  :  3040
 total energy-change (2. order) :-0.2229220E+04  (-0.2155867E+04)
 number of electron     324.0000000 magnetization 
 augmentation part      324.0000000 magnetization 

 Free energy of the ion-electron system (eV)
  ---------------------------------------------------
  alpha Z        PSCENC =       256.19213675
  Ewald energy   TEWEN  =     58093.49732307
  -Hartree energ DENC   =    -69812.45416090
  -exchange      EXHF   =         0.00000000
  -V(xc)+E(xc)   XCENC  =     -2096.94665872
  PAW double counting   =      7476.04436201    -4809.59211051
  entropy T*S    EENTRO =        -0.01348293
  eigenvalues    EBANDS =     -1158.20550357
  atomic energy  EATOM  =     11953.08265402
  Solvation  Ediel_sol  =         0.00000000
  ---------------------------------------------------
  free energy    TOTEN  =       -98.39544078 eV

  energy without entropy =      -98.38195784  energy(sigma->0) =      -98.38869931


--------------------------------------------------------------------------------------------------------




--------------------------------------- Iteration      1(   3)  ---------------------------------------


     EDDAV:  cpu time   55.0101: real time   55.1335
       DOS:  cpu time    0.0004: real time    0.0004
    --------------------------------------------
      LOOP:  cpu time   55.0105: real time   55.1339

 eigenvalue-minimisations  :  2480
 total energy-change (2. order) :-0.2238922E+03  (-0.2203678E+03)
 number of electron     324.0000000 magnetization 
 augmentation part      324.0000000 magnetization 

 Free energy of the ion-electron system (eV)
  ---------------------------------------------------
  alpha Z        PSCENC =       256.19213675
  Ewald energy   TEWEN  =     58093.49732307
  -Hartree energ DENC   =    -69812.45416090
  -exchange      EXHF   =         0.00000000
  -V(xc)+E(xc)   XCENC  =     -2096.94665872
  PAW double counting   =      7476.04436201    -4809.59211051
  entropy T*S    EENTRO =        -0.00000000
  eigenvalues    EBANDS =     -1382.11113992
  atomic energy  EATOM  =     11953.08265402
  Solvation  Ediel_sol  =         0.00000000
  ---------------------------------------------------
  free energy    TOTEN  =      -322.28759419 eV

  energy without entropy =     -322.28759419  energy(sigma->0) =     -322.28759419


--------------------------------------------------------------------------------------------------------




--------------------------------------- Iteration      1(   4)  ---------------------------------------


     EDDAV:  cpu time   66.4564: real time   66.5980
       DOS:  cpu time    0.0004: real time    0.0004
    --------------------------------------------
      LOOP:  cpu time   66.4568: real time   66.5984

 eigenvalue-minimisations  :  3120
 total energy-change (2. order) :-0.1162915E+02  (-0.1155490E+02)
 number of electron     324.0000000 magnetization 
 augmentation part      324.0000000 magnetization 

 Free energy of the ion-electron system (eV)
  ---------------------------------------------------
  alpha Z        PSCENC =       256.19213675
  Ewald energy   TEWEN  =     58093.49732307
  -Hartree energ DENC   =    -69812.45416090
  -exchange      EXHF   =         0.00000000
  -V(xc)+E(xc)   XCENC  =     -2096.94665872
  PAW double counting   =      7476.04436201    -4809.59211051
  entropy T*S    EENTRO =        -0.00000000
  eigenvalues    EBANDS =     -1393.74028981
  atomic energy  EATOM  =     11953.08265402
  Solvation  Ediel_sol  =         0.00000000
  ---------------------------------------------------
  free energy    TOTEN  =      -333.91674408 eV

  energy without entropy =     -333.91674408  energy(sigma->0) =     -333.91674408


--------------------------------------------------------------------------------------------------------




--------------------------------------- Iteration      1(   5)  ---------------------------------------


     EDDAV:  cpu time   62.9042: real time   63.0184
       DOS:  cpu time    0.0004: real time    0.0004
    CHARGE:  cpu time    1.0810: real time    1.0822
    MIXING:  cpu time    0.0069: real time    0.0071
    --------------------------------------------
      LOOP:  cpu time   63.9924: real time   64.1081

 eigenvalue-minimisations  :  2920
 total energy-change (2. order) :-0.2979848E+00  (-0.2975728E+00)
 number of electron     323.9999991 magnetization 
 augmentation part      -25.1343273 magnetization 

 Broyden mixing:
  rms(total) = 0.18448E+01    rms(broyden)= 0.18448E+01
  rms(prec ) = 0.19538E+01
  weight for this iteration     100.00

 Free energy of the ion-electron system (eV)
  ---------------------------------------------------
  alpha Z        PSCENC =       256.19213675
  Ewald energy   TEWEN  =     58093.49732307
  -Hartree energ DENC   =    -69812.45416090
  -exchange      EXHF   =         0.00000000
  -V(xc)+E(xc)   XCENC  =     -2096.94665872
  PAW double counting   =      7476.04436201    -4809.59211051
  entropy T*S    EENTRO =        -0.00000000
  eigenvalues    EBANDS =     -1394.03827463
  atomic energy  EATOM  =     11953.08265402
  Solvation  Ediel_sol  =         0.00000000
  ---------------------------------------------------
  free energy    TOTEN  =      -334.21472890 eV

  energy without entropy =     -334.21472890  energy(sigma->0) =     -334.21472890


--------------------------------------------------------------------------------------------------------




--------------------------------------- Iteration      1(   6)  ---------------------------------------


    POTLOK:  cpu time    0.2494: real time    0.2498
    SETDIJ:  cpu time    0.0106: real time    0.0106
    EDDIAG:  cpu time    2.3380: real time    2.3437
  RMM-DIIS:  cpu time   40.3032: real time   40.3837
    ORTHCH:  cpu time    0.2049: real time    0.2051
       DOS:  cpu time    0.0006: real time    0.0006
    CHARGE:  cpu time    1.0786: real time    1.0795
    MIXING:  cpu time    0.0065: real time    0.0067
    --------------------------------------------
      LOOP:  cpu time   44.1919: real time   44.2798

 eigenvalue-minimisations  :  2124
 total energy-change (2. order) : 0.8533532E+01  (-0.4230454E+01)
 number of electron     323.9999991 magnetization 
 augmentation part      -20.3435312 magnetization 

 Broyden mixing:
  rms(total) = 0.69564E+00    rms(broyden)= 0.69564E+00
  rms(prec ) = 0.79068E+00
  weight for this iteration     100.00

 eigenvalues of (default mixing * dielectric matrix)
  average eigenvalue GAMMA=   1.1341
  1.1341

 Free energy of the ion-electron system (eV)
  ---------------------------------------------------
  alpha Z        PSCENC =       256.19213675
  Ewald energy   TEWEN  =     58093.49732307
  -Hartree energ DENC   =    -69799.84553019
  -exchange      EXHF   =         0.00000000
  -V(xc)+E(xc)   XCENC  =     -2090.42709324
  PAW double counting   =      7760.39693163    -5106.22909742
  entropy T*S    EENTRO =        -0.00000011
  eigenvalues    EBANDS =     -1392.34852118
  atomic energy  EATOM  =     11953.08265402
  Solvation  Ediel_sol  =         0.00000000
  ---------------------------------------------------
  free energy    TOTEN  =      -325.68119666 eV

  energy without entropy =     -325.68119655  energy(sigma->0) =     -325.68119660


--------------------------------------------------------------------------------------------------------




--------------------------------------- Iteration      1(   7)  ---------------------------------------


    POTLOK:  cpu time    0.2474: real time    0.2477
    SETDIJ:  cpu time    0.0149: real time    0.0149
    EDDIAG:  cpu time    2.3536: real time    2.3587
  RMM-DIIS:  cpu time   37.3723: real time   37.4434
    ORTHCH:  cpu time    0.2034: real time    0.2036
       DOS:  cpu time    0.0004: real time    0.0004
    CHARGE:  cpu time    1.0737: real time    1.0781
    MIXING:  cpu time    0.0064: real time    0.0064
    --------------------------------------------
      LOOP:  cpu time   41.2722: real time   41.3532

 eigenvalue-minimisations  :  2004
 total energy-change (2. order) : 0.2761460E+01  (-0.9004575E+00)
 number of electron     323.9999991 magnetization 
 augmentation part      -21.6794982 magnetization 

 Broyden mixing:
  rms(total) = 0.44363E+00    rms(broyden)= 0.44363E+00
  rms(prec ) = 0.47004E+00
  weight for this iteration     100.00

 eigenvalues of (default mixing * dielectric matrix)
  average eigenvalue GAMMA=   1.5111
  0.7723  2.2498

 Free energy of the ion-electron system (eV)
  ---------------------------------------------------
  alpha Z        PSCENC =       256.19213675
  Ewald energy   TEWEN  =     58093.49732307
  -Hartree energ DENC   =    -69883.44714297
  -exchange      EXHF   =         0.00000000
  -V(xc)+E(xc)   XCENC  =     -2088.46740067
  PAW double counting   =      8100.67835153    -5452.77175947
  entropy T*S    EENTRO =        -0.00000000
  eigenvalues    EBANDS =     -1301.68389870
  atomic energy  EATOM  =     11953.08265402
  Solvation  Ediel_sol  =         0.00000000
  ---------------------------------------------------
  free energy    TOTEN  =      -322.91973643 eV

  energy without entropy =     -322.91973643  energy(sigma->0) =     -322.91973643


--------------------------------------------------------------------------------------------------------




--------------------------------------- Iteration      1(   8)  ---------------------------------------


    POTLOK:  cpu time    0.2519: real time    0.2522
    SETDIJ:  cpu time    0.0107: real time    0.0107
    EDDIAG:  cpu time    2.3518: real time    2.3543
  RMM-DIIS:  cpu time   36.9577: real time   37.0258
    ORTHCH:  cpu time    0.2036: real time    0.2038
       DOS:  cpu time    0.0004: real time    0.0004
    CHARGE:  cpu time    1.0753: real time    1.0793
    MIXING:  cpu time    0.0065: real time    0.0065
    --------------------------------------------
      LOOP:  cpu time   40.8580: real time   40.9330

 eigenvalue-minimisations  :  2003
 total energy-change (2. order) : 0.4051454E+00  (-0.6107855E+00)
 number of electron     323.9999991 magnetization 
 augmentation part      -21.4067565 magnetization 

 Broyden mixing:
  rms(total) = 0.10926E+00    rms(broyden)= 0.10926E+00
  rms(prec ) = 0.12662E+00
  weight for this iteration     100.00

 eigenvalues of (default mixing * dielectric matrix)
  average eigenvalue GAMMA=   1.3386
  2.1521  1.0319  0.8319

 Free energy of the ion-electron system (eV)
  ---------------------------------------------------
  alpha Z        PSCENC =       256.19213675
  Ewald energy   TEWEN  =     58093.49732307
  -Hartree energ DENC   =    -69940.83494968
  -exchange      EXHF   =         0.00000000
  -V(xc)+E(xc)   XCENC  =     -2084.51966960
  PAW double counting   =      8446.29707985    -5805.18098456
  entropy T*S    EENTRO =        -0.00000000
  eigenvalues    EBANDS =     -1241.04818090
  atomic energy  EATOM  =     11953.08265402
  Solvation  Ediel_sol  =         0.00000000
  ---------------------------------------------------
  free energy    TOTEN  =      -322.51459105 eV

  energy without entropy =     -322.51459105  energy(sigma->0) =     -322.51459105


--------------------------------------------------------------------------------------------------------




--------------------------------------- Iteration      1(   9)  ---------------------------------------


    POTLOK:  cpu time    0.2529: real time    0.2532
    SETDIJ:  cpu time    0.0114: real time    0.0114
    EDDIAG:  cpu time    2.3543: real time    2.3568
  RMM-DIIS:  cpu time   42.1577: real time   42.2451
    ORTHCH:  cpu time    0.2007: real time    0.2014
       DOS:  cpu time    0.0004: real time    0.0004
    CHARGE:  cpu time    1.0816: real time    1.0826
    MIXING:  cpu time    0.0066: real time    0.0066
    --------------------------------------------
      LOOP:  cpu time   46.0655: real time   46.1574

 eigenvalue-minimisations  :  2249
 total energy-change (2. order) :-0.4710180E-01  (-0.1198515E+00)
 number of electron     323.9999991 magnetization 
 augmentation part      -21.0443520 magnetization 

 Broyden mixing:
  rms(total) = 0.95758E-01    rms(broyden)= 0.95757E-01
  rms(prec ) = 0.10656E+00
  weight for this iteration     100.00

 eigenvalues of (default mixing * dielectric matrix)
  average eigenvalue GAMMA=   1.2287
  1.9065  1.7823  0.7624  0.4636

 Free energy of the ion-electron system (eV)
  ---------------------------------------------------
  alpha Z        PSCENC =       256.19213675
  Ewald energy   TEWEN  =     58093.49732307
  -Hartree energ DENC   =    -69938.75150279
  -exchange      EXHF   =         0.00000000
  -V(xc)+E(xc)   XCENC  =     -2084.21270519
  PAW double counting   =      8444.75804742    -5803.67979911
  entropy T*S    EENTRO =        -0.00000000
  eigenvalues    EBANDS =     -1243.44784703
  atomic energy  EATOM  =     11953.08265402
  Solvation  Ediel_sol  =         0.00000000
  ---------------------------------------------------
  free energy    TOTEN  =      -322.56169285 eV

  energy without entropy =     -322.56169285  energy(sigma->0) =     -322.56169285


--------------------------------------------------------------------------------------------------------




--------------------------------------- Iteration      1(  10)  ---------------------------------------


    POTLOK:  cpu time    0.2510: real time    0.2513
    SETDIJ:  cpu time    0.0108: real time    0.0108
    EDDIAG:  cpu time    2.3484: real time    2.3510
  RMM-DIIS:  cpu time   43.6843: real time   43.7731
    ORTHCH:  cpu time    0.2049: real time    0.2051
       DOS:  cpu time    0.0004: real time    0.0004
    CHARGE:  cpu time    1.0822: real time    1.0832
    MIXING:  cpu time    0.0067: real time    0.0067
    --------------------------------------------
      LOOP:  cpu time   47.5887: real time   47.6817

 eigenvalue-minimisations  :  2328
 total energy-change (2. order) :-0.3240226E-03  (-0.2877586E-01)
 number of electron     323.9999991 magnetization 
 augmentation part      -20.9541445 magnetization 

 Broyden mixing:
  rms(total) = 0.65144E-01    rms(broyden)= 0.65143E-01
  rms(prec ) = 0.74071E-01
  weight for this iteration     100.00

 eigenvalues of (default mixing * dielectric matrix)
  average eigenvalue GAMMA=   1.3181
  2.3888  1.9431  0.9349  0.9349  0.3889

 Free energy of the ion-electron system (eV)
  ---------------------------------------------------
  alpha Z        PSCENC =       256.19213675
  Ewald energy   TEWEN  =     58093.49732307
  -Hartree energ DENC   =    -69942.76896928
  -exchange      EXHF   =         0.00000000
  -V(xc)+E(xc)   XCENC  =     -2084.02266340
  PAW double counting   =      8460.83660085    -5819.77138404
  entropy T*S    EENTRO =        -0.00000000
  eigenvalues    EBANDS =     -1239.60771485
  atomic energy  EATOM  =     11953.08265402
  Solvation  Ediel_sol  =         0.00000000
  ---------------------------------------------------
  free energy    TOTEN  =      -322.56201688 eV

  energy without entropy =     -322.56201688  energy(sigma->0) =     -322.56201688


--------------------------------------------------------------------------------------------------------




--------------------------------------- Iteration      1(  11)  ---------------------------------------


    POTLOK:  cpu time    0.2511: real time    0.2513
    SETDIJ:  cpu time    0.0101: real time    0.0101
    EDDIAG:  cpu time    2.3497: real time    2.3523
  RMM-DIIS:  cpu time   39.4529: real time   39.5326
    ORTHCH:  cpu time    0.2047: real time    0.2048
       DOS:  cpu time    0.0004: real time    0.0004
    CHARGE:  cpu time    1.0759: real time    1.0770
    MIXING:  cpu time    0.0068: real time    0.0068
    --------------------------------------------
      LOOP:  cpu time   43.3516: real time   43.4354

 eigenvalue-minimisations  :  2110
 total energy-change (2. order) : 0.9388701E-02  (-0.1620869E-01)
 number of electron     323.9999991 magnetization 
 augmentation part      -21.2415474 magnetization 

 Broyden mixing:
  rms(total) = 0.31878E-01    rms(broyden)= 0.31878E-01
  rms(prec ) = 0.36530E-01
  weight for this iteration     100.00

 eigenvalues of (default mixing * dielectric matrix)
  average eigenvalue GAMMA=   1.2499
  2.5324  1.6989  1.4343  0.7253  0.7253  0.3836

 Free energy of the ion-electron system (eV)
  ---------------------------------------------------
  alpha Z        PSCENC =       256.19213675
  Ewald energy   TEWEN  =     58093.49732307
  -Hartree energ DENC   =    -69958.57491464
  -exchange      EXHF   =         0.00000000
  -V(xc)+E(xc)   XCENC  =     -2083.79282368
  PAW double counting   =      8506.80076546    -5865.95727353
  entropy T*S    EENTRO =        -0.00000000
  eigenvalues    EBANDS =     -1223.80049564
  atomic energy  EATOM  =     11953.08265402
  Solvation  Ediel_sol  =         0.00000000
  ---------------------------------------------------
  free energy    TOTEN  =      -322.55262818 eV

  energy without entropy =     -322.55262818  energy(sigma->0) =     -322.55262818


--------------------------------------------------------------------------------------------------------




--------------------------------------- Iteration      1(  12)  ---------------------------------------


    POTLOK:  cpu time    0.2525: real time    0.2527
    SETDIJ:  cpu time    0.0107: real time    0.0107
    EDDIAG:  cpu time    2.3419: real time    2.3477
  RMM-DIIS:  cpu time   45.7297: real time   45.8347
    ORTHCH:  cpu time    0.2018: real time    0.2020
       DOS:  cpu time    0.0004: real time    0.0004
    CHARGE:  cpu time    1.0806: real time    1.0817
    MIXING:  cpu time    0.0069: real time    0.0069
    --------------------------------------------
      LOOP:  cpu time   49.6244: real time   49.7369

 eigenvalue-minimisations  :  2402
 total energy-change (2. order) : 0.6386066E-03  (-0.2753068E-02)
 number of electron     323.9999991 magnetization 
 augmentation part      -21.2304445 magnetization 

 Broyden mixing:
  rms(total) = 0.22738E-01    rms(broyden)= 0.22737E-01
  rms(prec ) = 0.26474E-01
  weight for this iteration     100.00

 eigenvalues of (default mixing * dielectric matrix)
  average eigenvalue GAMMA=   1.2447
  2.4946  1.8849  1.8849  0.8275  0.8275  0.4152  0.3786

 Free energy of the ion-electron system (eV)
  ---------------------------------------------------
  alpha Z        PSCENC =       256.19213675
  Ewald energy   TEWEN  =     58093.49732307
  -Hartree energ DENC   =    -69961.53671808
  -exchange      EXHF   =         0.00000000
  -V(xc)+E(xc)   XCENC  =     -2083.70262313
  PAW double counting   =      8509.56840510    -5868.74206253
  entropy T*S    EENTRO =        -0.00000000
  eigenvalues    EBANDS =     -1220.91110478
  atomic energy  EATOM  =     11953.08265402
  Solvation  Ediel_sol  =         0.00000000
  ---------------------------------------------------
  free energy    TOTEN  =      -322.55198957 eV

  energy without entropy =     -322.55198957  energy(sigma->0) =     -322.55198957


--------------------------------------------------------------------------------------------------------




--------------------------------------- Iteration      1(  13)  ---------------------------------------


    POTLOK:  cpu time    0.2521: real time    0.2525
    SETDIJ:  cpu time    0.0111: real time    0.0111
    EDDIAG:  cpu time    2.3566: real time    2.3592
  RMM-DIIS:  cpu time   43.8809: real time   43.9677
    ORTHCH:  cpu time    0.2028: real time    0.2030
       DOS:  cpu time    0.0004: real time    0.0004
    CHARGE:  cpu time    1.0781: real time    1.0790
    MIXING:  cpu time    0.0071: real time    0.0071
    --------------------------------------------
      LOOP:  cpu time   47.7891: real time   47.8800

 eigenvalue-minimisations  :  2305
 total energy-change (2. order) : 0.8670648E-03  (-0.1911978E-02)
 number of electron     323.9999991 magnetization 
 augmentation part      -21.1329061 magnetization 

 Broyden mixing:
  rms(total) = 0.10376E-01    rms(broyden)= 0.10376E-01
  rms(prec ) = 0.12986E-01
  weight for this iteration     100.00

 eigenvalues of (default mixing * dielectric matrix)
  average eigenvalue GAMMA=   1.3944
  2.8328  2.8328  1.5242  1.5242  0.8197  0.8197  0.3776  0.4242

 Free energy of the ion-electron system (eV)
  ---------------------------------------------------
  alpha Z        PSCENC =       256.19213675
  Ewald energy   TEWEN  =     58093.49732307
  -Hartree energ DENC   =    -69963.80694529
  -exchange      EXHF   =         0.00000000
  -V(xc)+E(xc)   XCENC  =     -2083.63147905
  PAW double counting   =      8505.25732250    -5864.39175958
  entropy T*S    EENTRO =        -0.00000000
  eigenvalues    EBANDS =     -1218.75037492
  atomic energy  EATOM  =     11953.08265402
  Solvation  Ediel_sol  =         0.00000000
  ---------------------------------------------------
  free energy    TOTEN  =      -322.55112250 eV

  energy without entropy =     -322.55112250  energy(sigma->0) =     -322.55112250


--------------------------------------------------------------------------------------------------------




--------------------------------------- Iteration      1(  14)  ---------------------------------------


    POTLOK:  cpu time    0.2515: real time    0.2519
    SETDIJ:  cpu time    0.0109: real time    0.0109
    EDDIAG:  cpu time    2.3448: real time    2.3491
  RMM-DIIS:  cpu time   39.5526: real time   39.6431
    ORTHCH:  cpu time    0.2039: real time    0.2041
       DOS:  cpu time    0.0005: real time    0.0004
    CHARGE:  cpu time    1.0770: real time    1.0780
    MIXING:  cpu time    0.0085: real time    0.0085
    --------------------------------------------
      LOOP:  cpu time   43.4497: real time   43.5461

 eigenvalue-minimisations  :  2105
 total energy-change (2. order) :-0.5196467E-03  (-0.4250992E-03)
 number of electron     323.9999991 magnetization 
 augmentation part      -21.1587578 magnetization 

 Broyden mixing:
  rms(total) = 0.52975E-02    rms(broyden)= 0.52975E-02
  rms(prec ) = 0.65406E-02
  weight for this iteration     100.00

 eigenvalues of (default mixing * dielectric matrix)
  average eigenvalue GAMMA=   1.3676
  3.1826  2.5399  1.6823  1.6823  0.8092  0.8092  0.7997  0.3777  0.4259

 Free energy of the ion-electron system (eV)
  ---------------------------------------------------
  alpha Z        PSCENC =       256.19213675
  Ewald energy   TEWEN  =     58093.49732307
  -Hartree energ DENC   =    -69972.20889342
  -exchange      EXHF   =         0.00000000
  -V(xc)+E(xc)   XCENC  =     -2083.61724757
  PAW double counting   =      8504.05571468    -5863.07737196
  entropy T*S    EENTRO =        -0.00000000
  eigenvalues    EBANDS =     -1210.47595773
  atomic energy  EATOM  =     11953.08265402
  Solvation  Ediel_sol  =         0.00000000
  ---------------------------------------------------
  free energy    TOTEN  =      -322.55164215 eV

  energy without entropy =     -322.55164215  energy(sigma->0) =     -322.55164215


--------------------------------------------------------------------------------------------------------




--------------------------------------- Iteration      1(  15)  ---------------------------------------


    POTLOK:  cpu time    0.2505: real time    0.2528
    SETDIJ:  cpu time    0.0107: real time    0.0107
    EDDIAG:  cpu time    2.3484: real time    2.3508
  RMM-DIIS:  cpu time   51.0161: real time   51.1428
    ORTHCH:  cpu time    0.2066: real time    0.2068
       DOS:  cpu time    0.0004: real time    0.0004
    CHARGE:  cpu time    1.0724: real time    1.0735
    MIXING:  cpu time    0.0076: real time    0.0076
    --------------------------------------------
      LOOP:  cpu time   54.9128: real time   55.0456

 eigenvalue-minimisations  :  2704
 total energy-change (2. order) :-0.7755951E-03  (-0.1870597E-03)
 number of electron     323.9999991 magnetization 
 augmentation part      -21.1578880 magnetization 

 Broyden mixing:
  rms(total) = 0.42622E-02    rms(broyden)= 0.42621E-02
  rms(prec ) = 0.52830E-02
  weight for this iteration     100.00

 eigenvalues of (default mixing * dielectric matrix)
  average eigenvalue GAMMA=   1.3235
  3.3130  2.4556  1.8517  1.8517  0.9066  0.8138  0.8138  0.3783  0.4385  0.4120

 Free energy of the ion-electron system (eV)
  ---------------------------------------------------
  alpha Z        PSCENC =       256.19213675
  Ewald energy   TEWEN  =     58093.49732307
  -Hartree energ DENC   =    -69973.80579029
  -exchange      EXHF   =         0.00000000
  -V(xc)+E(xc)   XCENC  =     -2083.60194483
  PAW double counting   =      8504.20021279    -5863.24225151
  entropy T*S    EENTRO =        -0.00000000
  eigenvalues    EBANDS =     -1208.87475776
  atomic energy  EATOM  =     11953.08265402
  Solvation  Ediel_sol  =         0.00000000
  ---------------------------------------------------
  free energy    TOTEN  =      -322.55241775 eV

  energy without entropy =     -322.55241775  energy(sigma->0) =     -322.55241775


--------------------------------------------------------------------------------------------------------




--------------------------------------- Iteration      1(  16)  ---------------------------------------


    POTLOK:  cpu time    0.2523: real time    0.2526
    SETDIJ:  cpu time    0.0107: real time    0.0107
    EDDIAG:  cpu time    2.3384: real time    2.3449
  RMM-DIIS:  cpu time   44.1900: real time   44.2717
    ORTHCH:  cpu time    0.2052: real time    0.2056
       DOS:  cpu time    0.0005: real time    0.0004
    CHARGE:  cpu time    1.0736: real time    1.0746
    MIXING:  cpu time    0.0074: real time    0.0075
    --------------------------------------------
      LOOP:  cpu time   48.0781: real time   48.1680

 eigenvalue-minimisations  :  2357
 total energy-change (2. order) :-0.7555196E-03  (-0.3887370E-04)
 number of electron     323.9999991 magnetization 
 augmentation part      -21.1544047 magnetization 

 Broyden mixing:
  rms(total) = 0.24004E-02    rms(broyden)= 0.24004E-02
  rms(prec ) = 0.33541E-02
  weight for this iteration     100.00

 eigenvalues of (default mixing * dielectric matrix)
  average eigenvalue GAMMA=   1.4849
  4.6691  2.5516  2.2329  1.4945  1.4945  1.0641  0.8185  0.8185  0.4265  0.3782
  0.3853

 Free energy of the ion-electron system (eV)
  ---------------------------------------------------
  alpha Z        PSCENC =       256.19213675
  Ewald energy   TEWEN  =     58093.49732307
  -Hartree energ DENC   =    -69975.37013048
  -exchange      EXHF   =         0.00000000
  -V(xc)+E(xc)   XCENC  =     -2083.58881770
  PAW double counting   =      8503.79394270    -5862.85364758
  entropy T*S    EENTRO =        -0.00000000
  eigenvalues    EBANDS =     -1207.30663407
  atomic energy  EATOM  =     11953.08265402
  Solvation  Ediel_sol  =         0.00000000
  ---------------------------------------------------
  free energy    TOTEN  =      -322.55317327 eV

  energy without entropy =     -322.55317327  energy(sigma->0) =     -322.55317327


--------------------------------------------------------------------------------------------------------




--------------------------------------- Iteration      1(  17)  ---------------------------------------


    POTLOK:  cpu time    0.2533: real time    0.2535
    SETDIJ:  cpu time    0.0108: real time    0.0108
    EDDIAG:  cpu time    2.3475: real time    2.3501
  RMM-DIIS:  cpu time   39.2351: real time   39.3075
    ORTHCH:  cpu time    0.2027: real time    0.2029
       DOS:  cpu time    0.0017: real time    0.0017
    CHARGE:  cpu time    1.0759: real time    1.0771
    MIXING:  cpu time    0.0085: real time    0.0085
    --------------------------------------------
      LOOP:  cpu time   43.1354: real time   43.2121

 eigenvalue-minimisations  :  2063
 total energy-change (2. order) :-0.1462921E-02  (-0.4390885E-04)
 number of electron     323.9999991 magnetization 
 augmentation part      -21.1521381 magnetization 

 Broyden mixing:
  rms(total) = 0.16454E-02    rms(broyden)= 0.16454E-02
  rms(prec ) = 0.19606E-02
  weight for this iteration     100.00

 eigenvalues of (default mixing * dielectric matrix)
  average eigenvalue GAMMA=   1.4703
  4.9886  2.6524  2.3191  1.6538  1.6538  0.9942  0.8176  0.8176  0.5673  0.4251
  0.3794  0.3742

 Free energy of the ion-electron system (eV)
  ---------------------------------------------------
  alpha Z        PSCENC =       256.19213675
  Ewald energy   TEWEN  =     58093.49732307
  -Hartree energ DENC   =    -69979.22547667
  -exchange      EXHF   =         0.00000000
  -V(xc)+E(xc)   XCENC  =     -2083.57216300
  PAW double counting   =      8502.30936729    -5861.36921090
  entropy T*S    EENTRO =        -0.00000000
  eigenvalues    EBANDS =     -1203.46926675
  atomic energy  EATOM  =     11953.08265402
  Solvation  Ediel_sol  =         0.00000000
  ---------------------------------------------------
  free energy    TOTEN  =      -322.55463619 eV

  energy without entropy =     -322.55463619  energy(sigma->0) =     -322.55463619


--------------------------------------------------------------------------------------------------------




--------------------------------------- Iteration      1(  18)  ---------------------------------------


    POTLOK:  cpu time    0.2530: real time    0.2533
    SETDIJ:  cpu time    0.0112: real time    0.0112
    EDDIAG:  cpu time    2.3452: real time    2.3506
  RMM-DIIS:  cpu time   46.3609: real time   46.4639
    ORTHCH:  cpu time    0.2020: real time    0.2023
       DOS:  cpu time    0.0005: real time    0.0004
    CHARGE:  cpu time    1.0747: real time    1.0798
    MIXING:  cpu time    0.0089: real time    0.0090
    --------------------------------------------
      LOOP:  cpu time   50.2565: real time   50.3705

 eigenvalue-minimisations  :  2427
 total energy-change (2. order) :-0.2784350E-03  (-0.1011325E-04)
 number of electron     323.9999991 magnetization 
 augmentation part      -21.1516476 magnetization 

 Broyden mixing:
  rms(total) = 0.12657E-02    rms(broyden)= 0.12657E-02
  rms(prec ) = 0.15067E-02
  weight for this iteration     100.00

 eigenvalues of (default mixing * dielectric matrix)
  average eigenvalue GAMMA=   1.4317
  4.8672  2.7000  2.3731  1.8116  1.8116  0.8922  0.8922  0.8256  0.8256  0.4300
  0.4300  0.3768  0.3768

 Free energy of the ion-electron system (eV)
  ---------------------------------------------------
  alpha Z        PSCENC =       256.19213675
  Ewald energy   TEWEN  =     58093.49732307
  -Hartree energ DENC   =    -69979.74265915
  -exchange      EXHF   =         0.00000000
  -V(xc)+E(xc)   XCENC  =     -2083.57053629
  PAW double counting   =      8502.38783922    -5861.44581667
  entropy T*S    EENTRO =        -0.00000000
  eigenvalues    EBANDS =     -1202.95585559
  atomic energy  EATOM  =     11953.08265402
  Solvation  Ediel_sol  =         0.00000000
  ---------------------------------------------------
  free energy    TOTEN  =      -322.55491462 eV

  energy without entropy =     -322.55491462  energy(sigma->0) =     -322.55491462


--------------------------------------------------------------------------------------------------------




--------------------------------------- Iteration      1(  19)  ---------------------------------------


    POTLOK:  cpu time    0.2548: real time    0.2560
    SETDIJ:  cpu time    0.0113: real time    0.0113
    EDDIAG:  cpu time    2.3485: real time    2.3544
  RMM-DIIS:  cpu time   39.7870: real time   39.8894
    ORTHCH:  cpu time    0.2105: real time    0.2107
       DOS:  cpu time    0.0005: real time    0.0005
    CHARGE:  cpu time    1.0708: real time    1.0749
    MIXING:  cpu time    0.0083: real time    0.0083
    --------------------------------------------
      LOOP:  cpu time   43.6916: real time   43.8055

 eigenvalue-minimisations  :  2105
 total energy-change (2. order) :-0.2432901E-03  (-0.3017838E-05)
 number of electron     323.9999991 magnetization 
 augmentation part      -21.1519554 magnetization 

 Broyden mixing:
  rms(total) = 0.72732E-03    rms(broyden)= 0.72732E-03
  rms(prec ) = 0.92483E-03
  weight for this iteration     100.00

 eigenvalues of (default mixing * dielectric matrix)
  average eigenvalue GAMMA=   1.5957
  6.6294  3.0668  2.4814  1.8776  1.8776  1.1568  1.1568  0.8189  0.8189  0.8753
  0.4256  0.4028  0.3773  0.3743

 Free energy of the ion-electron system (eV)
  ---------------------------------------------------
  alpha Z        PSCENC =       256.19213675
  Ewald energy   TEWEN  =     58093.49732307
  -Hartree energ DENC   =    -69979.95846549
  -exchange      EXHF   =         0.00000000
  -V(xc)+E(xc)   XCENC  =     -2083.57037383
  PAW double counting   =      8502.73573848    -5861.79164451
  entropy T*S    EENTRO =        -0.00000000
  eigenvalues    EBANDS =     -1202.74252643
  atomic energy  EATOM  =     11953.08265402
  Solvation  Ediel_sol  =         0.00000000
  ---------------------------------------------------
  free energy    TOTEN  =      -322.55515791 eV

  energy without entropy =     -322.55515791  energy(sigma->0) =     -322.55515791


--------------------------------------------------------------------------------------------------------




--------------------------------------- Iteration      1(  20)  ---------------------------------------


    POTLOK:  cpu time    0.2552: real time    0.2554
    SETDIJ:  cpu time    0.0118: real time    0.0118
    EDDIAG:  cpu time    2.3445: real time    2.3509
  RMM-DIIS:  cpu time   41.5135: real time   41.5972
    ORTHCH:  cpu time    0.2073: real time    0.2076
       DOS:  cpu time    0.0004: real time    0.0004
    CHARGE:  cpu time    1.0773: real time    1.0810
    MIXING:  cpu time    0.0092: real time    0.0092
    --------------------------------------------
      LOOP:  cpu time   45.4193: real time   45.5135

 eigenvalue-minimisations  :  2159
 total energy-change (2. order) :-0.3897099E-03  (-0.4545922E-05)
 number of electron     323.9999991 magnetization 
 augmentation part      -21.1527361 magnetization 

 Broyden mixing:
  rms(total) = 0.32995E-03    rms(broyden)= 0.32994E-03
  rms(prec ) = 0.41699E-03
  weight for this iteration     100.00

 eigenvalues of (default mixing * dielectric matrix)
  average eigenvalue GAMMA=   1.5679
  6.6096  3.1736  2.4488  1.9271  1.9271  1.2575  1.2575  0.8189  0.8189  0.8490
  0.8490  0.4257  0.4055  0.3777  0.3722

 Free energy of the ion-electron system (eV)
  ---------------------------------------------------
  alpha Z        PSCENC =       256.19213675
  Ewald energy   TEWEN  =     58093.49732307
  -Hartree energ DENC   =    -69980.71147067
  -exchange      EXHF   =         0.00000000
  -V(xc)+E(xc)   XCENC  =     -2083.56983807
  PAW double counting   =      8503.05466901    -5862.10858468
  entropy T*S    EENTRO =        -0.00000000
  eigenvalues    EBANDS =     -1201.99243707
  atomic energy  EATOM  =     11953.08265402
  Solvation  Ediel_sol  =         0.00000000
  ---------------------------------------------------
  free energy    TOTEN  =      -322.55554762 eV

  energy without entropy =     -322.55554762  energy(sigma->0) =     -322.55554762


--------------------------------------------------------------------------------------------------------




--------------------------------------- Iteration      1(  21)  ---------------------------------------


    POTLOK:  cpu time    0.2549: real time    0.2552
    SETDIJ:  cpu time    0.0108: real time    0.0108
    EDDIAG:  cpu time    2.3447: real time    2.3473
  RMM-DIIS:  cpu time   33.8862: real time   33.9509
    ORTHCH:  cpu time    0.2075: real time    0.2077
       DOS:  cpu time    0.0004: real time    0.0004
    CHARGE:  cpu time    1.0755: real time    1.0765
    MIXING:  cpu time    0.0096: real time    0.0096
    --------------------------------------------
      LOOP:  cpu time   37.7895: real time   37.8584

 eigenvalue-minimisations  :  1704
 total energy-change (2. order) :-0.4657312E-04  (-0.7489915E-06)
 number of electron     323.9999991 magnetization 
 augmentation part      -21.1527443 magnetization 

 Broyden mixing:
  rms(total) = 0.25291E-03    rms(broyden)= 0.25291E-03
  rms(prec ) = 0.32546E-03
  weight for this iteration     100.00

 eigenvalues of (default mixing * dielectric matrix)
  average eigenvalue GAMMA=   1.5952
  6.7320  3.3226  2.4207  2.2110  2.2110  1.5978  1.0792  1.0339  1.0339  0.8204
  0.8204  0.6586  0.4258  0.4054  0.3776  0.3722

 Free energy of the ion-electron system (eV)
  ---------------------------------------------------
  alpha Z        PSCENC =       256.19213675
  Ewald energy   TEWEN  =     58093.49732307
  -Hartree energ DENC   =    -69980.84526326
  -exchange      EXHF   =         0.00000000
  -V(xc)+E(xc)   XCENC  =     -2083.56997974
  PAW double counting   =      8503.02524640    -5862.07995105
  entropy T*S    EENTRO =        -0.00000000
  eigenvalues    EBANDS =     -1201.85776039
  atomic energy  EATOM  =     11953.08265402
  Solvation  Ediel_sol  =         0.00000000
  ---------------------------------------------------
  free energy    TOTEN  =      -322.55559419 eV

  energy without entropy =     -322.55559419  energy(sigma->0) =     -322.55559419


--------------------------------------------------------------------------------------------------------




--------------------------------------- Iteration      1(  22)  ---------------------------------------


    POTLOK:  cpu time    0.2589: real time    0.2591
    SETDIJ:  cpu time    0.0106: real time    0.0106
    EDDIAG:  cpu time    2.3429: real time    2.3478
  RMM-DIIS:  cpu time   25.9161: real time   25.9670
    ORTHCH:  cpu time    0.2023: real time    0.2025
       DOS:  cpu time    0.0005: real time    0.0005
    CHARGE:  cpu time    1.0777: real time    1.0789
    MIXING:  cpu time    0.0087: real time    0.0087
    --------------------------------------------
      LOOP:  cpu time   29.8177: real time   29.8751

 eigenvalue-minimisations  :  1348
 total energy-change (2. order) :-0.7484262E-04  (-0.3409031E-06)
 number of electron     323.9999991 magnetization 
 augmentation part      -21.1529030 magnetization 

 Broyden mixing:
  rms(total) = 0.18503E-03    rms(broyden)= 0.18503E-03
  rms(prec ) = 0.24925E-03
  weight for this iteration     100.00

 eigenvalues of (default mixing * dielectric matrix)
  average eigenvalue GAMMA=   1.6123
  7.0915  3.7431  2.7854  2.4281  1.8952  1.8952  1.1153  1.1153  0.9740  0.8186
  0.8186  0.7348  0.3776  0.3726  0.4258  0.4024  0.4161

[...]
 -0.000   0.000   0.000  -0.000   0.000   0.011   0.000  -0.000
 -0.000   0.000  -0.000   0.000   0.000   0.000   0.011  -0.000
 -0.000  -0.000   0.000   0.000   0.000  -0.000  -0.000   0.011
 -0.000  -0.000   0.002   0.000  -0.000  -0.000  -0.000   0.000
 -0.000   0.000  -0.017  -0.001   0.000  -0.000   0.000  -0.000
 -0.009  -0.000   0.000  -0.021  -0.001  -0.000  -0.000   0.000
 -0.000  -0.000   0.000   0.002  -0.017  -0.000  -0.000  -0.000
  0.000   0.000   0.001  -0.000   0.002   0.000   0.000  -0.000
 total augmentation occupancy for first ion, spin component:           1
  1.930   0.248   0.001   0.198   0.005   0.004   0.050  -0.010  -0.002   0.000   0.006  -0.002   0.000
  0.248   1.414  -0.016  -0.971   0.017   0.002   0.396  -0.017  -0.004   0.002  -0.021  -0.001   0.001
  0.001  -0.016   1.342   0.007  -0.009  -0.503  -0.002   0.014   0.002  -0.123   0.002   0.005  -0.044
  0.198  -0.971   0.007   1.519  -0.023  -0.003  -0.556   0.010   0.007  -0.001  -0.038   0.006  -0.000
  0.005   0.017  -0.009  -0.023   1.343   0.014   0.008  -0.506  -0.049   0.005   0.001  -0.122   0.001
  0.004   0.002  -0.503  -0.003   0.014   0.323   0.001  -0.005  -0.004   0.043  -0.000  -0.001   0.008
  0.050   0.396  -0.002  -0.556   0.008   0.001   0.311  -0.001   0.000   0.001   0.050  -0.003  -0.000
 -0.010  -0.017   0.014   0.010  -0.506  -0.005  -0.001   0.325   0.009  -0.001   0.002   0.043  -0.003
 -0.002  -0.004   0.002   0.007  -0.049  -0.004   0.000   0.009   0.022  -0.001   0.001  -0.000   0.000
  0.000   0.002  -0.123  -0.001   0.005   0.043   0.001  -0.001  -0.001   0.020   0.000  -0.001  -0.001
  0.006  -0.021   0.002  -0.038   0.001  -0.000   0.050   0.002   0.001   0.000   0.022  -0.001  -0.000
 -0.002  -0.001   0.005   0.006  -0.122  -0.001  -0.003   0.043  -0.000  -0.001  -0.001   0.020  -0.001
  0.000   0.001  -0.044  -0.000   0.001   0.008  -0.000  -0.003   0.000  -0.001  -0.000  -0.001   0.022


------------------------ aborting loop because EDIFF is reached ----------------------------------------


    CHARGE:  cpu time    1.0768: real time    1.0778
    FORLOC:  cpu time    0.0719: real time    0.0719
    FORNL :  cpu time   12.9025: real time   12.9295
    STRESS:  cpu time   68.3801: real time   68.5060
    FORCOR:  cpu time    0.2823: real time    0.2826
    FORHAR:  cpu time    0.1201: real time    0.1202
    MIXING:  cpu time    0.0071: real time    0.0072
    OFIELD:  cpu time    0.0000: real time    0.0000

  Number of pair interactions contributing to vdW energy:  278608
  Edisp (eV):  -19.46353
    FORVDW:  cpu time    0.0302: real time    0.0302

  FORCE on cell =-STRESS in cart. coord.  units (eV):
  Direction    XX          YY          ZZ          XY          YZ          ZX
  --------------------------------------------------------------------------------------
  Alpha Z   256.19214   256.19214   256.19214
  Ewald   67183.73515 67189.53956-76397.28598     3.88411   -19.64440   -49.02926
  Hartree 69502.03713 69503.24543-69133.08619    -1.35384    -4.78995    -2.48077
  E(xc)   -1362.41901 -1362.32072 -1382.16785    -0.37047     0.15168     2.54030
  Local  ************************140448.03658    -2.15344    22.68364    50.22865
  n-local  3574.68352  3577.64680  3764.74210     2.02603    -0.43108   -18.54737
  augment  -759.83969  -760.64101  -801.85533    -0.23040    -0.21206     3.22418
  Kinetic  3302.66532  3297.23369  3297.48859    -0.99834    -3.72361    -7.06860
  Fock        0.00000     0.00000     0.00000     0.00000     0.00000     0.00000
  vdW       -13.58888   -13.46269    -9.95971    -0.19321    -0.77476     1.42120
  -------------------------------------------------------------------------------------
  Total      20.95439    17.77727    42.10434     0.61045    -6.74055   -19.71165
  in kB      11.98475    10.16761    24.08135     0.34914    -3.85522   -11.27397
  external pressure =       15.41 kB  Pullay stress =        0.00 kB

  kinetic pressure (ideal gas correction) =      0.32 kB
  total pressure  =     15.73 kB
  Total+kin.    12.333      10.349      24.506       0.353      -3.840     -11.499

 VOLUME and BASIS-vectors are now :
 -----------------------------------------------------------------------------
  energy-cutoff  :      550.00
  volume of cell :     2801.28
      direct lattice vectors                 reciprocal lattice vectors
    10.501212932  0.000000000  0.000000000     0.095227095  0.054805316 -0.003431827
    -5.266908324  9.151527833  0.000000000     0.000000000  0.109271372 -0.000167726
     1.024731552  0.044742274 29.148996917     0.000000000  0.000000000  0.034306498

  length of vectors
    10.501212932 10.558919687 29.167037866     0.109925428  0.109271500  0.034306498


 FORCES acting on ions
    electron-ion (+dipol)            ewald-force                    non-local-force                 convergence-correction
 -----------------------------------------------------------------------------------------------
   0.322E+01 -.145E+01 -.831E+03   -.317E+01 0.145E+01 0.836E+03   -.716E+00 0.889E-01 -.475E+01   0.806E-05 0.434E-03 0.541E-03
   -.165E+01 -.302E+01 -.829E+03   0.172E+01 0.301E+01 0.834E+03   -.135E+00 0.208E+00 -.500E+01   0.533E-03 -.314E-03 0.887E-03
   0.177E-01 0.322E+01 -.829E+03   0.839E-01 -.325E+01 0.835E+03   -.486E+00 -.300E+00 -.462E+01   -.140E-03 0.139E-03 0.110E-02
   0.356E-01 0.114E+01 -.830E+03   0.999E-01 -.109E+01 0.836E+03   -.381E+00 -.274E+00 -.480E+01   0.191E-03 0.505E-04 0.346E-03
   0.333E+01 -.176E+01 -.828E+03   -.330E+01 0.182E+01 0.834E+03   -.404E+00 -.274E-01 -.520E+01   -.233E-03 -.508E-03 0.602E-03
   0.170E+01 0.302E+01 -.828E+03   -.165E+01 -.306E+01 0.833E+03   -.376E+00 -.167E+00 -.481E+01   -.811E-04 0.405E-03 0.950E-03
   0.814E+00 -.163E+01 -.831E+03   -.696E+00 0.162E+01 0.837E+03   -.397E+00 0.184E+00 -.497E+01   -.231E-03 -.178E-03 0.661E-03
   -.106E+01 -.448E+00 -.830E+03   0.114E+01 0.495E+00 0.835E+03   -.152E+00 -.170E+00 -.507E+01   -.280E-03 -.852E-04 0.850E-03
   0.145E+00 -.351E+00 -.829E+03   -.566E-01 0.316E+00 0.835E+03   -.272E+00 0.119E+00 -.476E+01   0.211E-03 0.100E-03 0.110E-02
   0.170E+01 -.226E+01 0.107E+03   -.170E+01 0.239E+01 -.102E+03   -.309E+00 -.354E-02 -.515E+01   0.337E-03 0.260E-03 0.830E-03
   -.138E+01 -.573E-01 0.104E+03   0.141E+01 0.121E+00 -.984E+02   -.217E+00 0.455E-01 -.523E+01   -.452E-03 -.342E-03 0.305E-03
   -.910E+00 -.867E+00 0.103E+03   0.983E+00 0.906E+00 -.978E+02   -.177E+00 -.124E+00 -.488E+01   0.188E-03 0.131E-03 0.550E-03
   0.224E+01 0.104E+00 0.104E+03   -.226E+01 -.967E-01 -.989E+02   -.485E+00 -.118E+00 -.479E+01   0.567E-03 0.772E-04 -.337E-03
   0.398E+01 -.368E+00 0.105E+03   -.402E+01 0.378E+00 -.997E+02   -.698E+00 -.933E-02 -.485E+01   0.398E-03 -.318E-03 0.421E-03
   0.139E+01 0.220E+00 0.103E+03   -.135E+01 -.195E+00 -.979E+02   -.615E+00 -.193E-01 -.476E+01   -.182E-04 0.781E-03 0.291E-03
   -.144E+01 -.312E+00 0.107E+03   0.153E+01 0.349E+00 -.101E+03   -.191E+00 0.565E-01 -.508E+01   -.897E-03 0.395E-03 -.137E-03
   0.904E+00 -.625E-01 0.105E+03   -.813E+00 0.172E+00 -.994E+02   -.412E+00 -.104E+00 -.515E+01   0.474E-04 -.684E-03 -.262E-03
   0.328E+01 -.407E+00 0.108E+03   -.328E+01 0.527E+00 -.102E+03   -.612E+00 -.165E+00 -.485E+01   -.176E-03 -.311E-03 0.887E-03
   -.337E+01 0.454E+00 -.104E+03   0.336E+01 -.516E+00 0.985E+02   0.460E+00 -.978E-01 0.491E+01   0.219E-03 0.514E-03 0.435E-04
   -.581E+01 -.303E+01 -.104E+03   0.568E+01 0.290E+01 0.984E+02   0.116E+01 0.414E+00 0.473E+01   0.620E-03 -.342E-03 -.363E-03
   -.249E+01 -.150E+01 -.105E+03   0.243E+01 0.148E+01 0.997E+02   0.469E+00 0.131E+00 0.502E+01   -.311E-04 0.314E-03 -.489E-03
   0.647E+00 0.376E+01 -.107E+03   -.714E+00 -.385E+01 0.101E+03   0.300E+00 -.306E+00 0.508E+01   0.186E-03 0.539E-04 0.788E-04
   0.273E+00 -.741E+00 -.107E+03   -.384E+00 0.729E+00 0.101E+03   0.571E+00 -.852E-01 0.514E+01   -.219E-03 -.684E-03 -.549E-04
   -.150E+01 0.195E+00 -.105E+03   0.142E+01 -.275E+00 0.996E+02   0.620E+00 0.194E+00 0.515E+01   -.286E-04 0.570E-03 -.419E-03
   0.491E+00 0.823E+00 -.105E+03   -.583E+00 -.942E+00 0.995E+02   0.437E+00 0.172E+00 0.483E+01   -.423E-03 -.284E-03 -.152E-03
   -.185E+01 -.128E+01 -.106E+03   0.173E+01 0.121E+01 0.100E+03   0.810E+00 0.141E+00 0.505E+01   -.390E-03 -.256E-03 -.312E-03
   -.428E+00 0.124E+01 -.105E+03   0.352E+00 -.134E+01 0.994E+02   0.457E+00 -.865E-01 0.504E+01   0.856E-04 0.114E-03 -.513E-03
   0.151E+01 0.391E+01 0.829E+03   -.165E+01 -.394E+01 -.834E+03   0.436E+00 -.382E+00 0.493E+01   0.201E-03 -.481E-04 -.133E-02
   0.131E+01 0.264E+01 0.830E+03   -.150E+01 -.266E+01 -.835E+03   0.361E+00 -.822E-01 0.463E+01   -.740E-03 -.436E-03 -.783E-03
   0.468E+00 -.366E+01 0.831E+03   -.595E+00 0.361E+01 -.837E+03   0.599E+00 0.408E+00 0.467E+01   0.109E-04 0.166E-03 -.108E-02
   -.321E+01 -.214E+01 0.832E+03   0.309E+01 0.206E+01 -.837E+03   0.704E+00 0.368E+00 0.493E+01   0.751E-03 0.131E-03 -.176E-03
   -.328E+01 -.822E+00 0.832E+03   0.321E+01 0.796E+00 -.838E+03   0.453E+00 0.105E+00 0.512E+01   0.579E-03 -.259E-03 -.884E-03
   -.351E+01 -.401E+01 0.829E+03   0.345E+01 0.405E+01 -.834E+03   0.471E+00 0.315E+00 0.474E+01   0.957E-04 0.980E-03 -.755E-03
   -.245E+01 0.664E+00 0.828E+03   0.238E+01 -.672E+00 -.834E+03   0.629E+00 -.488E-01 0.509E+01   -.920E-03 0.365E-03 -.296E-03
   -.117E+01 0.263E+01 0.828E+03   0.111E+01 -.265E+01 -.833E+03   0.601E+00 -.184E+00 0.482E+01   0.129E-03 -.803E-03 -.278E-03
   -.367E+00 -.222E+01 0.827E+03   0.251E+00 0.234E+01 -.833E+03   0.445E+00 -.917E-01 0.512E+01   -.830E-04 -.121E-03 -.138E-02
   -.797E+00 0.877E+00 -.468E+03   0.835E+00 -.867E+00 0.468E+03   0.183E+00 -.158E+00 0.125E+00   0.627E-04 0.276E-03 0.291E-03
   0.370E+01 0.254E+00 -.468E+03   -.403E+01 -.412E+00 0.468E+03   -.635E+00 -.194E+00 0.329E+00   -.136E-03 -.340E-03 0.320E-03
   -.231E+00 0.171E+01 -.469E+03   0.190E+00 -.177E+01 0.469E+03   0.341E-01 0.129E-01 -.126E+00   -.884E-04 -.293E-04 0.323E-03
   -.197E+01 -.758E-01 -.469E+03   0.209E+01 0.141E+00 0.469E+03   0.239E+00 0.150E+00 -.575E+00   0.208E-03 0.489E-03 0.121E-04
   -.103E+01 -.420E+01 -.463E+03   0.934E+00 0.428E+01 0.463E+03   0.393E-01 0.210E+00 0.287E+00   0.310E-03 -.102E-03 0.201E-03
   -.217E+01 0.240E+01 -.466E+03   0.214E+01 -.255E+01 0.466E+03   0.148E-01 -.279E+00 0.437E-01   0.254E-03 0.685E-04 0.276E-03
   0.149E+01 0.206E+01 -.469E+03   -.155E+01 -.208E+01 0.469E+03   -.773E-01 -.224E-01 -.220E+00   -.230E-03 0.237E-03 0.227E-04
   0.216E+01 -.194E+01 -.467E+03   -.228E+01 0.206E+01 0.468E+03   -.306E+00 0.231E+00 0.645E-01   -.240E-03 -.322E-03 0.103E-03
   0.304E+01 0.304E+01 -.468E+03   -.311E+01 -.313E+01 0.468E+03   -.226E+00 -.386E-02 -.153E+00   -.174E-03 -.217E-03 0.227E-03
   0.112E+01 -.200E+01 0.468E+03   -.118E+01 0.215E+01 -.468E+03   -.436E-01 0.268E+00 -.259E+00   -.610E-03 0.370E-03 -.280E-03
   0.263E+00 0.338E+01 0.469E+03   -.288E+00 -.340E+01 -.469E+03   -.302E+00 -.116E+00 0.141E+00   -.698E-03 -.396E-03 -.232E-03
   0.320E+01 0.291E-01 0.466E+03   -.323E+01 -.854E-01 -.466E+03   -.498E+00 0.135E+00 -.425E-01   0.438E-04 -.643E-03 -.204E-03
   0.269E+01 -.177E+00 0.469E+03   -.277E+01 0.142E+00 -.469E+03   -.387E+00 -.292E-01 -.118E-01   0.682E-03 0.255E-03 -.129E-03
   0.421E-01 0.831E+00 0.469E+03   -.132E-01 -.759E+00 -.469E+03   -.741E-01 0.184E+00 0.501E+00   0.986E-05 -.896E-04 0.182E-03
   -.194E+00 0.675E+00 0.463E+03   0.829E-01 -.747E+00 -.463E+03   0.125E+00 0.806E-01 0.255E+00   -.915E-04 0.215E-03 -.102E-04
   -.158E+01 -.151E+00 0.468E+03   0.153E+01 0.662E-01 -.468E+03   -.763E-03 0.131E+00 -.264E+00   -.852E-04 0.636E-03 -.267E-03
   -.545E+00 0.112E+01 0.469E+03   0.526E+00 -.123E+01 -.469E+03   0.151E+00 0.458E-01 -.274E+00   0.731E-03 -.470E-03 -.171E-03
   -.232E+01 -.529E-01 0.465E+03   0.240E+01 0.180E-02 -.465E+03   0.394E+00 -.153E+00 -.335E+00   0.107E-04 0.190E-03 -.558E-04
 -----------------------------------------------------------------------------------------------
   -.157E+01 -.594E+00 0.282E+00   0.249E-13 -.172E-13 -.136E-11   0.157E+01 0.596E+00 -.281E+00   -.262E-04 0.135E-03 0.106E-02
 
 
 POSITION                                       TOTAL-FORCE (eV/Angst)
 -----------------------------------------------------------------------------------
      2.45143      1.04618     19.91620        -0.647329      0.089962      0.730714
      0.67272      4.08230     19.91285        -0.059439      0.192056      0.473157
     -1.07013      7.16762     19.90086        -0.370049     -0.325579      0.930120
      5.93688      1.06609     19.91675        -0.238351     -0.215078      0.749877
      4.18940      4.07515     19.92675        -0.361889      0.024092      0.297749
      2.42813      7.15632     19.90094        -0.314069     -0.193047      0.747168
      9.43796      1.04158     19.92770        -0.269134      0.176297      0.521692
      7.67854      4.10676     19.92440        -0.067554     -0.118849      0.421636
      5.91019      7.14764     19.90223        -0.178834      0.087251      0.797104
      1.59846      2.05826     12.78050        -0.313818      0.153089      0.445423
     -0.15682      5.08823     12.79909        -0.201682      0.133803      0.307254
     -1.92572      8.18422     12.78525        -0.120320     -0.048131      0.702934
      5.10967      2.08171     12.78386        -0.502653     -0.073609      0.735237
      3.36822      5.11653     12.77781        -0.743097      0.031238      0.706619
      1.57874      8.15550     12.78137        -0.577502      0.037294      0.820747
      8.56646      2.04818     12.78452        -0.129756      0.117243      0.539594
      6.85335      5.10712     12.79335        -0.326856      0.033393      0.472132
      5.11713      8.15735     12.76071        -0.597168     -0.020512      0.881990
      2.33702      1.03779     16.36472         0.462696     -0.185545     -0.665085
      0.53512      4.07595     16.36110         1.013724      0.240780     -0.831375
     -1.18526      7.13857     16.36728         0.417413      0.076141     -0.562702
      5.84914      1.05496     16.37490         0.246088     -0.409796     -0.523323
      4.08712      4.09208     16.35924         0.472744     -0.122363     -0.464102
      2.32408      7.12766     16.35699         0.545943      0.082934     -0.437890
      9.33873      1.03201     16.37696         0.357092      0.026802     -0.759376
      7.56444      4.08610     16.35914         0.689264      0.041771     -0.520061
      5.82786      7.16109     16.36521         0.392271     -0.193987     -0.572598
      1.50164      2.07516      9.23518         0.282738     -0.390733     -0.606226
     -0.23530      5.11101      9.24316         0.174590     -0.096747     -0.872629
     -2.01418      8.12451      9.23847         0.462133      0.348254     -0.785428
      4.98528      2.02964      9.21649         0.565454      0.272375     -0.505124
      3.25301      5.11320      9.19978         0.371819      0.082251     -0.328072
      1.47021      8.11433      9.24831         0.400373      0.332137     -0.723447
      8.46915      2.05116      9.23403         0.535146     -0.053372     -0.463046
      6.73048      5.11864      9.25339         0.521617     -0.192081     -0.746052
      4.99156      8.14462      9.24214         0.319173      0.026528     -0.443758
     11.12999      0.03461     18.13455         0.227681     -0.168811      0.251694
     -1.08470      3.08235     18.12567        -0.992071     -0.351387      0.627053
      7.62332      6.12574     18.14507         0.004084     -0.052623     -0.117097
     -1.14039      9.17003     18.17160         0.364678      0.215293     -0.861885
      2.38186      3.05571     18.11530        -0.028098      0.310492      0.395265
      0.62470      6.13722     18.12918         0.004122     -0.430491      0.123922
      2.38122      9.17685     18.15408        -0.141366     -0.050098     -0.261093
      5.91139      3.05694     18.13823        -0.437295      0.355238      0.159625
      4.14534      6.11662     18.14611        -0.314463     -0.098634     -0.175019
     10.30028      1.02080     11.02329        -0.096113      0.414430     -0.430544
     -1.93647      4.08757     11.00595        -0.343781     -0.162353      0.100610
     -3.67374      7.12798     11.01747        -0.576612      0.080899     -0.038001
      3.32662      1.03858     11.00713        -0.504785     -0.074387     -0.029089
      1.56106      4.08408     10.97675        -0.060870      0.245001      0.725036
     -0.22740      7.12239     11.00843         0.042853      0.013780      0.465979
      6.78328      1.02189     11.02232        -0.020003      0.062532     -0.451999
      5.03774      4.08831     11.01871         0.160393     -0.062590     -0.480186
      3.26551      7.13880     11.02744         0.501699     -0.209613     -0.473785
 -----------------------------------------------------------------------------------
    total drift:                                0.000834      0.002943      0.001343


--------------------------------------------------------------------------------------------------------



  FREE ENERGIE OF THE ION-ELECTRON SYSTEM (eV)
  ---------------------------------------------------
  free  energy   TOTEN  =      -342.23230250 eV

  energy  without entropy=     -342.23230250  energy(sigma->0) =     -342.23230250
 
 d Force = 0.3348572E-01[ 0.303E-01, 0.367E-01]  d Energy = 0.3339381E-01 0.919E-04
 d Force = 0.2433672E+02[ 0.243E+02, 0.244E+02]  d Ewald  = 0.2433672E+02 0.153E-06


--------------------------------------------------------------------------------------------------------


    POTLOK:  cpu time    0.2637: real time    0.2639


--------------------------------------------------------------------------------------------------------


           RANDOM_SEED =         156288213              324                0
   IONSTEP:  cpu time    0.0001: real time    0.0001

  ENERGY OF THE ELECTRON-ION-THERMOSTAT SYSTEM (eV)
  ---------------------------------------------------
% ion-electron   TOTEN  =      -342.232302  see above
  kinetic energy EKIN   =         0.839630
  kin. lattice  EKIN_LAT=         0.000000  (temperature  122.56 K)
  nose potential ES     =         0.055982
  nose kinetic   EPS    =         0.009824
  ---------------------------------------------------
  total energy   ETOTAL =      -341.326866 eV

  maximum distance moved by ions :      0.52E-03


 mean value of Nose-termostat <S>:     1.057 mean value of <T> :   122.559
 mean temperature <T/S>/<1/S>  :   122.559

    WAVPRE:  cpu time    0.0935: real time    0.0966
    FEWALD:  cpu time    0.0022: real time    0.0022
    ORTHCH:  cpu time    7.6659: real time    7.6794
    POTLOK:  cpu time    0.2637: real time    0.2639
    EDDIAG:  cpu time    2.3517: real time    2.3542
     LOOP+:  cpu time  478.4599: real time  479.4742
    4ORBIT:  cpu time    0.0000: real time    0.0000

 total amount of memory used by VASP MPI-rank0   346553. kBytes
=======================================================================

   base      :      30000. kBytes
   nonl-proj :     189112. kBytes
   fftplans  :      16219. kBytes
   grid      :      77231. kBytes
   one-center:        839. kBytes
   wavefun   :      33152. kBytes
 
  
  
 General timing and accounting informations for this job:
 ========================================================
  
                  Total CPU time used (sec):     5516.639
                            User time (sec):     5503.565
                          System time (sec):       13.074
                         Elapsed time (sec):     5528.050
  
                   Maximum memory used (kb):      770164.
                   Average memory used (kb):           0.
  
                          Minor page faults:       353300
                          Major page faults:            0
                 Voluntary context switches:          680
