0.000000000000000000e+00 2.032270000000000021e+00 9.325820000000000221e+00 -1.760000000000000009e+00 5.080680000000000085e+00 9.325820000000000221e+00 -3.520000000000000018e+00 8.129089999999999705e+00 9.325820000000000221e+00 3.520000000000000018e+00 2.032270000000000021e+00 9.325820000000000221e+00 1.760000000000000009e+00 5.080680000000000085e+00 9.325820000000000221e+00 0.000000000000000000e+00 8.129089999999999705e+00 9.325820000000000221e+00 7.040000000000000036e+00 2.032270000000000021e+00 9.325820000000000221e+00 5.280000000000000249e+00 5.080680000000000085e+00 9.325820000000000221e+00 3.520000000000000018e+00 8.129089999999999705e+00 9.325820000000000221e+00 0.000000000000000000e+00 1.727430000000000021e+00 1.705356000000000094e+01 -1.760000000000000009e+00 4.775839999999999641e+00 1.705356000000000094e+01 -3.520000000000000018e+00 7.824250000000000149e+00 1.705356000000000094e+01 3.520000000000000018e+00 1.727430000000000021e+00 1.705356000000000094e+01 1.760000000000000009e+00 4.775839999999999641e+00 1.705356000000000094e+01 0.000000000000000000e+00 7.824250000000000149e+00 1.705356000000000094e+01 7.040000000000000036e+00 1.727430000000000021e+00 1.705356000000000094e+01 5.280000000000000249e+00 4.775839999999999641e+00 1.705356000000000094e+01 3.520000000000000018e+00 7.824250000000000149e+00 1.705356000000000094e+01 0.000000000000000000e+00 2.032270000000000021e+00 1.294646000000000008e+01 -1.760000000000000009e+00 5.080680000000000085e+00 1.294646000000000008e+01 -3.520000000000000018e+00 8.129089999999999705e+00 1.294646000000000008e+01 3.520000000000000018e+00 2.032270000000000021e+00 1.294646000000000008e+01 1.760000000000000009e+00 5.080680000000000085e+00 1.294646000000000008e+01 0.000000000000000000e+00 8.129089999999999705e+00 1.294646000000000008e+01 7.040000000000000036e+00 2.032270000000000021e+00 1.294646000000000008e+01 5.280000000000000249e+00 5.080680000000000085e+00 1.294646000000000008e+01 3.520000000000000018e+00 8.129089999999999705e+00 1.294646000000000008e+01 0.000000000000000000e+00 1.727430000000000021e+00 2.067419999999999902e+01 -1.760000000000000009e+00 4.775839999999999641e+00 2.067419999999999902e+01 -3.520000000000000018e+00 7.824250000000000149e+00 2.067419999999999902e+01 3.520000000000000018e+00 1.727430000000000021e+00 2.067419999999999902e+01 1.760000000000000009e+00 4.775839999999999641e+00 2.067419999999999902e+01 0.000000000000000000e+00 7.824250000000000149e+00 2.067419999999999902e+01 7.040000000000000036e+00 1.727430000000000021e+00 2.067419999999999902e+01 5.280000000000000249e+00 4.775839999999999641e+00 2.067419999999999902e+01 3.520000000000000018e+00 7.824250000000000149e+00 2.067419999999999902e+01 0.000000000000000000e+00 0.000000000000000000e+00 1.113630999999999993e+01 -1.760000000000000009e+00 3.048410000000000064e+00 1.113630999999999993e+01 -3.520000000000000018e+00 6.096820000000000128e+00 1.113630999999999993e+01 3.520000000000000018e+00 0.000000000000000000e+00 1.113630999999999993e+01 1.760000000000000009e+00 3.048410000000000064e+00 1.113630999999999993e+01 0.000000000000000000e+00 6.096820000000000128e+00 1.113630999999999993e+01 7.040000000000000036e+00 0.000000000000000000e+00 1.113630999999999993e+01 5.280000000000000249e+00 3.048410000000000064e+00 1.113630999999999993e+01 3.520000000000000018e+00 6.096820000000000128e+00 1.113630999999999993e+01 1.760000000000000009e+00 2.743570000000000064e+00 1.886370000000000147e+01 0.000000000000000000e+00 5.791979999999999684e+00 1.886370000000000147e+01 -1.760000000000000009e+00 8.840389999999999304e+00 1.886370000000000147e+01 5.280000000000000249e+00 2.743570000000000064e+00 1.886370000000000147e+01 3.520000000000000018e+00 5.791979999999999684e+00 1.886370000000000147e+01 1.760000000000000009e+00 8.840389999999999304e+00 1.886370000000000147e+01 8.800000000000000711e+00 2.743570000000000064e+00 1.886370000000000147e+01 7.040000000000000036e+00 5.791979999999999684e+00 1.886370000000000147e+01 5.280000000000000249e+00 8.840389999999999304e+00 1.886370000000000147e+01
1.770000000000000089e-03 2.032719999999999860e+00 9.324099999999999611e+00 -1.758529999999999927e+00 5.078420000000000378e+00 9.326639999999999375e+00 -3.520739999999999981e+00 8.128550000000000608e+00 9.324980000000000047e+00 3.518349999999999866e+00 2.033209999999999962e+00 9.326710000000000278e+00 1.759779999999999900e+00 5.080599999999999561e+00 9.326739999999999142e+00 1.039999999999999909e-03 8.126070000000000348e+00 9.326719999999999899e+00 7.040119999999999933e+00 2.031179999999999986e+00 9.327139999999999986e+00 5.281119999999999592e+00 5.078350000000000364e+00 9.326919999999999433e+00 3.521570000000000089e+00 8.127230000000000842e+00 9.323560000000000514e+00 2.269999999999999882e-03 1.726210000000000022e+00 1.705172999999999917e+01 -1.758979999999999988e+00 4.773869999999999614e+00 1.705602000000000018e+01 -3.518790000000000084e+00 7.824029999999999596e+00 1.705441000000000074e+01 3.517370000000000108e+00 1.727950000000000097e+00 1.705496000000000123e+01 1.758899999999999908e+00 4.779029999999999667e+00 1.705050999999999917e+01 1.350000000000000071e-03 7.823990000000000222e+00 1.705253000000000085e+01 7.039539999999999687e+00 1.728569999999999940e+00 1.705320999999999998e+01 5.278830000000000133e+00 4.773010000000000197e+00 1.705504000000000175e+01 3.516669999999999963e+00 7.826150000000000162e+00 1.705631999999999948e+01 1.030000000000000100e-03 2.031930000000000014e+00 1.294524000000000008e+01 -1.759830000000000005e+00 5.081229999999999691e+00 1.294675999999999938e+01 -3.520189999999999930e+00 8.128140000000000143e+00 1.294853999999999949e+01 3.518949999999999800e+00 2.034419999999999895e+00 1.294734000000000052e+01 1.759649999999999936e+00 5.079790000000000028e+00 1.294807999999999915e+01 -1.119999999999999902e-03 8.127959999999999852e+00 1.294908000000000037e+01 7.039150000000000240e+00 2.033920000000000172e+00 1.294600999999999935e+01 5.279020000000000046e+00 5.082069999999999865e+00 1.294852999999999987e+01 3.518639999999999990e+00 8.131420000000000314e+00 1.294706000000000046e+01 -1.600000000000000131e-04 1.727680000000000105e+00 2.067419999999999902e+01 -1.760380000000000056e+00 4.774029999999999774e+00 2.067150000000000176e+01 -3.516389999999999905e+00 7.824900000000000411e+00 2.067370000000000019e+01 3.518100000000000005e+00 1.729160000000000030e+00 2.067556000000000083e+01 1.757489999999999997e+00 4.774409999999999599e+00 2.067379000000000033e+01 -1.619999999999999912e-03 7.823470000000000368e+00 2.067554000000000158e+01 7.036749999999999616e+00 1.731689999999999952e+00 2.067400999999999911e+01 5.280289999999999928e+00 4.777409999999999712e+00 2.067207000000000150e+01 3.517889999999999961e+00 7.822619999999999685e+00 2.067451000000000150e+01 -5.276449999999999640e+00 9.143760000000000332e+00 1.113541999999999987e+01 -1.759910000000000085e+00 3.049160000000000093e+00 1.113518999999999970e+01 -3.519039999999999946e+00 6.099269999999999747e+00 1.113366000000000078e+01 -1.762899999999999912e+00 9.144119999999999138e+00 1.113678999999999952e+01 1.760019999999999918e+00 3.051169999999999938e+00 1.113589999999999947e+01 2.150000000000000001e-03 6.097260000000000346e+00 1.113588999999999984e+01 7.039600000000000080e+00 2.520000000000000104e-03 1.113748999999999967e+01 5.280190000000000161e+00 3.045059999999999878e+00 1.113344999999999985e+01 3.520410000000000039e+00 6.098749999999999893e+00 1.113851000000000013e+01 1.759689999999999976e+00 2.745060000000000056e+00 1.886266000000000176e+01 4.800000000000000122e-04 5.788499999999999979e+00 1.886301999999999879e+01 -1.759619999999999962e+00 8.839639999999999276e+00 1.886329999999999885e+01 5.281789999999999985e+00 2.743850000000000122e+00 1.886389000000000138e+01 3.523740000000000094e+00 5.789959999999999773e+00 1.886198999999999870e+01 1.760999999999999899e+00 8.840899999999999537e+00 1.885963999999999885e+01 8.800499999999999545e+00 2.746249999999999858e+00 1.886503000000000085e+01 7.039959999999999773e+00 5.793309999999999960e+00 1.886336000000000013e+01 5.283150000000000013e+00 8.838100000000000733e+00 1.886235999999999891e+01
3.540000000000000178e-03 2.033160000000000078e+00 9.322380000000000777e+00 -1.757069999999999910e+00 5.076170000000000293e+00 9.327450000000000685e+00 -3.521479999999999944e+00 8.128000000000000114e+00 9.324130000000000251e+00 3.516700000000000159e+00 2.034130000000000216e+00 9.327590000000000714e+00 1.759570000000000078e+00 5.080530000000000435e+00 9.327650000000000219e+00 2.079999999999999818e-03 8.123060000000000613e+00 9.327629999999999200e+00 7.040250000000000341e+00 2.030089999999999950e+00 9.328440000000000509e+00 5.282239999999999824e+00 5.076019999999999754e+00 9.328010000000000801e+00 3.523130000000000095e+00 8.125370000000000203e+00 9.321310000000000429e+00 4.530000000000000172e-03 1.724990000000000023e+00 1.704990000000000094e+01 -1.757970000000000033e+00 4.771910000000000096e+00 1.705846000000000018e+01 -3.517570000000000086e+00 7.823809999999999931e+00 1.705524000000000129e+01 3.514749999999999819e+00 1.728450000000000042e+00 1.705636000000000152e+01 1.757810000000000095e+00 4.782199999999999562e+00 1.704746000000000095e+01 2.690000000000000117e-03 7.823719999999999786e+00 1.705150000000000077e+01 7.039080000000000226e+00 1.729700000000000015e+00 1.705284999999999940e+01 5.277669999999999639e+00 4.770179999999999865e+00 1.705649999999999977e+01 3.513349999999999973e+00 7.828039999999999665e+00 1.705905999999999878e+01 2.060000000000000199e-03 2.031600000000000072e+00 1.294402999999999970e+01 -1.759670000000000067e+00 5.081789999999999807e+00 1.294707000000000008e+01 -3.520370000000000221e+00 8.127200000000000202e+00 1.295062000000000069e+01 3.517889999999999961e+00 2.036570000000000213e+00 1.294823000000000057e+01 1.759300000000000086e+00 5.078909999999999592e+00 1.294969000000000037e+01 -2.239999999999999804e-03 8.126829999999999998e+00 1.295168999999999926e+01 7.038289999999999935e+00 2.035569999999999879e+00 1.294556000000000040e+01 5.278039999999999843e+00 5.083459999999999646e+00 1.295059000000000005e+01 3.517290000000000028e+00 8.133749999999999147e+00 1.294766000000000084e+01 -3.299999999999999982e-04 1.727929999999999966e+00 2.067419999999999902e+01 -1.760769999999999946e+00 4.772230000000000416e+00 2.066882000000000019e+01 -3.512779999999999792e+00 7.825549999999999784e+00 2.067321000000000097e+01 3.516189999999999927e+00 1.730879999999999974e+00 2.067691999999999908e+01 1.754979999999999984e+00 4.772979999999999556e+00 2.067338000000000164e+01 -3.229999999999999798e-03 7.822680000000000078e+00 2.067688000000000059e+01 7.033520000000000216e+00 1.735940000000000039e+00 2.067381999999999920e+01 5.280590000000000117e+00 4.778979999999999784e+00 2.066995999999999967e+01 3.515789999999999971e+00 7.820990000000000109e+00 2.067481000000000080e+01 -5.272920000000000051e+00 9.142300000000000537e+00 1.113453999999999944e+01 -1.759810000000000096e+00 3.049889999999999990e+00 1.113408000000000087e+01 -3.518079999999999874e+00 6.101720000000000255e+00 1.113103000000000087e+01 -1.765779999999999905e+00 9.143019999999999925e+00 1.113725999999999949e+01 1.760040000000000049e+00 3.053920000000000190e+00 1.113549000000000078e+01 4.300000000000000003e-03 6.097699999999999676e+00 1.113547999999999938e+01 7.039209999999999745e+00 5.020000000000000157e-03 1.113866999999999940e+01 5.280380000000000074e+00 3.041729999999999823e+00 1.113061000000000078e+01 3.520809999999999995e+00 6.100679999999999659e+00 1.114068999999999932e+01 1.759370000000000100e+00 2.746550000000000047e+00 1.886163000000000167e+01 9.499999999999999981e-04 5.785050000000000026e+00 1.886233999999999966e+01 -1.759230000000000071e+00 8.838900000000000645e+00 1.886290999999999940e+01 5.283549999999999969e+00 2.744130000000000180e+00 1.886409000000000091e+01 3.527449999999999974e+00 5.787939999999999863e+00 1.886029999999999873e+01 1.761989999999999945e+00 8.841419999999999391e+00 1.885563000000000144e+01 8.801000000000000156e+00 2.748899999999999899e+00 1.886635000000000062e+01 7.039930000000000021e+00 5.794620000000000104e+00 1.886300999999999917e+01 5.286279999999999646e+00 8.835820000000000007e+00 1.886104999999999876e+01
5.309999999999999616e-03 2.033589999999999787e+00 9.320679999999999410e+00 -1.755600000000000049e+00 5.073929999999999829e+00 9.328250000000000597e+00 -3.522209999999999841e+00 8.127459999999999241e+00 9.323270000000000834e+00 3.515050000000000008e+00 2.035039999999999960e+00 9.328459999999999752e+00 1.759370000000000100e+00 5.080470000000000041e+00 9.328559999999999519e+00 3.119999999999999944e-03 8.120070000000000121e+00 9.328530000000000655e+00 7.040379999999999860e+00 2.028999999999999915e+00 9.329720000000000013e+00 5.283339999999999925e+00 5.073699999999999655e+00 9.329100000000000392e+00 3.524680000000000035e+00 8.123530000000000584e+00 9.319079999999999586e+00 6.769999999999999976e-03 1.723759999999999959e+00 1.704808999999999841e+01 -1.756960000000000077e+00 4.769949999999999690e+00 1.706089000000000055e+01 -3.516360000000000152e+00 7.823579999999999757e+00 1.705604999999999905e+01 3.512150000000000105e+00 1.728960000000000052e+00 1.705774999999999864e+01 1.756729999999999903e+00 4.785359999999999836e+00 1.704441999999999879e+01 4.029999999999999728e-03 7.823430000000000106e+00 1.705048000000000030e+01 7.038640000000000008e+00 1.730839999999999934e+00 1.705248999999999882e+01 5.276530000000000165e+00 4.767360000000000042e+00 1.705793999999999855e+01 3.510060000000000180e+00 7.829909999999999926e+00 1.706177999999999884e+01 3.079999999999999839e-03 2.031270000000000131e+00 1.294280999999999970e+01 -1.759500000000000064e+00 5.082349999999999923e+00 1.294735000000000014e+01 -3.520560000000000134e+00 8.126260000000000261e+00 1.295270000000000010e+01 3.516840000000000188e+00 2.038710000000000022e+00 1.294909999999999961e+01 1.758960000000000079e+00 5.078039999999999665e+00 1.295130999999999943e+01 -3.360000000000000139e-03 8.125719999999999388e+00 1.295429000000000030e+01 7.037449999999999761e+00 2.037220000000000031e+00 1.294511999999999929e+01 5.277079999999999771e+00 5.084839999999999804e+00 1.295261999999999958e+01 3.515960000000000196e+00 8.136089999999999378e+00 1.294824999999999982e+01 -4.899999999999999842e-04 1.728159999999999918e+00 2.067418999999999940e+01 -1.761149999999999993e+00 4.770439999999999792e+00 2.066617000000000104e+01 -3.509189999999999809e+00 7.826200000000000045e+00 2.067274000000000100e+01 3.514299999999999979e+00 1.732599999999999918e+00 2.067826000000000164e+01 1.752510000000000012e+00 4.771569999999999645e+00 2.067296999999999940e+01 -4.819999999999999632e-03 7.821900000000000297e+00 2.067819000000000074e+01 7.030300000000000438e+00 1.740159999999999929e+00 2.067363999999999891e+01 5.280890000000000306e+00 4.780549999999999855e+00 2.066787000000000063e+01 3.513700000000000045e+00 7.819370000000000154e+00 2.067510000000000048e+01 -5.269429999999999836e+00 9.140850000000000364e+00 1.113366000000000078e+01 -1.759719999999999951e+00 3.050609999999999822e+00 1.113298999999999950e+01 -3.517129999999999868e+00 6.104140000000000121e+00 1.112845000000000084e+01 -1.768639999999999990e+00 9.141930000000000334e+00 1.113774000000000086e+01 1.760059999999999958e+00 3.056659999999999933e+00 1.113508999999999993e+01 6.420000000000000359e-03 6.098119999999999763e+00 1.113509999999999955e+01 7.038820000000000299e+00 7.490000000000000130e-03 1.113982999999999990e+01 5.280560000000000365e+00 3.038440000000000030e+00 1.112782999999999944e+01 3.521199999999999886e+00 6.102579999999999671e+00 1.114286000000000065e+01 1.759039999999999937e+00 2.748040000000000038e+00 1.886058999999999841e+01 1.430000000000000064e-03 5.781649999999999956e+00 1.886167999999999978e+01 -1.758829999999999893e+00 8.838169999999999860e+00 1.886252999999999957e+01 5.285269999999999690e+00 2.744409999999999794e+00 1.886429000000000045e+01 3.531080000000000219e+00 5.785940000000000083e+00 1.885863000000000156e+01 1.762939999999999952e+00 8.841960000000000264e+00 1.885171000000000063e+01 8.801489999999999370e+00 2.751489999999999991e+00 1.886762999999999835e+01 7.039900000000000269e+00 5.795930000000000248e+00 1.886266000000000176e+01 5.289380000000000415e+00 8.833569999999999922e+00 1.885976000000000141e+01
7.069999999999999896e-03 2.034019999999999939e+00 9.318979999999999819e+00 -1.754140000000000033e+00 5.071710000000000385e+00 9.329029999999999490e+00 -3.522920000000000051e+00 8.126920000000000144e+00 9.322380000000000777e+00 3.513399999999999856e+00 2.035930000000000017e+00 9.329319999999999169e+00 1.759190000000000031e+00 5.080429999999999779e+00 9.329449999999999577e+00 4.139999999999999583e-03 8.117110000000000269e+00 9.329430000000000334e+00 7.040510000000000268e+00 2.027899999999999814e+00 9.330970000000000653e+00 5.284440000000000026e+00 5.071399999999999686e+00 9.330189999999999984e+00 3.526229999999999976e+00 8.121710000000000207e+00 9.316879999999999384e+00 8.999999999999999320e-03 1.722539999999999960e+00 1.704629999999999868e+01 -1.755970000000000031e+00 4.767999999999999794e+00 1.706326999999999927e+01 -3.515140000000000153e+00 7.823339999999999961e+00 1.705683000000000149e+01 3.509570000000000078e+00 1.729449999999999932e+00 1.705912999999999968e+01 1.755670000000000064e+00 4.788490000000000357e+00 1.704138999999999982e+01 5.349999999999999721e-03 7.823129999999999917e+00 1.704945999999999984e+01 7.038210000000000299e+00 1.731980000000000075e+00 1.705211999999999861e+01 5.275420000000000442e+00 4.764549999999999841e+00 1.705934999999999846e+01 3.506819999999999826e+00 7.831750000000000433e+00 1.706446000000000041e+01 4.109999999999999938e-03 2.030949999999999811e+00 1.294158999999999970e+01 -1.759339999999999904e+00 5.082919999999999661e+00 1.294762000000000057e+01 -3.520739999999999981e+00 8.125329999999999941e+00 1.295476999999999990e+01 3.515800000000000036e+00 2.040849999999999831e+00 1.294994999999999941e+01 1.758620000000000072e+00 5.077189999999999870e+00 1.295292000000000066e+01 -4.470000000000000015e-03 8.124620000000000175e+00 1.295684999999999931e+01 7.036609999999999587e+00 2.038879999999999804e+00 1.294468999999999959e+01 5.276139999999999830e+00 5.086199999999999832e+00 1.295461000000000062e+01 3.514629999999999921e+00 8.138439999999999230e+00 1.294884000000000057e+01 -6.400000000000000524e-04 1.728380000000000027e+00 2.067417000000000016e+01 -1.761540000000000106e+00 4.768679999999999808e+00 2.066355000000000075e+01 -3.505609999999999893e+00 7.826839999999999797e+00 2.067227000000000103e+01 3.512420000000000098e+00 1.734310000000000018e+00 2.067958000000000141e+01 1.750059999999999949e+00 4.770159999999999734e+00 2.067256000000000071e+01 -6.380000000000000254e-03 7.821110000000000007e+00 2.067945999999999884e+01 7.027120000000000033e+00 1.744340000000000002e+00 2.067344999999999899e+01 5.281200000000000117e+00 4.782099999999999795e+00 2.066581000000000046e+01 3.511629999999999807e+00 7.817770000000000330e+00 2.067536000000000129e+01 -5.265979999999999883e+00 9.139409999999999812e+00 1.113278999999999996e+01 -1.759619999999999962e+00 3.051309999999999967e+00 1.113193000000000055e+01 -3.516189999999999927e+00 6.106530000000000236e+00 1.112594999999999956e+01 -1.771479999999999944e+00 9.140850000000000364e+00 1.113823999999999970e+01 1.760070000000000023e+00 3.059369999999999923e+00 1.113471000000000011e+01 8.529999999999999388e-03 6.098519999999999719e+00 1.113475999999999999e+01 7.038439999999999586e+00 9.910000000000000406e-03 1.114098000000000077e+01 5.280730000000000146e+00 3.035219999999999807e+00 1.112514999999999965e+01 3.521570000000000089e+00 6.104460000000000441e+00 1.114499999999999957e+01 1.758699999999999930e+00 2.749530000000000030e+00 1.885957000000000150e+01 1.899999999999999996e-03 5.778310000000000279e+00 1.886101999999999990e+01 -1.758429999999999938e+00 8.837450000000000472e+00 1.886215999999999937e+01 5.286929999999999907e+00 2.744670000000000165e+00 1.886448000000000036e+01 3.534609999999999808e+00 5.783960000000000434e+00 1.885698999999999970e+01 1.763830000000000009e+00 8.842520000000000380e+00 1.884791999999999845e+01 8.801980000000000359e+00 2.753979999999999873e+00 1.886887000000000114e+01 7.039889999999999759e+00 5.797209999999999752e+00 1.886230000000000118e+01 5.292430000000000412e+00 8.831350000000000477e+00 1.885852999999999824e+01
8.819999999999999715e-03 2.034440000000000026e+00 9.317310000000000869e+00 -1.752680000000000016e+00 5.069530000000000314e+00 9.329800000000000537e+00 -3.523610000000000131e+00 8.126390000000000668e+00 9.321450000000000458e+00 3.511750000000000149e+00 2.036799999999999944e+00 9.330159999999999343e+00 1.759039999999999937e+00 5.080400000000000027e+00 9.330320000000000391e+00 5.150000000000000064e-03 8.114190000000000680e+00 9.330339999999999634e+00 7.040659999999999918e+00 2.026800000000000157e+00 9.332179999999999254e+00 5.285510000000000375e+00 5.069119999999999848e+00 9.331269999999999953e+00 3.527759999999999785e+00 8.119910000000000849e+00 9.314719999999999445e+00 1.119999999999999989e-02 1.721319999999999961e+00 1.704453000000000173e+01 -1.754990000000000050e+00 4.766070000000000029e+00 1.706560999999999950e+01 -3.513910000000000089e+00 7.823089999999999655e+00 1.705756999999999834e+01 3.507019999999999804e+00 1.729940000000000033e+00 1.706049000000000149e+01 1.754639999999999977e+00 4.791579999999999728e+00 1.703838000000000008e+01 6.649999999999999661e-03 7.822820000000000107e+00 1.704844999999999899e+01 7.037799999999999834e+00 1.733119999999999994e+00 1.705174999999999841e+01 5.274329999999999963e+00 4.761750000000000149e+00 1.706071000000000026e+01 3.503639999999999866e+00 7.833560000000000301e+00 1.706709000000000032e+01 5.120000000000000419e-03 2.030629999999999935e+00 1.294035000000000046e+01 -1.759179999999999966e+00 5.083499999999999908e+00 1.294786999999999999e+01 -3.520929999999999893e+00 8.124399999999999622e+00 1.295683000000000007e+01 3.514759999999999884e+00 2.042959999999999887e+00 1.295077000000000034e+01 1.758289999999999909e+00 5.076380000000000337e+00 1.295452000000000048e+01 -5.590000000000000351e-03 8.123549999999999827e+00 1.295939000000000085e+01 7.035770000000000302e+00 2.040550000000000086e+00 1.294425999999999988e+01 5.275220000000000020e+00 5.087550000000000239e+00 1.295654000000000039e+01 3.513329999999999842e+00 8.140800000000000480e+00 1.294941999999999993e+01 -7.900000000000000121e-04 1.728590000000000071e+00 2.067413000000000167e+01 -1.761929999999999996e+00 4.766960000000000086e+00 2.066099000000000174e+01 -3.502060000000000173e+00 7.827469999999999928e+00 2.067182999999999993e+01 3.510549999999999837e+00 1.736019999999999897e+00 2.068086999999999875e+01 1.747659999999999991e+00 4.768769999999999953e+00 2.067213999999999885e+01 -7.919999999999999957e-03 7.820319999999999716e+00 2.068068999999999846e+01 7.023970000000000269e+00 1.748469999999999969e+00 2.067325999999999908e+01 5.281520000000000437e+00 4.783649999999999736e+00 2.066377999999999915e+01 3.509590000000000209e+00 7.816169999999999618e+00 2.067558000000000007e+01 -5.262599999999999945e+00 9.137999999999999901e+00 1.113193000000000055e+01 -1.759519999999999973e+00 3.051959999999999784e+00 1.113091999999999970e+01 -3.515249999999999986e+00 6.108869999999999578e+00 1.112354999999999983e+01 -1.774270000000000014e+00 9.139770000000000394e+00 1.113874999999999993e+01 1.760099999999999998e+00 3.062050000000000161e+00 1.113434999999999953e+01 1.060000000000000005e-02 6.098889999999999922e+00 1.113447999999999993e+01 7.038070000000000270e+00 1.226000000000000006e-02 1.114211000000000062e+01 5.280890000000000306e+00 3.032070000000000043e+00 1.112259000000000064e+01 3.521920000000000162e+00 6.106290000000000440e+00 1.114710999999999963e+01 1.758350000000000080e+00 2.751020000000000021e+00 1.885854000000000141e+01 2.380000000000000171e-03 5.775070000000000370e+00 1.886036999999999964e+01 -1.758000000000000007e+00 8.836769999999999570e+00 1.886179999999999879e+01 5.288499999999999979e+00 2.744920000000000027e+00 1.886467000000000027e+01 3.537980000000000125e+00 5.782009999999999650e+00 1.885539999999999949e+01 1.764659999999999895e+00 8.843120000000000758e+00 1.884431000000000012e+01 8.802459999999999951e+00 2.756339999999999790e+00 1.887004999999999910e+01 7.039900000000000269e+00 5.798470000000000013e+00 1.886193000000000097e+01 5.295420000000000016e+00 8.829179999999999140e+00 1.885736999999999952e+01
1.055999999999999994e-02 2.034860000000000113e+00 9.315659999999999386e+00 -1.751209999999999933e+00 5.067379999999999995e+00 9.330529999999999546e+00 -3.524270000000000014e+00 8.125870000000000815e+00 9.320479999999999876e+00 3.510099999999999998e+00 2.037630000000000052e+00 9.330980000000000274e+00 1.758920000000000039e+00 5.080409999999999648e+00 9.331170000000000186e+00 6.139999999999999625e-03 8.111319999999999197e+00 9.331260000000000332e+00 7.040829999999999700e+00 2.025700000000000056e+00 9.333330000000000126e+00 5.286570000000000213e+00 5.066860000000000142e+00 9.332359999999999545e+00 3.529279999999999973e+00 8.118130000000000734e+00 9.312620000000000786e+00 1.337999999999999953e-02 1.720110000000000028e+00 1.704279000000000011e+01 -1.754029999999999978e+00 4.764149999999999885e+00 1.706790000000000163e+01 -3.512680000000000025e+00 7.822820000000000107e+00 1.705826000000000064e+01 3.504500000000000171e+00 1.730420000000000069e+00 1.706184999999999974e+01 1.753640000000000088e+00 4.794640000000000235e+00 1.703537999999999997e+01 7.929999999999999549e-03 7.822479999999999656e+00 1.704744000000000170e+01 7.037420000000000009e+00 1.734280000000000044e+00 1.705135999999999896e+01 5.273290000000000255e+00 4.758969999999999700e+00 1.706201000000000079e+01 3.500529999999999919e+00 7.835329999999999906e+00 1.706965999999999894e+01 6.130000000000000032e-03 2.030320000000000125e+00 1.293910999999999945e+01 -1.759020000000000028e+00 5.084089999999999776e+00 1.294807999999999915e+01 -3.521110000000000184e+00 8.123469999999999303e+00 1.295889000000000024e+01 3.513729999999999798e+00 2.045059999999999878e+00 1.295157000000000025e+01 1.757970000000000033e+00 5.075590000000000046e+00 1.295612999999999992e+01 -6.700000000000000226e-03 8.122510000000000119e+00 1.296186999999999934e+01 7.034950000000000259e+00 2.042229999999999990e+00 1.294384999999999941e+01 5.274329999999999963e+00 5.088879999999999626e+00 1.295839999999999925e+01 3.512059999999999960e+00 8.143169999999999575e+00 1.294998999999999967e+01 -9.399999999999999719e-04 1.728769999999999918e+00 2.067407000000000039e+01 -1.762320000000000109e+00 4.765270000000000117e+00 2.065848000000000084e+01 -3.498540000000000205e+00 7.828100000000000058e+00 2.067139999999999844e+01 3.508700000000000152e+00 1.737710000000000088e+00 2.068211000000000155e+01 1.745300000000000074e+00 4.767389999999999795e+00 2.067172000000000054e+01 -9.409999999999999962e-03 7.819519999999999804e+00 2.068186000000000035e+01 7.020880000000000010e+00 1.752539999999999987e+00 2.067305999999999955e+01 5.281850000000000378e+00 4.785190000000000055e+00 2.066178999999999988e+01 3.507569999999999855e+00 7.814589999999999925e+00 2.067576000000000036e+01 -5.259310000000000151e+00 9.136599999999999611e+00 1.113109000000000037e+01 -1.759409999999999918e+00 3.052569999999999784e+00 1.112994999999999912e+01 -3.514330000000000176e+00 6.111150000000000304e+00 1.112125999999999948e+01 -1.777020000000000044e+00 9.138709999999999667e+00 1.113926999999999978e+01 1.760119999999999907e+00 3.064700000000000202e+00 1.113402999999999921e+01 1.263000000000000060e-02 6.099210000000000242e+00 1.113428000000000040e+01 7.037720000000000198e+00 1.452999999999999951e-02 1.114320000000000022e+01 5.281030000000000335e+00 3.029020000000000046e+00 1.112016999999999989e+01 3.522229999999999972e+00 6.108069999999999666e+00 1.114916999999999980e+01 1.757970000000000033e+00 2.752520000000000078e+00 1.885753000000000057e+01 2.860000000000000129e-03 5.771939999999999849e+00 1.885973999999999862e+01 -1.757549999999999946e+00 8.836109999999999687e+00 1.886147000000000062e+01 5.289970000000000283e+00 2.745159999999999823e+00 1.886486999999999981e+01 3.541189999999999838e+00 5.780090000000000394e+00 1.885386000000000095e+01 1.765400000000000080e+00 8.843759999999999621e+00 1.884091000000000093e+01 8.802939999999999543e+00 2.758539999999999992e+00 1.887115999999999971e+01 7.039920000000000400e+00 5.799699999999999633e+00 1.886154000000000153e+01 5.298329999999999984e+00 8.827070000000000860e+00 1.885628000000000171e+01