9.999999999999999547e-07 -4.620000000000000083e-04 -3.990999999999999756e-03 -9.999999999999999547e-07 -4.510000000000000120e-04 -3.990999999999999756e-03 0.000000000000000000e+00 -4.550000000000000008e-04 -3.988000000000000225e-03 9.999999999999999547e-07 -4.589999999999999896e-04 -3.991999999999999889e-03 -1.999999999999999909e-06 -4.530000000000000064e-04 -3.991999999999999889e-03 1.999999999999999909e-06 -4.550000000000000008e-04 -3.989999999999999623e-03 -3.000000000000000076e-06 -4.609999999999999840e-04 -3.991999999999999889e-03 3.000000000000000076e-06 -4.539999999999999765e-04 -3.993000000000000022e-03 9.999999999999999547e-07 -4.519999999999999821e-04 -3.989000000000000358e-03 3.000000000000000076e-06 -1.452699999999999998e-02 -2.096999999999999906e-03 -3.999999999999999819e-06 -1.452499999999999972e-02 -2.098000000000000038e-03 -1.999999999999999909e-06 -1.452699999999999998e-02 -2.095000000000000074e-03 -3.000000000000000076e-06 -1.452299999999999945e-02 -2.093999999999999941e-03 9.999999999999999547e-07 -1.452499999999999972e-02 -2.093999999999999941e-03 9.999999999999999547e-07 -1.452299999999999945e-02 -2.098000000000000038e-03 9.999999999999999547e-07 -1.452699999999999998e-02 -2.099999999999999870e-03 9.999999999999999547e-07 -1.452299999999999945e-02 -2.099000000000000171e-03 9.999999999999999547e-07 -1.452299999999999945e-02 -2.096000000000000207e-03 3.999999999999999819e-06 1.480700000000000072e-02 2.076999999999999853e-03 1.999999999999999909e-06 1.481799999999999957e-02 2.076999999999999853e-03 -1.999999999999999909e-06 1.481200000000000051e-02 2.072000000000000057e-03 9.999999999999999547e-07 1.481500000000000004e-02 2.076000000000000154e-03 -3.999999999999999819e-06 1.481299999999999978e-02 2.079000000000000119e-03 3.000000000000000076e-06 1.481500000000000004e-02 2.073999999999999889e-03 -3.000000000000000076e-06 1.480700000000000072e-02 2.077999999999999986e-03 1.999999999999999909e-06 1.481599999999999931e-02 2.079999999999999818e-03 -3.000000000000000076e-06 1.481700000000000031e-02 2.073999999999999889e-03 3.999999999999999819e-06 3.710000000000000190e-04 4.009000000000000410e-03 -9.999999999999999547e-07 3.730000000000000134e-04 4.014000000000000207e-03 -9.999999999999999547e-07 3.719999999999999891e-04 4.011999999999999941e-03 -3.000000000000000076e-06 3.719999999999999891e-04 4.008000000000000278e-03 9.999999999999999547e-07 3.669999999999999760e-04 4.010999999999999809e-03 0.000000000000000000e+00 3.750000000000000078e-04 4.013000000000000074e-03 -9.999999999999999547e-07 3.690000000000000246e-04 4.014000000000000207e-03 0.000000000000000000e+00 3.739999999999999835e-04 4.014000000000000207e-03 1.999999999999999909e-06 3.719999999999999891e-04 4.010999999999999809e-03 1.999999999999999909e-06 4.337999999999999842e-03 1.160999999999999923e-03 -9.999999999999999547e-07 4.334000000000000179e-03 1.162999999999999971e-03 9.999999999999999547e-07 4.341000000000000240e-03 1.160999999999999923e-03 -5.000000000000000409e-06 4.335000000000000311e-03 1.164000000000000104e-03 0.000000000000000000e+00 4.334000000000000179e-03 1.162999999999999971e-03 -3.000000000000000076e-06 4.340000000000000108e-03 1.165999999999999936e-03 0.000000000000000000e+00 4.337999999999999842e-03 1.164000000000000104e-03 1.999999999999999909e-06 4.335000000000000311e-03 1.162999999999999971e-03 9.999999999999999547e-07 4.338999999999999975e-03 1.162999999999999971e-03 3.999999999999999819e-06 -4.464000000000000086e-03 -1.142999999999999919e-03 3.999999999999999819e-06 -4.465000000000000219e-03 -1.149000000000000065e-03 -3.000000000000000076e-06 -4.461999999999999821e-03 -1.144999999999999967e-03 -1.999999999999999909e-06 -4.466999999999999617e-03 -1.144999999999999967e-03 -3.000000000000000076e-06 -4.464000000000000086e-03 -1.146000000000000100e-03 9.999999999999999547e-07 -4.464000000000000086e-03 -1.144999999999999967e-03 6.999999999999999895e-06 -4.468999999999999882e-03 -1.144999999999999967e-03 -5.000000000000000409e-06 -4.462999999999999953e-03 -1.144000000000000052e-03 -9.999999999999999547e-07 -4.462999999999999953e-03 -1.142000000000000003e-03
-8.921999999999999376e-03 -7.216000000000000192e-03 1.466800000000000048e-02 -9.210000000000000521e-04 2.669300000000000145e-02 -2.155899999999999830e-02 1.790100000000000025e-02 4.543000000000000163e-03 -3.088000000000000120e-02 1.170999999999999949e-03 -2.376899999999999846e-02 -1.940300000000000011e-02 2.218699999999999839e-02 1.820400000000000143e-02 -1.757799999999999987e-02 -1.209299999999999958e-02 3.594699999999999979e-02 -2.919999999999999961e-04 9.240999999999999215e-03 -1.446999999999999936e-03 -3.972200000000000036e-02 -1.485399999999999915e-02 1.873100000000000112e-02 -6.970999999999999766e-03 -1.282400000000000033e-02 2.242800000000000002e-02 3.482400000000000079e-02 -2.304799999999999904e-02 -6.348999999999999609e-03 2.249900000000000164e-02 -1.486299999999999948e-02 3.642999999999999971e-03 -4.151900000000000035e-02 3.390999999999999917e-03 -2.055699999999999888e-02 -3.594200000000000172e-02 2.735100000000000031e-02 -1.685400000000000093e-02 -1.181399999999999985e-02 2.310900000000000107e-02 -4.175399999999999945e-02 1.331700000000000071e-02 -1.714099999999999999e-02 -2.595099999999999837e-02 5.447999999999999718e-03 1.794700000000000115e-02 -6.231000000000000427e-03 -8.977000000000000604e-03 2.849099999999999897e-02 3.311000000000000141e-03 -4.073100000000000331e-02 5.228700000000000014e-02 -3.894100000000000339e-02 -4.457900000000000057e-02 -6.203000000000000180e-03 1.588200000000000028e-02 -5.183000000000000107e-03 -2.243999999999999901e-03 1.889000000000000054e-02 -1.989799999999999902e-02 6.710000000000000469e-04 1.504499999999999935e-02 -6.026000000000000106e-03 5.438000000000000125e-03 -4.098000000000000080e-03 -1.936699999999999880e-02 7.808999999999999969e-03 3.446899999999999964e-02 -3.158999999999999916e-03 2.638999999999999853e-03 3.198800000000000254e-02 -3.106599999999999986e-02 6.982000000000000359e-03 1.668199999999999891e-02 8.970000000000000542e-03 2.345200000000000062e-02 -6.111000000000000112e-03 -4.901699999999999807e-02 1.940199999999999911e-02 1.767200000000000021e-02 -6.035999999999999699e-03 4.373000000000000151e-03 -1.597600000000000062e-02 -1.249300000000000063e-02 -2.345999999999999995e-03 2.894100000000000145e-02 4.592600000000000154e-02 -2.254000000000000101e-02 -5.418000000000000073e-03 1.868200000000000069e-02 1.351800000000000050e-02 -8.347999999999999518e-03 -2.494999999999999996e-02 3.870099999999999929e-02 1.410699999999999975e-02 -1.358999999999999965e-03 2.989699999999999996e-02 -1.332999999999999984e-03 -3.882700000000000040e-02 3.588500000000000023e-02 -4.562900000000000289e-02 -4.150000000000000043e-04 8.226999999999999938e-03 -9.360999999999999530e-03 3.417499999999999705e-02 2.295600000000000071e-02 1.244800000000000073e-02 -2.849300000000000097e-02 -4.424299999999999761e-02 1.592299999999999965e-02 9.690999999999999961e-03 1.936000000000000004e-03 -2.091300000000000103e-02 2.887899999999999842e-02 -7.497000000000000192e-03 -2.782400000000000151e-02 6.485799999999999899e-02 2.717899999999999830e-02 1.081700000000000023e-02 1.006400000000000003e-02 5.339999999999999695e-04 -1.844600000000000059e-02 1.617100000000000135e-02 -2.085300000000000001e-02 -1.788800000000000112e-02 3.892500000000000127e-02 8.510000000000000203e-03 -4.095900000000000235e-02 -1.458399999999999974e-02 -8.489000000000000018e-03 5.778900000000000009e-02 7.896000000000000241e-02 -1.628599999999999839e-02 -2.436400000000000024e-02 -2.292100000000000040e-02 -1.040300000000000079e-02 -2.351999999999999924e-03 3.308999999999999875e-03 1.279999999999999942e-04 5.808200000000000168e-02 7.511000000000000315e-03 1.107400000000000051e-02 1.292199999999999946e-02 9.582999999999999505e-03 -5.428600000000000092e-02 -1.082699999999999982e-02 -9.039999999999999642e-04 -9.351199999999999790e-02 1.504999999999999914e-02 2.904100000000000084e-02 -4.453300000000000314e-02 1.700700000000000128e-02 1.137569999999999970e-01 -3.482999999999999985e-03 -8.454200000000000603e-02 -3.943699999999999983e-02 1.038200000000000060e-02 -2.067199999999999940e-02 -7.702999999999999778e-03 -4.168899999999999689e-02 2.749000000000000055e-02 4.286500000000000032e-02
-1.777499999999999913e-02 -1.385400000000000000e-02 3.309999999999999748e-02 -1.869999999999999917e-03 5.393900000000000083e-02 -3.914399999999999824e-02 3.582400000000000168e-02 9.556000000000000258e-03 -5.784000000000000252e-02 2.288000000000000103e-03 -4.694899999999999768e-02 -3.475899999999999823e-02 4.420000000000000318e-02 3.677799999999999819e-02 -3.137500000000000011e-02 -2.400899999999999909e-02 7.224899999999999378e-02 3.082999999999999803e-03 1.856999999999999970e-02 -2.432999999999999833e-03 -7.553700000000000692e-02 -2.943499999999999936e-02 3.789200000000000207e-02 -1.001900000000000013e-02 -2.517700000000000146e-02 4.476399999999999824e-02 7.286600000000000021e-02 -4.554799999999999821e-02 1.487999999999999956e-03 4.647600000000000342e-02 -2.969899999999999970e-02 2.191799999999999998e-02 -8.123600000000000265e-02 6.862000000000000044e-03 -2.653499999999999956e-02 -6.977400000000000269e-02 5.456899999999999945e-02 -1.929600000000000065e-02 -2.167300000000000129e-02 4.599899999999999822e-02 -6.867399999999999893e-02 2.833400000000000155e-02 -3.416399999999999992e-02 -3.707599999999999785e-02 1.282600000000000059e-02 3.559199999999999864e-02 1.837000000000000091e-03 -1.592899999999999872e-02 5.704700000000000049e-02 2.114200000000000107e-02 -7.969900000000000595e-02 1.052889999999999937e-01 -6.374699999999999811e-02 -8.779099999999999404e-02 -1.232600000000000015e-02 1.689299999999999830e-02 -1.231299999999999929e-02 -4.415999999999999787e-03 2.281499999999999848e-02 -4.149800000000000016e-02 1.291000000000000047e-03 1.528099999999999944e-02 -1.415800000000000045e-02 1.084700000000000074e-02 -2.283800000000000066e-02 -4.045100000000000084e-02 1.555300000000000085e-02 5.396000000000000102e-02 -8.257000000000000450e-03 5.261000000000000051e-03 4.889199999999999796e-02 -6.375200000000000311e-02 1.387099999999999965e-02 1.848699999999999996e-02 1.594200000000000131e-02 4.626700000000000257e-02 -2.617099999999999982e-02 -9.846699999999999897e-02 3.856699999999999712e-02 2.031000000000000166e-02 -1.398699999999999943e-02 8.748999999999999833e-03 -3.203199999999999797e-02 -2.865799999999999945e-02 -4.702999999999999715e-03 5.796899999999999969e-02 8.824200000000000099e-02 -4.500400000000000234e-02 -1.129100000000000069e-02 3.334700000000000164e-02 2.679799999999999890e-02 -1.692300000000000054e-02 -5.341699999999999920e-02 7.676299999999999790e-02 2.752699999999999939e-02 -6.014000000000000248e-03 5.899200000000000277e-02 -3.144999999999999792e-03 -8.040600000000000525e-02 7.187399999999999345e-02 -9.086700000000000332e-02 -3.638000000000000175e-03 1.651800000000000143e-02 -1.904600000000000043e-02 6.437400000000000067e-02 4.543599999999999722e-02 2.422600000000000101e-02 -6.024499999999999994e-02 -8.806700000000000639e-02 2.750100000000000114e-02 1.832800000000000054e-02 3.808999999999999886e-03 -4.602200000000000041e-02 5.646999999999999936e-02 -1.451500000000000012e-02 -5.960900000000000226e-02 1.274899999999999922e-01 5.396399999999999808e-02 1.730299999999999894e-02 1.868600000000000122e-02 1.079000000000000098e-03 -4.120800000000000157e-02 3.114400000000000154e-02 -4.159399999999999903e-02 -3.990799999999999903e-02 7.645200000000000606e-02 1.664399999999999907e-02 -8.580300000000000427e-02 -2.979199999999999904e-02 -1.701799999999999841e-02 1.098780000000000034e-01 1.553390000000000049e-01 -3.239399999999999918e-02 -5.241300000000000125e-02 -4.667299999999999921e-02 -2.077000000000000027e-02 -4.139999999999999800e-04 8.004999999999999963e-03 3.609999999999999928e-04 1.199199999999999988e-01 1.615600000000000022e-02 2.213100000000000137e-02 3.004799999999999832e-02 1.994500000000000092e-02 -1.082499999999999990e-01 -1.698600000000000110e-02 -8.679999999999999565e-04 -1.863269999999999926e-01 3.480199999999999960e-02 5.867599999999999899e-02 -8.908399999999999652e-02 3.865600000000000286e-02 2.274309999999999943e-01 -7.392000000000000133e-03 -1.646509999999999918e-01 -7.711099999999999899e-02 2.084300000000000042e-02 -3.682300000000000156e-02 -1.410100000000000069e-02 -8.279000000000000248e-02 5.921099999999999974e-02 8.605100000000000249e-02
-2.660300000000000165e-02 -2.035000000000000003e-02 5.135499999999999787e-02 -2.919999999999999853e-03 8.120399999999999840e-02 -5.654399999999999704e-02 5.370099999999999874e-02 1.452900000000000025e-02 -8.455600000000000616e-02 3.482999999999999985e-03 -6.987899999999999667e-02 -4.993000000000000216e-02 6.588399999999999812e-02 5.514600000000000057e-02 -4.528999999999999693e-02 -3.574600000000000000e-02 1.083520000000000039e-01 6.076999999999999937e-03 2.787800000000000000e-02 -3.328999999999999928e-03 -1.111240000000000006e-01 -4.368799999999999767e-02 5.701799999999999924e-02 -1.315200000000000050e-02 -3.707599999999999785e-02 6.651500000000000468e-02 1.099679999999999963e-01 -6.749399999999999844e-02 8.978999999999999135e-03 6.970200000000000007e-02 -4.445099999999999746e-02 4.023399999999999893e-02 -1.210790000000000061e-01 1.032800000000000037e-02 -3.239100000000000312e-02 -1.033779999999999977e-01 8.159600000000000186e-02 -2.186899999999999955e-02 -3.173999999999999738e-02 6.851400000000000545e-02 -9.528499999999999470e-02 4.297000000000000125e-02 -5.102999999999999897e-02 -4.775700000000000084e-02 2.006600000000000050e-02 5.276499999999999940e-02 9.532000000000000542e-03 -2.286099999999999938e-02 8.550499999999999767e-02 3.907599999999999962e-02 -1.188030000000000058e-01 1.587610000000000132e-01 -8.882199999999999818e-02 -1.314970000000000028e-01 -1.838599999999999957e-02 1.785000000000000128e-02 -1.911900000000000058e-02 -6.519999999999999754e-03 2.644300000000000123e-02 -6.244399999999999951e-02 1.822000000000000052e-03 1.559100000000000069e-02 -2.227499999999999966e-02 1.621200000000000072e-02 -4.140499999999999736e-02 -6.091300000000000187e-02 2.322499999999999912e-02 7.318900000000000405e-02 -1.314700000000000070e-02 7.938000000000000611e-03 6.550200000000000466e-02 -9.575999999999999790e-02 2.069700000000000012e-02 2.008499999999999869e-02 2.305700000000000111e-02 6.836499999999999522e-02 -4.532699999999999924e-02 -1.458919999999999939e-01 5.747200000000000225e-02 2.257899999999999838e-02 -2.164100000000000051e-02 1.308899999999999994e-02 -4.771100000000000341e-02 -4.427699999999999692e-02 -6.987000000000000155e-03 8.725499999999999923e-02 1.306640000000000024e-01 -6.743599999999999595e-02 -1.723799999999999985e-02 4.796500000000000069e-02 3.980500000000000010e-02 -2.539800000000000044e-02 -8.123600000000000265e-02 1.140229999999999994e-01 4.066700000000000176e-02 -9.813999999999999807e-03 8.718199999999999561e-02 -5.015999999999999626e-03 -1.203820000000000029e-01 1.078839999999999938e-01 -1.352450000000000041e-01 -5.556000000000000175e-03 2.475700000000000123e-02 -2.866600000000000051e-02 9.449799999999999867e-02 6.739000000000000545e-02 3.576000000000000012e-02 -9.085400000000000420e-02 -1.313239999999999963e-01 3.904699999999999838e-02 2.699999999999999969e-02 5.660000000000000100e-03 -7.083799999999999819e-02 8.369999999999999662e-02 -2.109099999999999864e-02 -9.093999999999999306e-02 1.885749999999999926e-01 8.032799999999999663e-02 2.384899999999999867e-02 2.690400000000000083e-02 1.557000000000000007e-03 -6.394900000000000584e-02 4.592199999999999754e-02 -6.219800000000000328e-02 -6.167500000000000066e-02 1.133979999999999988e-01 2.433400000000000146e-02 -1.299690000000000012e-01 -4.439099999999999990e-02 -2.553499999999999867e-02 1.603710000000000135e-01 2.297279999999999878e-01 -4.820399999999999685e-02 -7.969299999999999995e-02 -6.999199999999999866e-02 -3.112200000000000036e-02 1.296000000000000060e-03 1.282800000000000086e-02 5.890000000000000053e-04 1.806329999999999880e-01 2.466000000000000136e-02 3.305199999999999805e-02 4.686699999999999894e-02 2.979300000000000004e-02 -1.615630000000000122e-01 -2.290299999999999975e-02 -1.123000000000000083e-03 -2.778490000000000126e-01 5.469199999999999756e-02 8.747699999999999920e-02 -1.334619999999999973e-01 6.035800000000000193e-02 3.389599999999999835e-01 -1.165099999999999990e-02 -2.441589999999999872e-01 -1.139789999999999970e-01 3.125100000000000100e-02 -5.288099999999999745e-02 -2.034700000000000050e-02 -1.230910000000000060e-01 9.052100000000000424e-02 1.280449999999999922e-01
-3.539599999999999691e-02 -2.667800000000000032e-02 6.940799999999999748e-02 -4.102999999999999876e-03 1.083449999999999969e-01 -7.354900000000000326e-02 7.143399999999999750e-02 1.939199999999999952e-02 -1.107179999999999970e-01 4.862000000000000002e-03 -9.240800000000000403e-02 -6.471599999999999575e-02 8.706400000000000250e-02 7.318399999999999905e-02 -5.921300000000000174e-02 -4.728700000000000264e-02 1.440349999999999964e-01 8.736999999999999975e-03 3.702500000000000235e-02 -4.055999999999999710e-03 -1.461510000000000031e-01 -5.754000000000000087e-02 7.603799999999999448e-02 -1.629399999999999946e-02 -4.850899999999999657e-02 8.758199999999999319e-02 1.459950000000000137e-01 -8.882299999999999918e-02 1.604999999999999830e-02 9.206799999999999706e-02 -5.899100000000000177e-02 5.849499999999999839e-02 -1.608229999999999937e-01 1.369199999999999931e-02 -3.802400000000000224e-02 -1.364390000000000047e-01 1.083199999999999996e-01 -2.456699999999999856e-02 -4.201699999999999879e-02 9.047099999999999587e-02 -1.214699999999999946e-01 5.721199999999999897e-02 -6.760099999999999443e-02 -5.782500000000000140e-02 2.722099999999999867e-02 6.925299999999999512e-02 1.668499999999999844e-02 -2.963500000000000162e-02 1.136019999999999947e-01 5.711499999999999910e-02 -1.576960000000000028e-01 2.123029999999999917e-01 -1.139610000000000067e-01 -1.752440000000000109e-01 -2.436500000000000124e-02 1.873599999999999918e-02 -2.546199999999999852e-02 -8.526999999999999857e-03 2.966999999999999846e-02 -8.251100000000000101e-02 2.236000000000000140e-03 1.603200000000000111e-02 -3.035099999999999951e-02 2.150200000000000028e-02 -5.976599999999999968e-02 -8.058800000000000685e-02 3.081000000000000058e-02 9.206000000000000294e-02 -1.779199999999999879e-02 1.070300000000000071e-02 8.174299999999999622e-02 -1.269669999999999965e-01 2.745900000000000077e-02 2.135400000000000145e-02 3.032599999999999879e-02 8.960100000000000009e-02 -6.349699999999999789e-02 -1.910389999999999866e-01 7.603600000000000636e-02 2.435100000000000112e-02 -2.896999999999999922e-02 1.736400000000000096e-02 -6.291800000000000170e-02 -5.920600000000000168e-02 -9.145999999999999616e-03 1.165429999999999938e-01 1.728659999999999919e-01 -8.978600000000000469e-02 -2.325199999999999836e-02 6.243200000000000138e-02 5.247899999999999787e-02 -3.375299999999999828e-02 -1.082540000000000030e-01 1.502570000000000017e-01 5.351899999999999713e-02 -1.267300000000000024e-02 1.143279999999999991e-01 -6.884000000000000362e-03 -1.584399999999999975e-01 1.436959999999999904e-01 -1.785329999999999973e-01 -6.109999999999999980e-03 3.282700000000000201e-02 -3.820599999999999691e-02 1.243269999999999931e-01 8.873399999999999344e-02 4.702800000000000036e-02 -1.200729999999999992e-01 -1.737150000000000083e-01 5.048600000000000310e-02 3.560200000000000170e-02 7.481999999999999935e-03 -9.514599999999999447e-02 1.102410000000000057e-01 -2.722700000000000120e-02 -1.216249999999999970e-01 2.475249999999999950e-01 1.061359999999999942e-01 3.043900000000000078e-02 3.457099999999999757e-02 1.959999999999999937e-03 -8.651300000000000656e-02 6.031700000000000256e-02 -8.251899999999999513e-02 -8.301699999999999358e-02 1.493559999999999888e-01 3.152499999999999747e-02 -1.731310000000000071e-01 -5.832199999999999884e-02 -3.397399999999999726e-02 2.089650000000000118e-01 3.014209999999999945e-01 -6.358199999999999963e-02 -1.060190000000000021e-01 -9.275500000000000411e-02 -4.139299999999999924e-02 2.727999999999999956e-03 1.772200000000000164e-02 8.059999999999999673e-04 2.397950000000000081e-01 3.288599999999999857e-02 4.370999999999999885e-02 6.325999999999999679e-02 3.897599999999999676e-02 -2.137699999999999878e-01 -2.851199999999999915e-02 -1.724999999999999971e-03 -3.673489999999999811e-01 7.458700000000000052e-02 1.151439999999999964e-01 -1.773260000000000114e-01 8.190999999999999670e-02 4.472729999999999762e-01 -1.624400000000000149e-02 -3.224099999999999744e-01 -1.497580000000000022e-01 4.146400000000000086e-02 -6.874099999999999655e-02 -2.639299999999999979e-02 -1.622989999999999988e-01 1.211490000000000067e-01 1.684019999999999961e-01
-4.414799999999999974e-02 -3.281499999999999695e-02 8.723499999999999310e-02 -5.454999999999999780e-03 1.352270000000000139e-01 -8.994800000000000018e-02 8.892799999999999316e-02 2.406099999999999905e-02 -1.359819999999999918e-01 6.530000000000000214e-03 -1.144010000000000027e-01 -7.893699999999999328e-02 1.075799999999999951e-01 9.077399999999999358e-02 -7.304700000000000082e-02 -5.861000000000000237e-02 1.791129999999999944e-01 1.111700000000000015e-02 4.587200000000000305e-02 -4.571999999999999675e-03 -1.802769999999999928e-01 -7.091000000000000081e-02 9.489999999999999825e-02 -1.935699999999999921e-02 -5.948400000000000215e-02 1.079019999999999979e-01 1.808210000000000095e-01 -1.094750000000000029e-01 2.264400000000000093e-02 1.134970000000000007e-01 -7.321400000000000130e-02 7.658900000000000430e-02 -2.002190000000000081e-01 1.686999999999999958e-02 -4.333999999999999658e-02 -1.686459999999999904e-01 1.346130000000000104e-01 -2.738099999999999909e-02 -5.250500000000000306e-02 1.117059999999999997e-01 -1.471449999999999980e-01 7.108299999999999341e-02 -8.373600000000000487e-02 -6.711599999999999511e-02 3.434899999999999759e-02 8.487400000000000500e-02 2.312499999999999972e-02 -3.612100000000000033e-02 1.410889999999999922e-01 7.529500000000000082e-02 -1.960389999999999910e-01 2.654699999999999838e-01 -1.389420000000000099e-01 -2.185370000000000090e-01 -3.024599999999999858e-02 1.953999999999999834e-02 -3.119699999999999904e-02 -1.043499999999999983e-02 3.240099999999999925e-02 -1.014830000000000038e-01 2.503000000000000017e-03 1.664699999999999860e-02 -3.839299999999999657e-02 2.669099999999999945e-02 -7.790199999999999902e-02 -9.930799999999999350e-02 3.829699999999999771e-02 1.104740000000000028e-01 -2.211700000000000124e-02 1.358900000000000038e-02 9.757499999999999507e-02 -1.572240000000000026e-01 3.414600000000000274e-02 2.215900000000000161e-02 3.775799999999999990e-02 1.098790000000000044e-01 -8.061999999999999722e-02 -2.336850000000000038e-01 9.419299999999999895e-02 2.551900000000000002e-02 -3.593999999999999972e-02 2.155400000000000024e-02 -7.755800000000000194e-02 -7.331000000000000016e-02 -1.112199999999999994e-02 1.455599999999999949e-01 2.144929999999999892e-01 -1.120109999999999995e-01 -2.932900000000000090e-02 7.665900000000000492e-02 6.474599999999999800e-02 -4.197499999999999842e-02 -1.343219999999999970e-01 1.852640000000000120e-01 6.607799999999999785e-02 -1.452499999999999972e-02 1.403280000000000083e-01 -8.678999999999999215e-03 -1.943010000000000015e-01 1.791230000000000044e-01 -2.205640000000000100e-01 -5.276000000000000308e-03 4.061100000000000126e-02 -4.761100000000000054e-02 1.536619999999999930e-01 1.093879999999999991e-01 5.802500000000000019e-02 -1.476649999999999907e-01 -2.149439999999999962e-01 6.172899999999999915e-02 4.403399999999999676e-02 9.251000000000000542e-03 -1.187549999999999994e-01 1.357820000000000138e-01 -3.292199999999999988e-02 -1.514709999999999945e-01 3.037980000000000125e-01 1.312540000000000096e-01 3.703499999999999848e-02 4.155500000000000166e-02 2.288000000000000103e-03 -1.087840000000000057e-01 7.414999999999999369e-02 -1.024469999999999964e-01 -1.037499999999999950e-01 1.839409999999999934e-01 3.816599999999999854e-02 -2.149780000000000024e-01 -7.152699999999999336e-02 -4.224900000000000183e-02 2.553830000000000267e-01 3.697739999999999916e-01 -7.838299999999999434e-02 -1.312139999999999973e-01 -1.148290000000000005e-01 -5.152600000000000235e-02 3.837999999999999832e-03 2.263000000000000081e-02 1.000999999999999937e-03 2.969910000000000050e-01 4.073399999999999938e-02 5.398499999999999827e-02 7.909800000000000164e-02 4.737600000000000144e-02 -2.644250000000000211e-01 -3.374800000000000022e-02 -2.697000000000000178e-03 -4.541020000000000056e-01 9.432799999999999518e-02 1.413880000000000137e-01 -2.203239999999999921e-01 1.030989999999999962e-01 5.513449999999999740e-01 -2.111599999999999935e-02 -3.987379999999999813e-01 -1.841599999999999904e-01 5.134899999999999881e-02 -8.431199999999999806e-02 -3.218800000000000133e-02 -2.001259999999999983e-01 1.508529999999999871e-01 2.067209999999999881e-01
-5.286899999999999933e-02 -3.873900000000000260e-02 1.048359999999999986e-01 -7.015999999999999667e-03 1.617069999999999896e-01 -1.055309999999999998e-01 1.060959999999999959e-01 2.847099999999999978e-02 -1.600219999999999976e-01 8.595000000000000209e-03 -1.357359999999999955e-01 -9.240800000000000403e-02 1.272810000000000052e-01 1.078090000000000021e-01 -8.668399999999999717e-02 -6.970800000000000607e-02 2.134060000000000124e-01 1.328400000000000067e-02 5.428100000000000286e-02 -4.804000000000000110e-03 -2.131669999999999954e-01 -8.373700000000000587e-02 1.135499999999999982e-01 -2.226099999999999954e-02 -7.000599999999999878e-02 1.274089999999999945e-01 2.143599999999999950e-01 -1.294130000000000003e-01 2.871999999999999900e-02 1.339339999999999975e-01 -8.701200000000000601e-02 9.442100000000000493e-02 -2.390440000000000065e-01 1.977100000000000038e-02 -4.825399999999999828e-02 -1.997089999999999976e-01 1.603660000000000085e-01 -3.030400000000000107e-02 -6.320199999999999430e-02 1.320570000000000077e-01 -1.722239999999999882e-01 8.460700000000000165e-02 -9.930799999999999350e-02 -7.547800000000000342e-02 4.151699999999999835e-02 9.945500000000000174e-02 2.868700000000000069e-02 -4.218399999999999928e-02 1.677130000000000010e-01 9.365800000000000514e-02 -2.335069999999999923e-01 3.178270000000000262e-01 -1.635290000000000077e-01 -2.608929999999999860e-01 -3.602999999999999953e-02 2.024400000000000158e-02 -3.620799999999999713e-02 -1.223600000000000035e-02 3.453799999999999926e-02 -1.191809999999999953e-01 2.598000000000000049e-03 1.748900000000000107e-02 -4.639200000000000268e-02 3.175999999999999657e-02 -9.580099999999999727e-02 -1.169430000000000053e-01 4.567800000000000332e-02 1.283459999999999879e-01 -2.607800000000000049e-02 1.661599999999999883e-02 1.129529999999999978e-01 -1.864250000000000074e-01 4.076699999999999768e-02 2.238599999999999965e-02 4.534799999999999942e-02 1.291120000000000045e-01 -9.665500000000000480e-02 -2.736759999999999748e-01 1.118839999999999973e-01 2.597700000000000009e-02 -4.252999999999999836e-02 2.563500000000000154e-02 -9.155699999999999950e-02 -8.648699999999999444e-02 -1.285999999999999990e-02 1.740309999999999913e-01 2.552130000000000232e-01 -1.340709999999999957e-01 -3.546500000000000347e-02 9.055100000000000648e-02 7.654400000000000093e-02 -5.005799999999999833e-02 -1.593259999999999954e-01 2.188809999999999922e-01 7.835000000000000298e-02 -1.532400000000000082e-02 1.651040000000000008e-01 -1.033500000000000044e-02 -2.277369999999999950e-01 2.139860000000000095e-01 -2.611979999999999857e-01 -3.056000000000000123e-03 4.798499999999999988e-02 -5.684199999999999670e-02 1.823039999999999938e-01 1.292820000000000080e-01 6.875599999999999767e-02 -1.734340000000000048e-01 -2.547459999999999725e-01 7.270100000000000173e-02 5.218899999999999928e-02 1.095699999999999973e-02 -1.414700000000000124e-01 1.600169999999999926e-01 -3.820199999999999985e-02 -1.803140000000000021e-01 3.568919999999999870e-01 1.555729999999999891e-01 4.362699999999999911e-02 4.774099999999999872e-02 2.537999999999999892e-03 -1.306470000000000131e-01 8.724300000000000110e-02 -1.218700000000000061e-01 -1.237069999999999975e-01 2.167789999999999995e-01 4.421499999999999736e-02 -2.552150000000000252e-01 -8.396900000000000197e-02 -5.029100000000000237e-02 2.993919999999999915e-01 4.341820000000000124e-01 -9.247199999999999864e-02 -1.551210000000000089e-01 -1.360979999999999968e-01 -6.147299999999999986e-02 4.571999999999999675e-03 2.749400000000000108e-02 1.160999999999999923e-03 3.518439999999999901e-01 4.809599999999999986e-02 6.375899999999999623e-02 9.428400000000000669e-02 5.488500000000000323e-02 -3.131129999999999747e-01 -3.856199999999999906e-02 -4.061000000000000373e-03 -5.374390000000000001e-01 1.137600000000000000e-01 1.659519999999999884e-01 -2.620919999999999916e-01 1.236980000000000024e-01 6.502019999999999467e-01 -2.620300000000000060e-02 -4.724979999999999736e-01 -2.169210000000000027e-01 6.077799999999999869e-02 -9.950199999999999323e-02 -3.768799999999999928e-02 -2.363180000000000003e-01 1.794020000000000059e-01 2.426409999999999956e-01