0.000000000000000000e+00 2.032270000000000021e+00 9.483570000000000277e+00 -1.760000000000000009e+00 5.080680000000000085e+00 9.483570000000000277e+00 -3.520000000000000018e+00 8.129089999999999705e+00 9.483570000000000277e+00 3.520000000000000018e+00 2.032270000000000021e+00 9.483570000000000277e+00 1.760000000000000009e+00 5.080680000000000085e+00 9.483570000000000277e+00 0.000000000000000000e+00 8.129089999999999705e+00 9.483570000000000277e+00 7.040000000000000036e+00 2.032270000000000021e+00 9.483570000000000277e+00 5.280000000000000249e+00 5.080680000000000085e+00 9.483570000000000277e+00 3.520000000000000018e+00 8.129089999999999705e+00 9.483570000000000277e+00 1.056000000000000050e+00 2.032270000000000021e+00 1.688951000000000136e+01 -7.039999999999999591e-01 5.080680000000000085e+00 1.688951000000000136e+01 -2.463999999999999968e+00 8.129089999999999705e+00 1.688951000000000136e+01 4.575999999999999623e+00 2.032270000000000021e+00 1.688951000000000136e+01 2.815999999999999837e+00 5.080680000000000085e+00 1.688951000000000136e+01 1.056000000000000050e+00 8.129089999999999705e+00 1.688951000000000136e+01 8.096000000000000085e+00 2.032270000000000021e+00 1.688951000000000136e+01 6.336000000000000298e+00 5.080680000000000085e+00 1.688951000000000136e+01 4.575999999999999623e+00 8.129089999999999705e+00 1.688951000000000136e+01 0.000000000000000000e+00 2.032270000000000021e+00 1.311050000000000004e+01 -1.760000000000000009e+00 5.080680000000000085e+00 1.311050000000000004e+01 -3.520000000000000018e+00 8.129089999999999705e+00 1.311050000000000004e+01 3.520000000000000018e+00 2.032270000000000021e+00 1.311050000000000004e+01 1.760000000000000009e+00 5.080680000000000085e+00 1.311050000000000004e+01 0.000000000000000000e+00 8.129089999999999705e+00 1.311050000000000004e+01 7.040000000000000036e+00 2.032270000000000021e+00 1.311050000000000004e+01 5.280000000000000249e+00 5.080680000000000085e+00 1.311050000000000004e+01 3.520000000000000018e+00 8.129089999999999705e+00 1.311050000000000004e+01 1.056000000000000050e+00 2.032270000000000021e+00 2.051644999999999897e+01 -7.039999999999999591e-01 5.080680000000000085e+00 2.051644999999999897e+01 -2.463999999999999968e+00 8.129089999999999705e+00 2.051644999999999897e+01 4.575999999999999623e+00 2.032270000000000021e+00 2.051644999999999897e+01 2.815999999999999837e+00 5.080680000000000085e+00 2.051644999999999897e+01 1.056000000000000050e+00 8.129089999999999705e+00 2.051644999999999897e+01 8.096000000000000085e+00 2.032270000000000021e+00 2.051644999999999897e+01 6.336000000000000298e+00 5.080680000000000085e+00 2.051644999999999897e+01 4.575999999999999623e+00 8.129089999999999705e+00 2.051644999999999897e+01 0.000000000000000000e+00 0.000000000000000000e+00 1.129663000000000039e+01 -1.760000000000000009e+00 3.048410000000000064e+00 1.129663000000000039e+01 -3.520000000000000018e+00 6.096820000000000128e+00 1.129663000000000039e+01 3.520000000000000018e+00 0.000000000000000000e+00 1.129663000000000039e+01 1.760000000000000009e+00 3.048410000000000064e+00 1.129663000000000039e+01 0.000000000000000000e+00 6.096820000000000128e+00 1.129663000000000039e+01 7.040000000000000036e+00 0.000000000000000000e+00 1.129663000000000039e+01 5.280000000000000249e+00 3.048410000000000064e+00 1.129663000000000039e+01 3.520000000000000018e+00 6.096820000000000128e+00 1.129663000000000039e+01 1.056000000000000050e+00 0.000000000000000000e+00 1.870338999999999885e+01 -7.039999999999999591e-01 3.048410000000000064e+00 1.870338999999999885e+01 -2.463999999999999968e+00 6.096820000000000128e+00 1.870338999999999885e+01 4.575999999999999623e+00 0.000000000000000000e+00 1.870338999999999885e+01 2.815999999999999837e+00 3.048410000000000064e+00 1.870338999999999885e+01 1.056000000000000050e+00 6.096820000000000128e+00 1.870338999999999885e+01 8.096000000000000085e+00 0.000000000000000000e+00 1.870338999999999885e+01 6.336000000000000298e+00 3.048410000000000064e+00 1.870338999999999885e+01 4.575999999999999623e+00 6.096820000000000128e+00 1.870338999999999885e+01
3.150000000000000022e-03 2.032490000000000130e+00 9.482540000000000191e+00 -1.760229999999999961e+00 5.080219999999999736e+00 9.485229999999999606e+00 -3.521720000000000184e+00 8.131539999999999324e+00 9.482770000000000366e+00 3.519569999999999865e+00 2.031140000000000168e+00 9.483000000000000540e+00 1.762369999999999992e+00 5.077659999999999840e+00 9.482490000000000308e+00 -1.180000000000000059e-03 8.127879999999999328e+00 9.483140000000000569e+00 7.042329999999999757e+00 2.032389999999999919e+00 9.484769999999999257e+00 5.279250000000000220e+00 5.085029999999999717e+00 9.479620000000000601e+00 3.521999999999999797e+00 8.130779999999999674e+00 9.484389999999999432e+00 1.051369999999999916e+00 2.031639999999999890e+00 1.689035000000000153e+01 -7.061300000000000354e-01 5.080779999999999852e+00 1.688576000000000121e+01 -2.464319999999999844e+00 8.131489999999999441e+00 1.689103000000000065e+01 4.575400000000000134e+00 2.033240000000000158e+00 1.688654999999999973e+01 2.815580000000000194e+00 5.080300000000000260e+00 1.688945000000000007e+01 1.056429999999999980e+00 8.128399999999999181e+00 1.688909999999999911e+01 8.094829999999999970e+00 2.033279999999999976e+00 1.689048000000000016e+01 6.338160000000000238e+00 5.079970000000000319e+00 1.689228999999999914e+01 4.573520000000000252e+00 8.126509999999999678e+00 1.688869000000000042e+01 7.500000000000000156e-04 2.033180000000000209e+00 1.311017000000000010e+01 -1.760979999999999990e+00 5.078969999999999985e+00 1.311288000000000054e+01 -3.521539999999999893e+00 8.129030000000000200e+00 1.311016000000000048e+01 3.518419999999999881e+00 2.032020000000000159e+00 1.311205999999999960e+01 1.760820000000000052e+00 5.082760000000000389e+00 1.310956999999999972e+01 3.099999999999999999e-04 8.128719999999999501e+00 1.311116999999999955e+01 7.041929999999999801e+00 2.032579999999999831e+00 1.311271999999999949e+01 5.277359999999999829e+00 5.080790000000000362e+00 1.310971999999999937e+01 3.520890000000000075e+00 8.130050000000000665e+00 1.311361999999999917e+01 1.054419999999999913e+00 2.032989999999999853e+00 2.051756999999999920e+01 -7.029900000000000038e-01 5.081660000000000288e+00 2.051676000000000144e+01 -2.464550000000000018e+00 8.132080000000000197e+00 2.051392999999999844e+01 4.579069999999999752e+00 2.031600000000000072e+00 2.051692999999999856e+01 2.816500000000000004e+00 5.080619999999999692e+00 2.051559999999999917e+01 1.056119999999999948e+00 8.126939999999999387e+00 2.051470000000000127e+01 8.096619999999999706e+00 2.032509999999999817e+00 2.051726000000000028e+01 6.336149999999999949e+00 5.082659999999999734e+00 2.051570999999999856e+01 4.575739999999999696e+00 8.129099999999999326e+00 2.051475999999999900e+01 5.278929999999999900e+00 9.143309999999999604e+00 1.129733000000000054e+01 8.797459999999999170e+00 3.047289999999999832e+00 1.129766000000000048e+01 7.038549999999999862e+00 6.095780000000000420e+00 1.129540000000000077e+01 -1.759840000000000071e+00 9.144880000000000564e+00 1.129851000000000028e+01 1.761149999999999993e+00 3.048230000000000217e+00 1.129560999999999993e+01 -1.860000000000000108e-03 6.094540000000000290e+00 1.129615000000000080e+01 7.040160000000000196e+00 1.049999999999999935e-03 1.129959999999999987e+01 5.280859999999999665e+00 3.045619999999999994e+00 1.129784000000000077e+01 3.523530000000000051e+00 6.092660000000000409e+00 1.129737000000000080e+01 1.054540000000000033e+00 1.299999999999999886e-04 1.870374999999999943e+01 -7.023800000000000043e-01 3.049049999999999816e+00 1.870204999999999984e+01 -2.465110000000000134e+00 6.097059999999999924e+00 1.870176999999999978e+01 -7.030100000000000238e-01 9.142250000000000654e+00 1.870105999999999824e+01 2.817499999999999893e+00 3.050580000000000069e+00 1.870278000000000063e+01 1.055979999999999919e+00 6.095159999999999911e+00 1.870361000000000118e+01 8.100270000000000081e+00 2.449999999999999921e-03 1.870779999999999887e+01 6.334369999999999834e+00 3.049850000000000172e+00 1.870356999999999914e+01 4.576349999999999696e+00 6.095939999999999692e+00 1.870272999999999897e+01
6.289999999999999584e-03 2.032700000000000173e+00 9.481510000000000105e+00 -1.760450000000000070e+00 5.079760000000000275e+00 9.486879999999999313e+00 -3.523439999999999905e+00 8.133990000000000720e+00 9.481980000000000075e+00 3.519149999999999778e+00 2.029999999999999805e+00 9.482440000000000424e+00 1.764729999999999910e+00 5.074639999999999596e+00 9.481410000000000338e+00 -2.350000000000000092e-03 8.126680000000000348e+00 9.482710000000000861e+00 7.044649999999999856e+00 2.032509999999999817e+00 9.485960000000000392e+00 5.278500000000000192e+00 5.089349999999999596e+00 9.475680000000000547e+00 3.523989999999999956e+00 8.132460000000000022e+00 9.485219999999999985e+00 1.046769999999999978e+00 2.031010000000000204e+00 1.689119000000000170e+01 -7.082399999999999807e-01 5.080890000000000128e+00 1.688201000000000107e+01 -2.464609999999999967e+00 8.133869999999999933e+00 1.689254000000000033e+01 4.574830000000000396e+00 2.034209999999999852e+00 1.688360000000000127e+01 2.815179999999999794e+00 5.079930000000000057e+00 1.688937999999999917e+01 1.056890000000000107e+00 8.127710000000000434e+00 1.688870000000000005e+01 8.093690000000000495e+00 2.034289999999999932e+00 1.689144999999999897e+01 6.340340000000000309e+00 5.079259999999999664e+00 1.689505000000000123e+01 4.571080000000000254e+00 8.123939999999999273e+00 1.688786999999999949e+01 1.479999999999999979e-03 2.034089999999999954e+00 1.310983000000000054e+01 -1.761980000000000102e+00 5.077250000000000263e+00 1.311524999999999963e+01 -3.523089999999999833e+00 8.128970000000000695e+00 1.310981999999999914e+01 3.516820000000000057e+00 2.031759999999999788e+00 1.311361999999999917e+01 1.761609999999999898e+00 5.084839999999999804e+00 1.310865000000000080e+01 5.999999999999999474e-04 8.128339999999999677e+00 1.311182999999999943e+01 7.043829999999999814e+00 2.032880000000000020e+00 1.311494000000000071e+01 5.274720000000000297e+00 5.080879999999999619e+00 1.310895000000000010e+01 3.521739999999999871e+00 8.131000000000000227e+00 1.311672000000000082e+01 1.052850000000000064e+00 2.033710000000000129e+00 2.051869999999999905e+01 -7.019999999999999574e-01 5.082650000000000112e+00 2.051707000000000036e+01 -2.465100000000000069e+00 8.135059999999999292e+00 2.051141000000000147e+01 4.582130000000000258e+00 2.030930000000000124e+00 2.051739999999999853e+01 2.817009999999999792e+00 5.080560000000000187e+00 2.051474999999999937e+01 1.056240000000000068e+00 8.124790000000000845e+00 2.051295999999999964e+01 8.097239999999999327e+00 2.032760000000000122e+00 2.051808000000000121e+01 6.336310000000000109e+00 5.084640000000000271e+00 2.051497000000000170e+01 4.575490000000000279e+00 8.129099999999999326e+00 2.051308999999999827e+01 5.277849999999999930e+00 9.141420000000000101e+00 1.129803000000000068e+01 8.794930000000000803e+00 3.046170000000000044e+00 1.129869000000000057e+01 7.037090000000000067e+00 6.094739999999999824e+00 1.129416999999999938e+01 -1.759689999999999976e+00 9.144539999999999225e+00 1.130039000000000016e+01 1.762299999999999978e+00 3.048039999999999861e+00 1.129460000000000086e+01 -3.710000000000000190e-03 6.092259999999999565e+00 1.129566999999999943e+01 7.040309999999999846e+00 2.079999999999999818e-03 1.130255000000000010e+01 5.281710000000000349e+00 3.042850000000000055e+00 1.129903999999999975e+01 3.527019999999999822e+00 6.088540000000000063e+00 1.129810999999999943e+01 1.053080000000000016e+00 2.700000000000000035e-04 1.870411000000000001e+01 -7.007799999999999585e-01 3.049710000000000143e+00 1.870073000000000008e+01 -2.466200000000000170e+00 6.097310000000000230e+00 1.870016000000000034e+01 -7.020100000000000229e-01 9.139290000000000802e+00 1.869874000000000080e+01 2.818999999999999950e+00 3.052719999999999878e+00 1.870216999999999885e+01 1.055970000000000075e+00 6.093490000000000073e+00 1.870381000000000071e+01 8.104509999999999437e+00 4.890000000000000249e-03 1.871218000000000004e+01 6.332749999999999879e+00 3.051280000000000214e+00 1.870375999999999905e+01 4.576699999999999768e+00 6.095069999999999766e+00 1.870205999999999946e+01
9.409999999999999962e-03 2.032910000000000217e+00 9.480499999999999261e+00 -1.760690000000000088e+00 5.079290000000000305e+00 9.488519999999999399e+00 -3.525150000000000006e+00 8.136419999999999320e+00 9.481199999999999406e+00 3.518730000000000135e+00 2.028859999999999886e+00 9.481880000000000308e+00 1.767090000000000050e+00 5.071640000000000370e+00 9.480339999999999989e+00 -3.520000000000000125e-03 8.125479999999999592e+00 9.482310000000000016e+00 7.046960000000000335e+00 2.032610000000000028e+00 9.487149999999999750e+00 5.277759999999999785e+00 5.093639999999999723e+00 9.471759999999999735e+00 3.525959999999999983e+00 8.134130000000000749e+00 9.486060000000000159e+00 1.042229999999999990e+00 2.030380000000000074e+00 1.689202999999999832e+01 -7.103099999999999969e-01 5.080989999999999895e+00 1.687828000000000017e+01 -2.464890000000000025e+00 8.136250000000000426e+00 1.689403000000000077e+01 4.574279999999999902e+00 2.035159999999999858e+00 1.688065999999999889e+01 2.814799999999999969e+00 5.079550000000000232e+00 1.688930999999999827e+01 1.057390000000000052e+00 8.127019999999999911e+00 1.688831000000000060e+01 8.092570000000000263e+00 2.035299999999999887e+00 1.689243000000000094e+01 6.342530000000000001e+00 5.078549999999999898e+00 1.689779000000000053e+01 4.568660000000000387e+00 8.121380000000000265e+00 1.688706000000000174e+01 2.190000000000000106e-03 2.034990000000000077e+00 1.310947999999999958e+01 -1.763009999999999966e+00 5.075549999999999784e+00 1.311759999999999948e+01 -3.524669999999999970e+00 8.128899999999999793e+00 1.310947999999999958e+01 3.515200000000000102e+00 2.031509999999999927e+00 1.311518000000000050e+01 1.762369999999999992e+00 5.086899999999999977e+00 1.310772000000000048e+01 8.599999999999999789e-04 8.127950000000000230e+00 1.311248999999999931e+01 7.045689999999999564e+00 2.033189999999999831e+00 1.311716999999999977e+01 5.272070000000000256e+00 5.080960000000000143e+00 1.310819000000000045e+01 3.522580000000000044e+00 8.131940000000000168e+00 1.311980999999999931e+01 1.051290000000000058e+00 2.034429999999999961e+00 2.051980999999999966e+01 -7.010100000000000220e-01 5.083619999999999806e+00 2.051736999999999966e+01 -2.465650000000000119e+00 8.138030000000000541e+00 2.050891000000000020e+01 4.585169999999999746e+00 2.030250000000000110e+00 2.051785999999999888e+01 2.817509999999999959e+00 5.080510000000000304e+00 2.051391999999999882e+01 1.056370000000000031e+00 8.122640000000000526e+00 2.051123000000000118e+01 8.097860000000000724e+00 2.033020000000000049e+00 2.051889999999999858e+01 6.336470000000000269e+00 5.086610000000000298e+00 2.051425000000000054e+01 4.575249999999999595e+00 8.129099999999999326e+00 2.051144000000000034e+01 5.276790000000000092e+00 9.139559999999999462e+00 1.129873000000000083e+01 8.792439999999999145e+00 3.045059999999999878e+00 1.129972000000000065e+01 7.035639999999999894e+00 6.093720000000000248e+00 1.129296000000000078e+01 -1.759570000000000078e+00 9.144190000000000040e+00 1.130223999999999940e+01 1.763439999999999896e+00 3.047849999999999948e+00 1.129360999999999926e+01 -5.539999999999999786e-03 6.089999999999999858e+00 1.129519999999999946e+01 7.040449999999999875e+00 3.089999999999999865e-03 1.130546999999999969e+01 5.282540000000000013e+00 3.040119999999999933e+00 1.130021999999999949e+01 3.530470000000000219e+00 6.084489999999999732e+00 1.129881999999999920e+01 1.051639999999999908e+00 4.099999999999999912e-04 1.870445000000000135e+01 -6.992099999999999982e-01 3.050380000000000091e+00 1.869942999999999955e+01 -2.467260000000000009e+00 6.097570000000000157e+00 1.869857999999999976e+01 -7.009999999999999565e-01 9.136400000000000077e+00 1.869643999999999906e+01 2.820489999999999942e+00 3.054819999999999869e+00 1.870157999999999987e+01 1.055960000000000010e+00 6.091840000000000366e+00 1.870399000000000100e+01 8.108700000000000685e+00 7.289999999999999605e-03 1.871649000000000029e+01 6.331170000000000186e+00 3.052690000000000126e+00 1.870394999999999897e+01 4.577049999999999841e+00 6.094210000000000349e+00 1.870140999999999920e+01
1.250000000000000069e-02 2.033110000000000195e+00 9.479509999999999437e+00 -1.760930000000000106e+00 5.078809999999999825e+00 9.490140000000000242e+00 -3.526839999999999975e+00 8.138840000000000074e+00 9.480430000000000135e+00 3.518339999999999801e+00 2.027719999999999967e+00 9.481329999999999814e+00 1.769439999999999902e+00 5.068660000000000387e+00 9.479290000000000660e+00 -4.660000000000000080e-03 8.124280000000000612e+00 9.481920000000000570e+00 7.049249999999999794e+00 2.032709999999999795e+00 9.488329999999999487e+00 5.277040000000000397e+00 5.097879999999999967e+00 9.467869999999999564e+00 3.527899999999999814e+00 8.135770000000000834e+00 9.486909999999999954e+00 1.037749999999999950e+00 2.029760000000000009e+00 1.689285999999999888e+01 -7.123399999999999732e-01 5.081100000000000172e+00 1.687458000000000169e+01 -2.465170000000000083e+00 8.138619999999999521e+00 1.689549999999999841e+01 4.573750000000000426e+00 2.036109999999999864e+00 1.687774999999999892e+01 2.814449999999999896e+00 5.079180000000000028e+00 1.688922000000000168e+01 1.057949999999999946e+00 8.126329999999999387e+00 1.688794000000000040e+01 8.091480000000000672e+00 2.036300000000000221e+00 1.689340999999999937e+01 6.344719999999999693e+00 5.077840000000000131e+00 1.690048000000000172e+01 4.566279999999999895e+00 8.118840000000000501e+00 1.688625000000000043e+01 2.860000000000000129e-03 2.035880000000000134e+00 1.310913000000000039e+01 -1.764080000000000092e+00 5.073850000000000193e+00 1.311993000000000009e+01 -3.526260000000000172e+00 8.128809999999999647e+00 1.310914999999999964e+01 3.513570000000000082e+00 2.031250000000000000e+00 1.311672000000000082e+01 1.763099999999999890e+00 5.088949999999999640e+00 1.310679000000000016e+01 1.090000000000000040e-03 8.127549999999999386e+00 1.311314999999999920e+01 7.047500000000000320e+00 2.033490000000000020e+00 1.311940000000000062e+01 5.269440000000000346e+00 5.081019999999999648e+00 1.310745000000000005e+01 3.523379999999999956e+00 8.132849999999999469e+00 1.312288000000000032e+01 1.049749999999999961e+00 2.035159999999999858e+00 2.052090000000000103e+01 -7.000399999999999956e-01 5.084590000000000387e+00 2.051765999999999934e+01 -2.466200000000000170e+00 8.140980000000000771e+00 2.050641999999999854e+01 4.588189999999999991e+00 2.029560000000000031e+00 2.051829999999999998e+01 2.818020000000000191e+00 5.080449999999999910e+00 2.051308999999999827e+01 1.056499999999999995e+00 8.120509999999999451e+00 2.050949999999999918e+01 8.098480000000000345e+00 2.033319999999999794e+00 2.051970999999999989e+01 6.336619999999999919e+00 5.088569999999999816e+00 2.051352999999999938e+01 4.575020000000000309e+00 8.129080000000000084e+00 2.050983000000000089e+01 5.275739999999999874e+00 9.137750000000000483e+00 1.129944000000000059e+01 8.790010000000000545e+00 3.043960000000000221e+00 1.130072999999999972e+01 7.034180000000000099e+00 6.092719999999999914e+00 1.129177999999999926e+01 -1.759470000000000089e+00 9.143850000000000477e+00 1.130405999999999977e+01 1.764559999999999906e+00 3.047660000000000036e+00 1.129265000000000008e+01 -7.340000000000000170e-03 6.087769999999999904e+00 1.129473999999999911e+01 7.040600000000000414e+00 4.069999999999999833e-03 1.130833999999999939e+01 5.283360000000000056e+00 3.037450000000000205e+00 1.130134999999999934e+01 3.533830000000000027e+00 6.080549999999999677e+00 1.129949000000000048e+01 1.050189999999999957e+00 5.699999999999999772e-04 1.870476999999999990e+01 -6.976799999999999669e-01 3.051079999999999792e+00 1.869817000000000107e+01 -2.468259999999999899e+00 6.097830000000000084e+00 1.869704000000000121e+01 -6.999800000000000466e-01 9.133599999999999497e+00 1.869416000000000011e+01 2.821950000000000180e+00 3.056839999999999780e+00 1.870099000000000089e+01 1.055960000000000010e+00 6.090189999999999770e+00 1.870411999999999964e+01 8.112800000000000011e+00 9.650000000000000591e-03 1.872068000000000154e+01 6.329629999999999868e+00 3.054060000000000219e+00 1.870414999999999850e+01 4.577379999999999782e+00 6.093370000000000175e+00 1.870074999999999932e+01
1.555999999999999918e-02 2.033300000000000107e+00 9.478559999999999874e+00 -1.761190000000000033e+00 5.078319999999999723e+00 9.491749999999999687e+00 -3.528509999999999813e+00 8.141239999999999810e+00 9.479680000000000106e+00 3.517970000000000041e+00 2.026580000000000048e+00 9.480800000000000338e+00 1.771770000000000067e+00 5.065710000000000157e+00 9.478249999999999176e+00 -5.790000000000000008e-03 8.123100000000000875e+00 9.481569999999999609e+00 7.051510000000000389e+00 2.032799999999999940e+00 9.489489999999999981e+00 5.276329999999999742e+00 5.102039999999999687e+00 9.464000000000000412e+00 3.529819999999999958e+00 8.137389999999999901e+00 9.487790000000000390e+00 1.033349999999999991e+00 2.029139999999999944e+00 1.689367000000000019e+01 -7.143300000000000205e-01 5.081209999999999560e+00 1.687090999999999852e+01 -2.465430000000000010e+00 8.140969999999999374e+00 1.689693000000000112e+01 4.573260000000000325e+00 2.037049999999999805e+00 1.687488000000000099e+01 2.814130000000000020e+00 5.078809999999999825e+00 1.688911999999999836e+01 1.058570000000000011e+00 8.125650000000000261e+00 1.688759999999999906e+01 8.090410000000000323e+00 2.037290000000000045e+00 1.689440000000000097e+01 6.346910000000000274e+00 5.077139999999999986e+00 1.690312000000000126e+01 4.563950000000000173e+00 8.116319999999999979e+00 1.688547000000000153e+01 3.520000000000000125e-03 2.036760000000000126e+00 1.310876999999999981e+01 -1.765190000000000037e+00 5.072160000000000224e+00 1.312223000000000006e+01 -3.527859999999999996e+00 8.128700000000000259e+00 1.310881999999999969e+01 3.511929999999999996e+00 2.030990000000000073e+00 1.311825999999999937e+01 1.763800000000000034e+00 5.090970000000000439e+00 1.310585999999999984e+01 1.289999999999999914e-03 8.127140000000000697e+00 1.311381000000000085e+01 7.049269999999999925e+00 2.033780000000000143e+00 1.312165000000000070e+01 5.266820000000000057e+00 5.081050000000000288e+00 1.310673000000000066e+01 3.524150000000000116e+00 8.133720000000000283e+00 1.312592000000000070e+01 1.048249999999999904e+00 2.035899999999999821e+00 2.052196999999999960e+01 -6.990800000000000347e-01 5.085560000000000080e+00 2.051792999999999978e+01 -2.466740000000000155e+00 8.143909999999999982e+00 2.050394000000000005e+01 4.591169999999999973e+00 2.028849999999999820e+00 2.051871999999999829e+01 2.818519999999999914e+00 5.080390000000000406e+00 2.051229000000000013e+01 1.056640000000000024e+00 8.118380000000000152e+00 2.050778999999999996e+01 8.099099999999999966e+00 2.033650000000000180e+00 2.052053000000000083e+01 6.336780000000000079e+00 5.090530000000000221e+00 2.051283000000000101e+01 4.574819999999999887e+00 8.129049999999999443e+00 2.050825999999999993e+01 5.274720000000000297e+00 9.136020000000000252e+00 1.130014000000000074e+01 8.787649999999999295e+00 3.042879999999999807e+00 1.130172999999999917e+01 7.032729999999999926e+00 6.091739999999999711e+00 1.129063000000000017e+01 -1.759409999999999918e+00 9.143509999999999138e+00 1.130583999999999989e+01 1.765679999999999916e+00 3.047460000000000058e+00 1.129172999999999938e+01 -9.079999999999999530e-03 6.085569999999999702e+00 1.129430999999999941e+01 7.040750000000000064e+00 5.009999999999999697e-03 1.131115999999999921e+01 5.284150000000000347e+00 3.034850000000000048e+00 1.130242999999999931e+01 3.537090000000000067e+00 6.076740000000000030e+00 1.130011999999999972e+01 1.048750000000000071e+00 7.299999999999999632e-04 1.870506999999999920e+01 -6.962300000000000155e-01 3.051820000000000199e+00 1.869696000000000069e+01 -2.469190000000000218e+00 6.098110000000000142e+00 1.869555000000000078e+01 -6.989499999999999602e-01 9.130910000000000082e+00 1.869191000000000003e+01 2.823370000000000157e+00 3.058769999999999989e+00 1.870042000000000115e+01 1.055949999999999944e+00 6.088549999999999685e+00 1.870420000000000016e+01 8.116799999999999571e+00 1.193999999999999923e-02 1.872474000000000061e+01 6.328149999999999942e+00 3.055390000000000050e+00 1.870436000000000121e+01 4.577709999999999724e+00 6.092559999999999754e+00 1.870009999999999906e+01
1.856999999999999970e-02 2.033490000000000020e+00 9.477629999999999555e+00 -1.761470000000000091e+00 5.077810000000000379e+00 9.493330000000000268e+00 -3.530159999999999965e+00 8.143620000000000303e+00 9.478960000000000719e+00 3.517630000000000035e+00 2.025419999999999998e+00 9.480290000000000106e+00 1.774100000000000010e+00 5.062800000000000189e+00 9.477220000000000866e+00 -6.899999999999999883e-03 8.121919999999999362e+00 9.481260000000000687e+00 7.053740000000000343e+00 2.032869999999999955e+00 9.490650000000000475e+00 5.275649999999999729e+00 5.106119999999999770e+00 9.460169999999999746e+00 3.531690000000000218e+00 8.138970000000000482e+00 9.488690000000000069e+00 1.029029999999999889e+00 2.028529999999999944e+00 1.689448000000000150e+01 -7.162699999999999623e-01 5.081319999999999837e+00 1.686727000000000132e+01 -2.465689999999999937e+00 8.143299999999999983e+00 1.689831999999999823e+01 4.572790000000000354e+00 2.037970000000000059e+00 1.687202999999999875e+01 2.813829999999999831e+00 5.078439999999999621e+00 1.688899999999999935e+01 1.059260000000000090e+00 8.124969999999999359e+00 1.688728000000000051e+01 8.089380000000000237e+00 2.038269999999999804e+00 1.689540999999999826e+01 6.349090000000000344e+00 5.076450000000000351e+00 1.690569999999999951e+01 4.561650000000000205e+00 8.113820000000000476e+00 1.688468999999999909e+01 4.139999999999999583e-03 2.037640000000000118e+00 1.310838999999999999e+01 -1.766340000000000021e+00 5.070490000000000386e+00 1.312449999999999939e+01 -3.529469999999999885e+00 8.128579999999999472e+00 1.310849999999999937e+01 3.510279999999999845e+00 2.030730000000000146e+00 1.311979000000000006e+01 1.764459999999999917e+00 5.092959999999999710e+00 1.310493999999999915e+01 1.459999999999999926e-03 8.126709999999999212e+00 1.311447000000000074e+01 7.050989999999999647e+00 2.034079999999999888e+00 1.312391000000000041e+01 5.264240000000000030e+00 5.081030000000000157e+00 1.310603000000000051e+01 3.524890000000000079e+00 8.134570000000000078e+00 1.312892000000000081e+01 1.046769999999999978e+00 2.036639999999999784e+00 2.052301999999999893e+01 -6.981600000000000028e-01 5.086509999999999643e+00 2.051819000000000059e+01 -2.467270000000000074e+00 8.146810000000000329e+00 2.050148000000000081e+01 4.594120000000000203e+00 2.028140000000000054e+00 2.051911000000000129e+01 2.819030000000000147e+00 5.080339999999999634e+00 2.051150000000000162e+01 1.056789999999999896e+00 8.116279999999999717e+00 2.050609999999999999e+01 8.099729999999999208e+00 2.034019999999999939e+00 2.052136000000000138e+01 6.336940000000000239e+00 5.092480000000000118e+00 2.051214999999999833e+01 4.574639999999999596e+00 8.128989999999999938e+00 2.050675000000000026e+01 5.273729999999999585e+00 9.134380000000000166e+00 1.130085000000000051e+01 8.785399999999999210e+00 3.041819999999999968e+00 1.130270999999999937e+01 7.031290000000000262e+00 6.090799999999999770e+00 1.128951999999999956e+01 -1.759400000000000075e+00 9.143159999999999954e+00 1.130757000000000012e+01 1.766790000000000083e+00 3.047250000000000014e+00 1.129085000000000072e+01 -1.077000000000000006e-02 6.083400000000000141e+00 1.129388999999999932e+01 7.040910000000000224e+00 5.890000000000000270e-03 1.131390000000000029e+01 5.284909999999999997e+00 3.032360000000000166e+00 1.130344999999999978e+01 3.540230000000000210e+00 6.073100000000000165e+00 1.130070000000000086e+01 1.047309999999999963e+00 9.200000000000000278e-04 1.870532000000000039e+01 -6.948499999999999677e-01 3.052610000000000046e+00 1.869579999999999842e+01 -2.470040000000000013e+00 6.098410000000000331e+00 1.869412000000000162e+01 -6.978999999999999648e-01 9.128370000000000317e+00 1.868969999999999843e+01 2.824739999999999807e+00 3.060579999999999856e+00 1.869987000000000066e+01 1.055949999999999944e+00 6.086909999999999599e+00 1.870420999999999978e+01 8.120660000000000878e+00 1.416000000000000071e-02 1.872862999999999900e+01 6.326740000000000030e+00 3.056649999999999867e+00 1.870457999999999998e+01 4.578009999999999913e+00 6.091770000000000351e+00 1.869944999999999879e+01