-3.430930275399999800e+02
-3.430896378599999821e+02
-3.430804957799999784e+02
-3.430658602799999812e+02
-3.430461237000000096e+02
-3.430217974199999844e+02
-3.429934827499999983e+02
-3.429618474399999855e+02
-3.429275983699999983e+02
-3.428914564699999801e+02
-3.420173476599999844e+02
-3.420142517200000043e+02
-3.420090797299999963e+02
-3.420019164799999771e+02
-3.419929037499999822e+02
-3.419822349500000200e+02
-3.419701467799999932e+02
-3.419569143800000006e+02
-3.419428369899999893e+02
-3.419282326800000078e+02
-3.414082664399999771e+02
-3.414222260299999903e+02
-3.414362008400000263e+02
-3.414500369300000102e+02
-3.414636150000000043e+02
-3.414768499300000144e+02
-3.414896960400000125e+02
-3.415021472199999835e+02
-3.415142427200000270e+02
-3.415260572799999750e+02
-3.420150648000000047e+02
-3.420156623899999886e+02
-3.420111205499999869e+02
-3.420015640400000052e+02
-3.419872442099999716e+02
-3.419685339200000271e+02
-3.419459070400000087e+02
-3.419199160599999914e+02
-3.418911702899999909e+02
-3.418603111300000137e+02
-3.423181653099999835e+02
-3.423171052700000132e+02
-3.423108585800000014e+02
-3.422996759700000098e+02
-3.422839874100000088e+02
-3.422643784599999890e+02
-3.422415621299999771e+02
-3.422163377300000207e+02
-3.421895552199999884e+02
-3.421620739599999865e+02
-3.425413348800000222e+02
-3.425358556400000225e+02
-3.425286894600000096e+02
-3.425201195899999789e+02
-3.425104975099999933e+02
-3.425002306000000090e+02
-3.424897548600000050e+02
-3.424795234599999958e+02
-3.424699888200000260e+02
-3.424615809800000079e+02
-3.425919406500000264e+02
-3.425992749999999774e+02
-3.426035006399999929e+02
-3.426046777399999996e+02
-3.426029508999999962e+02
-3.425985462799999937e+02
-3.425917579900000192e+02
-3.425829404300000078e+02
-3.425724951600000168e+02
-3.425608518700000218e+02
-3.417760539399999971e+02
-3.417775018899999964e+02
-3.417788548899999910e+02
-3.417800967000000014e+02
-3.417812426200000004e+02
-3.417823299899999938e+02
-3.417834159799999725e+02
-3.417845840100000032e+02
-3.417859307400000262e+02
-3.417875679699999978e+02
-3.420387045499999772e+02
-3.420327538000000231e+02
-3.420245335899999759e+02
-3.420142638699999793e+02
-3.420022285100000090e+02
-3.419887648299999796e+02
-3.419742563500000188e+02
-3.419591120900000192e+02
-3.419437598499999922e+02
-3.419286364499999991e+02
-3.425796298899999783e+02
-3.425772570799999812e+02
-3.425714884899999788e+02
-3.425624162099999808e+02
-3.425502020900000275e+02
-3.425350651200000129e+02
-3.425172792299999855e+02
-3.424971607599999857e+02
-3.424750583499999834e+02
-3.424513412599999924e+02
-3.422928770899999904e+02
-3.422859315599999945e+02
-3.422771343399999751e+02
-3.422667962799999941e+02
-3.422553300899999726e+02
-3.422432271600000036e+02
-3.422310298400000192e+02
-3.422193100499999900e+02
-3.422086352900000179e+02
-3.421995512199999894e+02
-3.420545923099999754e+02
-3.420528777499999933e+02
-3.420487086399999725e+02
-3.420424230300000090e+02
-3.420344842999999742e+02
-3.420254621000000270e+02
-3.420160044099999936e+02
-3.420067997900000023e+02
-3.419985374799999818e+02
-3.419918821100000059e+02
-3.416874373599999899e+02
-3.416884019099999819e+02
-3.416880275899999901e+02
-3.416863631200000100e+02
-3.416835061599999790e+02
-3.416795983600000000e+02
-3.416748221099999796e+02
-3.416693962599999850e+02
-3.416635683399999834e+02
-3.416576064800000267e+02
-3.419386646500000211e+02
-3.419457409799999823e+02
-3.419505425099999911e+02
-3.419530065100000229e+02
-3.419532041800000002e+02
-3.419513331499999822e+02
-3.419476996000000213e+02
-3.419427008299999784e+02
-3.419368007499999749e+02
-3.419304950100000156e+02
-3.418996651699999916e+02
-3.418999932599999738e+02
-3.419017260800000031e+02
-3.419047884600000202e+02
-3.419090996300000143e+02
-3.419145815699999957e+02
-3.419211537099999987e+02
-3.419287442300000066e+02
-3.419372780599999828e+02
-3.419466881299999841e+02
-3.418020369800000253e+02
-3.418088918799999760e+02
-3.418185389299999883e+02
-3.418309218100000066e+02
-3.418460086100000126e+02
-3.418637766100000022e+02
-3.418842048899999781e+02
-3.419072508799999923e+02
-3.419328437899999926e+02
-3.419608652200000165e+02
-3.422773854000000142e+02
-3.422713377800000103e+02
-3.422604265200000100e+02
-3.422448997700000177e+02
-3.422251344300000255e+02
-3.422016213499999822e+02
-3.421749427799999808e+02
-3.421457453400000190e+02
-3.421147226400000250e+02
-3.420825890799999911e+02
-3.423585886199999777e+02
-3.423585883200000239e+02
-3.423555314100000260e+02
-3.423496279699999718e+02
-3.423411822799999982e+02
-3.423305765999999721e+02
-3.423182558400000062e+02
-3.423047072499999786e+02
-3.422904421399999819e+02
-3.422759803100000227e+02
-3.425689323999999942e+02
-3.425720955200000049e+02
-3.425730037899999729e+02
-3.425717503399999941e+02
-3.425685357300000078e+02
-3.425636554299999830e+02
-3.425574796700000206e+02
-3.425504287699999963e+02
-3.425429540399999837e+02
-3.425355089899999825e+02
-3.419186308700000154e+02
-3.419215145000000007e+02
-3.419226736599999867e+02
-3.419221618799999760e+02
-3.419201060899999902e+02
-3.419167095099999756e+02
-3.419122436999999763e+02
-3.419070405400000254e+02
-3.419014794799999777e+02
-3.418959752499999922e+02
-3.419064186100000029e+02
-3.419017633099999784e+02
-3.418941061500000274e+02
-3.418836139699999990e+02
-3.418705395499999895e+02
-3.418552170699999806e+02
-3.418380440099999760e+02
-3.418194700299999909e+02
-3.417999810300000263e+02
-3.417800833200000170e+02
-3.422071896699999911e+02
-3.422025074900000163e+02
-3.421941310600000179e+02
-3.421822584099999744e+02
-3.421671884200000022e+02
-3.421493012399999998e+02
-3.421290517099999988e+02
-3.421069410299999731e+02
-3.420835002900000177e+02
-3.420592655899999954e+02
-3.419068192799999792e+02
-3.419091100399999732e+02
-3.419063315999999872e+02
-3.418986771799999929e+02
-3.418864951499999734e+02
-3.418702747400000135e+02
-3.418506272899999772e+02
-3.418282503400000110e+02
-3.418039110999999934e+02
-3.417784052800000154e+02
-3.426301439399999822e+02
-3.426245800699999791e+02
-3.426142427400000088e+02
-3.425993491699999822e+02
-3.425802249199999778e+02
-3.425572843799999987e+02
-3.425310184499999764e+02
-3.425019666399999778e+02
-3.424707080499999847e+02
-3.424378416999999786e+02
-3.417806297399999949e+02
-3.417765565299999935e+02
-3.417723665500000152e+02
-3.417682190799999944e+02
-3.417643217699999809e+02
-3.417609083099999907e+02
-3.417582425900000089e+02
-3.417566005900000050e+02
-3.417562667000000260e+02
-3.417575226600000065e+02
-3.426143215899999745e+02
-3.426118888099999822e+02
-3.426042383399999949e+02
-3.425915532199999802e+02
-3.425741876899999738e+02
-3.425526481499999818e+02
-3.425275576299999898e+02
-3.424996346600000265e+02
-3.424696572799999785e+02
-3.424384290300000089e+02
-3.404992524699999876e+02
-3.404845283199999812e+02
-3.404748385299999995e+02
-3.404705583400000251e+02
-3.404721043700000109e+02
-3.404799081900000033e+02
-3.404943743399999789e+02
-3.405158488600000055e+02
-3.405445622699999717e+02
-3.405805793999999764e+02
-3.424898860000000127e+02
-3.424868628899999976e+02
-3.424788915899999893e+02
-3.424662509699999760e+02
-3.424493701999999757e+02
-3.424288081000000261e+02
-3.424052307499999870e+02
-3.423793750699999805e+02
-3.423520271200000025e+02
-3.423239955600000144e+02
-3.423365517199999886e+02
-3.423362698299999920e+02
-3.423323615200000063e+02
-3.423249964299999988e+02
-3.423144750499999986e+02
-3.423012171799999805e+02
-3.422857389999999782e+02
-3.422686320700000238e+02
-3.422505395700000008e+02
-3.422321289099999717e+02
-3.427124926500000015e+02
-3.427104462600000261e+02
-3.427055658300000118e+02
-3.426980183599999918e+02
-3.426880650200000105e+02
-3.426760393299999805e+02
-3.426623390699999732e+02
-3.426474134599999957e+02
-3.426317293399999926e+02
-3.426157628700000259e+02
-3.419115006499999936e+02
-3.419227021899999954e+02
-3.419349648599999796e+02
-3.419481826900000101e+02
-3.419623225799999773e+02
-3.419774036399999773e+02
-3.419934888500000056e+02
-3.420106655600000067e+02
-3.420290215900000135e+02
-3.420486259699999891e+02
-3.427023351400000024e+02
-3.426981902300000229e+02
-3.426880457500000148e+02
-3.426721855999999775e+02
-3.426510459400000173e+02
-3.426252112299999908e+02
-3.425953678000000195e+02
-3.425622805900000003e+02
-3.425267564700000094e+02
-3.424896182200000112e+02
-3.426510233299999868e+02
-3.426508403999999928e+02
-3.426482408200000123e+02
-3.426432730299999889e+02
-3.426360676599999806e+02
-3.426268209099999922e+02
-3.426157913700000108e+02
-3.426032888500000126e+02
-3.425896569600000134e+02
-3.425752612900000145e+02
-3.412434031000000232e+02
-3.412569902399999933e+02
-3.412746097400000167e+02
-3.412961401300000261e+02
-3.413214878499999827e+02
-3.413505794299999820e+02
-3.413833369199999765e+02
-3.414196535300000050e+02
-3.414593762700000070e+02
-3.415022805699999822e+02
-3.425576227899999822e+02
-3.425578215900000032e+02
-3.425538829800000258e+02
-3.425459634200000210e+02
-3.425343195400000127e+02
-3.425193030899999940e+02
-3.425013442900000200e+02
-3.424809353800000054e+02
-3.424586109400000282e+02
-3.424349309799999901e+02
-3.423277403999999819e+02
-3.423255997900000125e+02
-3.423219861200000196e+02
-3.423170168999999987e+02
-3.423108716599999752e+02
-3.423037762000000157e+02
-3.422960005499999738e+02
-3.422878498900000181e+02
-3.422796500700000024e+02
-3.422717399499999829e+02
-3.421731028599999718e+02
-3.421660024199999839e+02
-3.421592767299999878e+02
-3.421531375399999888e+02
-3.421478594100000237e+02
-3.421437603399999716e+02
-3.421411885699999971e+02
-3.421404914099999814e+02
-3.421420013000000040e+02
-3.421460070599999881e+02
-3.426210419600000137e+02
-3.426238388799999939e+02
-3.426226108700000168e+02
-3.426174908099999925e+02
-3.426087296900000183e+02
-3.425966846100000112e+02
-3.425818099400000278e+02
-3.425646278500000221e+02
-3.425457122600000162e+02
-3.425256657699999892e+02
-3.424494699100000048e+02
-3.424474995499999750e+02
-3.424418419200000017e+02
-3.424327498200000264e+02
-3.424205824300000245e+02
-3.424057834800000251e+02
-3.423888645600000018e+02
-3.423703770500000019e+02
-3.423508923100000061e+02
-3.423309732199999758e+02
-3.428818801799999960e+02
-3.428775201400000014e+02
-3.428676360599999953e+02
-3.428524788700000272e+02
-3.428324421500000199e+02
-3.428080341300000100e+02
-3.427798675099999741e+02
-3.427486241299999961e+02
-3.427150317900000118e+02
-3.426798344700000030e+02
-3.424517572500000142e+02
-3.424590401400000133e+02
-3.424635622499999954e+02
-3.424654955799999811e+02
-3.424650949699999956e+02
-3.424626933499999950e+02
-3.424586878100000149e+02
-3.424535161200000175e+02
-3.424476336700000161e+02
-3.424415055000000052e+02
-3.409018582699999911e+02
-3.408995690599999762e+02
-3.409020143500000017e+02
-3.409092225300000223e+02
-3.409211727100000076e+02
-3.409378071500000260e+02
-3.409590162200000236e+02
-3.409846469099999808e+02
-3.410144928199999868e+02
-3.410482938600000011e+02
-3.427174038399999745e+02
-3.427157921699999861e+02
-3.427102123600000141e+02
-3.427008603400000197e+02
-3.426880639299999984e+02
-3.426722671399999740e+02
-3.426540011600000071e+02
-3.426338638299999957e+02
-3.426124947900000279e+02
-3.425905401900000129e+02
-3.418995830499999897e+02
-3.418994333900000129e+02
-3.418982305200000269e+02
-3.418960036099999797e+02
-3.418928334299999960e+02
-3.418888624900000082e+02
-3.418842759799999840e+02
-3.418792968299999870e+02
-3.418741749999999797e+02
-3.418691645100000187e+02
-3.422891319700000281e+02
-3.422952853900000036e+02
-3.422970986600000174e+02
-3.422947232999999869e+02
-3.422884997099999964e+02
-3.422789310100000080e+02
-3.422666527100000167e+02
-3.422524003099999845e+02
-3.422369657699999834e+02
-3.422211563100000262e+02
-3.426633301300000198e+02
-3.426596377600000096e+02
-3.426508032799999910e+02
-3.426370575099999769e+02
-3.426187707000000273e+02
-3.425964295900000138e+02
-3.425706245299999750e+02
-3.425420139999999947e+02
-3.425113088300000186e+02
-3.424792471200000250e+02
-3.427973280799999998e+02
-3.427988351399999942e+02
-3.427951944999999796e+02
-3.427866135200000031e+02
-3.427734429800000271e+02
-3.427561633999999913e+02
-3.427353570199999808e+02
-3.427116907100000276e+02
-3.426858805200000120e+02
-3.426586662899999851e+02
-3.420664670500000284e+02
-3.420684212499999717e+02
-3.420690566200000262e+02
-3.420685080100000164e+02
-3.420669905600000220e+02
-3.420647779000000241e+02
-3.420621930500000190e+02
-3.420595943600000055e+02
-3.420573489799999720e+02
-3.420558228200000030e+02
-3.422518971599999986e+02
-3.422487009899999748e+02
-3.422404307200000062e+02
-3.422273165400000039e+02
-3.422097482199999945e+02
-3.421882519499999944e+02
-3.421634685800000284e+02
-3.421361204099999895e+02
-3.421069852900000114e+02
-3.420768719700000133e+02
-3.420661997999999926e+02
-3.420773887799999784e+02
-3.420878420500000061e+02
-3.420976426500000116e+02
-3.421069620299999769e+02
-3.421160374799999886e+02
-3.421251604700000257e+02
-3.421346484300000270e+02
-3.421448250500000086e+02
-3.421559908400000154e+02
