1.675000000000000057e-03 1.353000000000000036e-03 2.799999999999999958e-05 1.678000000000000021e-03 1.348999999999999939e-03 2.500000000000000120e-05 1.678999999999999937e-03 1.355000000000000085e-03 2.300000000000000002e-05 1.681999999999999901e-03 1.353999999999999952e-03 2.400000000000000061e-05 1.681999999999999901e-03 1.355000000000000085e-03 2.300000000000000002e-05 1.683000000000000034e-03 1.356999999999999916e-03 2.300000000000000002e-05 1.683999999999999950e-03 1.353999999999999952e-03 3.199999999999999855e-05 1.680999999999999986e-03 1.355000000000000085e-03 2.599999999999999840e-05 1.680999999999999986e-03 1.356000000000000000e-03 2.900000000000000017e-05 7.749899999999999844e-02 -1.716000000000000077e-03 -2.719999999999999979e-04 7.749899999999999844e-02 -1.722999999999999922e-03 -2.719999999999999979e-04 7.750400000000000345e-02 -1.719000000000000042e-03 -2.750000000000000166e-04 7.749899999999999844e-02 -1.719999999999999958e-03 -2.719999999999999979e-04 7.749899999999999844e-02 -1.722000000000000006e-03 -2.730000000000000222e-04 7.749799999999999744e-02 -1.717999999999999909e-03 -2.739999999999999923e-04 7.750100000000000044e-02 -1.716999999999999993e-03 -2.719999999999999979e-04 7.750100000000000044e-02 -1.722000000000000006e-03 -2.739999999999999923e-04 7.749799999999999744e-02 -1.719999999999999958e-03 -2.790000000000000054e-04 -7.752299999999999469e-02 -1.704999999999999918e-03 2.550000000000000183e-04 -7.751700000000000257e-02 -1.712999999999999896e-03 2.579999999999999828e-04 -7.751700000000000257e-02 -1.706000000000000051e-03 2.599999999999999772e-04 -7.751299999999999857e-02 -1.706000000000000051e-03 2.610000000000000015e-04 -7.751500000000000057e-02 -1.704000000000000003e-03 2.610000000000000015e-04 -7.751199999999999757e-02 -1.704000000000000003e-03 2.610000000000000015e-04 -7.750999999999999557e-02 -1.706000000000000051e-03 2.500000000000000052e-04 -7.751500000000000057e-02 -1.706000000000000051e-03 2.590000000000000071e-04 -7.751500000000000057e-02 -1.703000000000000087e-03 2.550000000000000183e-04 -1.694999999999999892e-03 1.345999999999999974e-03 -3.699999999999999811e-05 -1.696000000000000025e-03 1.338999999999999913e-03 -3.699999999999999811e-05 -1.691000000000000012e-03 1.340999999999999961e-03 -3.399999999999999973e-05 -1.696000000000000025e-03 1.340000000000000045e-03 -3.800000000000000209e-05 -1.696000000000000025e-03 1.337999999999999997e-03 -3.699999999999999811e-05 -1.698000000000000074e-03 1.342000000000000094e-03 -3.600000000000000091e-05 -1.693999999999999976e-03 1.343000000000000010e-03 -3.699999999999999811e-05 -1.693999999999999976e-03 1.338999999999999913e-03 -3.499999999999999693e-05 -1.698000000000000074e-03 1.342000000000000094e-03 -3.199999999999999855e-05 -1.812599999999999975e-02 3.959999999999999762e-04 2.149999999999999947e-04 -1.812199999999999922e-02 3.829999999999999854e-04 2.169999999999999891e-04 -1.811700000000000116e-02 3.860000000000000041e-04 2.149999999999999947e-04 -1.811499999999999916e-02 3.939999999999999817e-04 2.130000000000000003e-04 -1.812100000000000169e-02 3.890000000000000228e-04 2.139999999999999975e-04 -1.811700000000000116e-02 3.899999999999999929e-04 2.139999999999999975e-04 -1.811000000000000110e-02 3.989999999999999949e-04 2.149999999999999947e-04 -1.810499999999999957e-02 3.890000000000000228e-04 2.130000000000000003e-04 -1.811199999999999963e-02 3.970000000000000005e-04 2.149999999999999947e-04 1.810399999999999857e-02 4.000000000000000192e-04 -2.190000000000000106e-04 1.810000000000000150e-02 3.989999999999999949e-04 -2.210000000000000050e-04 1.810600000000000057e-02 3.899999999999999929e-04 -2.190000000000000106e-04 1.810200000000000004e-02 3.970000000000000005e-04 -2.200000000000000078e-04 1.810000000000000150e-02 3.959999999999999762e-04 -2.190000000000000106e-04 1.809799999999999950e-02 3.890000000000000228e-04 -2.190000000000000106e-04 1.809699999999999850e-02 3.989999999999999949e-04 -2.190000000000000106e-04 1.810200000000000004e-02 3.939999999999999817e-04 -2.190000000000000106e-04 1.809900000000000050e-02 3.879999999999999985e-04 -2.210000000000000050e-04
-3.277800000000000158e-02 -5.200999999999999894e-03 2.660399999999999918e-02 -9.473999999999999783e-03 -9.277000000000000524e-03 -1.835099999999999926e-02 1.926900000000000140e-02 -1.646900000000000100e-02 1.748699999999999907e-02 2.157999999999999849e-02 -1.471000000000000085e-03 1.294999999999999971e-02 -1.063399999999999936e-02 2.853999999999999940e-02 1.459700000000000060e-02 1.806500000000000120e-02 9.452999999999999597e-03 2.819699999999999984e-02 -2.210099999999999912e-02 -9.610999999999999752e-03 -9.719999999999999474e-03 1.793900000000000008e-02 -6.483600000000000474e-02 3.118500000000000091e-02 -2.888100000000000042e-02 -2.505800000000000041e-02 1.791099999999999984e-02 1.250979999999999870e-01 4.775999999999999863e-03 -7.926000000000000753e-03 9.567499999999999616e-02 1.150999999999999896e-03 3.051600000000000146e-02 6.378999999999999948e-02 -1.694700000000000026e-02 -2.981200000000000169e-02 8.101999999999999480e-02 -1.290499999999999980e-02 2.929599999999999912e-02 7.885399999999999354e-02 2.229000000000000078e-03 -1.288599999999999988e-02 1.117500000000000021e-01 3.811000000000000151e-03 2.180599999999999900e-02 8.299499999999999933e-02 -8.418000000000000135e-03 7.344999999999999966e-03 5.389900000000000246e-02 4.074999999999999629e-03 -4.767799999999999816e-02 9.397400000000000198e-02 1.869900000000000034e-02 1.268099999999999956e-02 -8.036799999999999500e-02 -9.357999999999999999e-03 -7.931000000000000549e-03 -8.939900000000000624e-02 9.978000000000000758e-03 -2.678300000000000125e-02 -6.769999999999999629e-02 -1.625000000000000056e-02 5.164000000000000187e-03 -6.624599999999999933e-02 -2.232000000000000043e-03 -8.162000000000000852e-03 -8.540599999999999581e-02 -2.338000000000000148e-02 1.505000000000000044e-03 -8.377800000000000524e-02 -1.365000000000000067e-02 -2.364000000000000216e-03 -1.003639999999999949e-01 -4.504000000000000191e-03 8.541999999999999246e-03 -3.798300000000000287e-02 -2.706599999999999978e-02 1.963099999999999914e-02 -8.486000000000000487e-02 -2.912199999999999858e-02 -2.786299999999999888e-02 2.435299999999999965e-02 6.530000000000000214e-03 -1.900800000000000059e-02 -1.977500000000000091e-02 -6.346000000000000078e-03 -1.329100000000000073e-02 3.302999999999999946e-03 -2.077299999999999980e-02 1.536599999999999945e-02 -3.009300000000000169e-02 -9.190000000000000252e-03 -2.138500000000000123e-02 6.099999999999999872e-05 2.011999999999999900e-03 1.409200000000000036e-02 5.964999999999999816e-03 1.278100000000000069e-02 1.233199999999999921e-02 -5.899999999999999754e-05 3.176699999999999663e-02 -3.350000000000000113e-04 3.370000000000000057e-04 -6.943999999999999652e-03 1.355600000000000034e-02 1.514099999999999994e-02 -1.290400000000000054e-02 3.976400000000000073e-02 2.376000000000000074e-03 4.779599999999999821e-02 1.999999999999999909e-06 3.867000000000000298e-02 1.195599999999999961e-02 -1.003199999999999925e-02 -9.660000000000000184e-03 1.723099999999999979e-02 2.095599999999999893e-02 -3.611199999999999827e-02 6.870000000000000022e-04 -2.792299999999999990e-02 -2.007199999999999956e-02 -3.847000000000000159e-03 2.565299999999999872e-02 1.907199999999999868e-02 2.078899999999999845e-02 1.110799999999999982e-02 -1.199399999999999945e-02 -2.883499999999999952e-02 -4.070100000000000107e-02 -2.874499999999999972e-02 5.344800000000000245e-02 -3.559899999999999870e-02 -7.893600000000000616e-02 9.094700000000000006e-02 -2.839399999999999910e-02 1.640600000000000044e-02 8.550000000000000308e-03 -1.859399999999999942e-02 -2.992799999999999974e-02 2.358800000000000133e-02 3.042500000000000066e-02 5.636499999999999844e-02 8.585999999999999882e-03 3.257800000000000279e-02 1.937699999999999839e-02 7.677900000000000003e-02 2.174299999999999844e-02 -1.085900000000000060e-02 -6.122199999999999864e-02 9.948999999999999511e-03 1.481299999999999978e-02 6.647000000000000131e-03 -3.570700000000000263e-02 -5.909799999999999776e-02 -4.111599999999999977e-02 -9.243300000000000127e-02 5.054999999999999771e-02 -3.061799999999999938e-02 6.974000000000000164e-03 4.094000000000000417e-03 1.553200000000000067e-02 2.749999999999999840e-03
-6.679899999999999727e-02 -1.181300000000000058e-02 5.236799999999999788e-02 -2.076100000000000168e-02 -1.988499999999999990e-02 -3.678800000000000125e-02 3.666500000000000314e-02 -3.420600000000000029e-02 3.467100000000000043e-02 4.125600000000000100e-02 -4.311999999999999861e-03 2.571700000000000028e-02 -2.288099999999999856e-02 5.545599999999999835e-02 2.867199999999999957e-02 3.403199999999999975e-02 1.734600000000000031e-02 5.584299999999999681e-02 -4.597799999999999804e-02 -2.068599999999999953e-02 -1.965599999999999986e-02 3.415599999999999886e-02 -1.289230000000000098e-01 6.071599999999999914e-02 -5.939200000000000035e-02 -5.112099999999999977e-02 3.486700000000000216e-02 1.724030000000000007e-01 1.081599999999999923e-02 -1.636800000000000060e-02 1.134909999999999947e-01 3.924999999999999670e-03 6.078900000000000275e-02 4.981900000000000217e-02 -3.223199999999999676e-02 -5.948500000000000315e-02 8.446499999999999841e-02 -2.376999999999999946e-02 5.837200000000000027e-02 8.010699999999999765e-02 6.109999999999999980e-03 -2.558099999999999957e-02 1.448909999999999920e-01 8.826999999999999777e-03 4.263999999999999735e-02 8.838600000000000623e-02 -1.501000000000000077e-02 1.467199999999999928e-02 2.996300000000000005e-02 9.825000000000000400e-03 -9.539599999999999469e-02 1.101970000000000033e-01 3.902200000000000113e-02 2.524900000000000061e-02 -8.310800000000000132e-02 -1.693199999999999913e-02 -1.585900000000000157e-02 -1.009120000000000017e-01 2.161799999999999833e-02 -5.357800000000000062e-02 -5.771600000000000341e-02 -3.072700000000000084e-02 1.014699999999999977e-02 -5.490199999999999941e-02 -2.772000000000000158e-03 -1.658000000000000099e-02 -9.322800000000000531e-02 -4.492700000000000166e-02 2.958000000000000126e-03 -8.993099999999999705e-02 -2.537500000000000172e-02 -4.857000000000000206e-03 -1.230929999999999941e-01 -7.348000000000000365e-03 1.668199999999999891e-02 2.086000000000000180e-03 -5.263799999999999729e-02 3.959800000000000125e-02 -9.209799999999999931e-02 -5.578600000000000225e-02 -5.531799999999999912e-02 4.999200000000000171e-02 1.151199999999999966e-02 -3.756099999999999717e-02 -3.757400000000000323e-02 -1.395099999999999986e-02 -2.613599999999999951e-02 8.408999999999999808e-03 -4.272900000000000309e-02 3.093900000000000122e-02 -5.819900000000000073e-02 -1.947199999999999973e-02 -4.201699999999999879e-02 1.812000000000000026e-03 2.690999999999999816e-03 2.818199999999999872e-02 1.365099999999999994e-02 2.425000000000000072e-02 2.471800000000000039e-02 1.569999999999999998e-03 6.210199999999999748e-02 -1.530000000000000056e-04 2.426999999999999904e-03 -1.524499999999999987e-02 2.714499999999999899e-02 3.243900000000000255e-02 -2.747499999999999942e-02 8.001999999999999391e-02 2.272899999999999920e-02 9.476999999999999313e-02 5.800000000000000034e-05 9.473199999999999676e-02 2.377999999999999906e-02 -1.960699999999999943e-02 -1.479000000000000063e-03 3.375899999999999734e-02 4.145200000000000273e-02 -5.389599999999999946e-02 9.829999999999999329e-04 -5.566000000000000114e-02 -2.191799999999999998e-02 -8.089000000000000704e-03 5.093899999999999817e-02 5.562899999999999789e-02 4.105299999999999921e-02 2.217299999999999827e-02 -5.824000000000000184e-03 -5.735500000000000320e-02 -8.074900000000000133e-02 -3.930700000000000166e-02 1.045880000000000004e-01 -6.961799999999999933e-02 -1.395560000000000134e-01 1.801419999999999966e-01 -5.748899999999999844e-02 1.491800000000000070e-02 1.677100000000000118e-02 -3.676600000000000007e-02 -7.770299999999999430e-02 4.678000000000000214e-02 6.110899999999999666e-02 9.459800000000000153e-02 1.700700000000000128e-02 6.526500000000000357e-02 2.077499999999999833e-02 1.520710000000000117e-01 4.372199999999999698e-02 -3.925399999999999723e-02 -1.219829999999999942e-01 1.995500000000000052e-02 1.177300000000000048e-02 1.281200000000000047e-02 -7.067500000000000171e-02 -1.353149999999999908e-01 -8.178000000000000547e-02 -1.837320000000000064e-01 8.271000000000000574e-02 -6.128100000000000214e-02 1.415100000000000038e-02 -9.757000000000000048e-03 3.058699999999999961e-02 5.655999999999999570e-03
-1.002569999999999989e-01 -1.840899999999999828e-02 7.721000000000000085e-02 -3.203000000000000291e-02 -3.037799999999999875e-02 -5.520900000000000113e-02 5.379500000000000254e-02 -5.182400000000000201e-02 5.145600000000000174e-02 6.059699999999999809e-02 -7.097000000000000010e-03 3.821100000000000191e-02 -3.509400000000000019e-02 8.205400000000000194e-02 4.218399999999999928e-02 4.952800000000000258e-02 2.496599999999999861e-02 8.279100000000000348e-02 -6.981300000000000006e-02 -3.178600000000000175e-02 -2.976799999999999932e-02 5.019300000000000150e-02 -1.906490000000000129e-01 8.858199999999999408e-02 -8.969599999999999795e-02 -7.665500000000000091e-02 5.066400000000000070e-02 2.191780000000000117e-01 1.643000000000000016e-02 -2.552199999999999955e-02 1.308789999999999953e-01 6.622000000000000282e-03 9.051800000000000124e-02 3.575699999999999712e-02 -4.752900000000000180e-02 -8.906100000000000128e-02 8.787100000000000466e-02 -3.427700000000000191e-02 8.690000000000000502e-02 8.129599999999999327e-02 9.834999999999999992e-03 -3.823800000000000116e-02 1.766250000000000042e-01 1.336299999999999988e-02 6.209900000000000142e-02 9.367100000000000426e-02 -2.148999999999999869e-02 2.165299999999999864e-02 5.798000000000000202e-03 1.555699999999999965e-02 -1.430790000000000117e-01 1.261440000000000061e-01 5.919800000000000062e-02 3.740099999999999675e-02 -8.571900000000000353e-02 -2.437699999999999936e-02 -2.341700000000000031e-02 -1.118890000000000023e-01 3.319699999999999734e-02 -8.007799999999999641e-02 -4.758799999999999836e-02 -4.499800000000000327e-02 1.523900000000000081e-02 -4.346599999999999769e-02 -3.337999999999999821e-03 -2.499900000000000039e-02 -1.009390000000000009e-01 -6.626600000000000545e-02 4.643000000000000425e-03 -9.595900000000000263e-02 -3.681299999999999850e-02 -7.231999999999999713e-03 -1.455909999999999982e-01 -1.024100000000000010e-02 2.446600000000000164e-02 4.241500000000000131e-02 -7.819199999999999762e-02 6.001499999999999890e-02 -9.919600000000000639e-02 -8.151400000000000312e-02 -8.204300000000000481e-02 7.504399999999999959e-02 1.622200000000000031e-02 -5.563499999999999696e-02 -5.499899999999999928e-02 -2.138299999999999923e-02 -3.849999999999999950e-02 1.365000000000000067e-02 -6.442599999999999716e-02 4.660299999999999859e-02 -8.593499999999999750e-02 -2.940299999999999858e-02 -6.180800000000000183e-02 3.521999999999999957e-03 3.333000000000000025e-03 4.206399999999999723e-02 2.129199999999999843e-02 3.575400000000000106e-02 3.698699999999999904e-02 3.138999999999999863e-03 9.201299999999999757e-02 4.099999999999999912e-04 4.578999999999999737e-03 -2.355700000000000155e-02 4.057999999999999802e-02 4.997399999999999759e-02 -4.223299999999999971e-02 1.203810000000000019e-01 4.278799999999999965e-02 1.410329999999999917e-01 3.820000000000000153e-04 1.497360000000000080e-01 3.578699999999999937e-02 -2.848600000000000090e-02 6.427999999999999686e-03 4.989699999999999691e-02 6.159400000000000291e-02 -7.129000000000000614e-02 1.281999999999999936e-03 -8.276000000000000023e-02 -2.367899999999999866e-02 -1.224599999999999994e-02 7.588599999999999512e-02 9.127499999999999503e-02 6.107499999999999735e-02 3.331200000000000133e-02 3.119999999999999944e-04 -8.491899999999999449e-02 -1.196399999999999963e-01 -4.975000000000000255e-02 1.535440000000000138e-01 -1.016039999999999999e-01 -1.995560000000000112e-01 2.674090000000000078e-01 -8.678400000000000003e-02 1.359600000000000045e-02 2.495199999999999849e-02 -5.459300000000000264e-02 -1.248839999999999950e-01 6.970899999999999319e-02 9.159499999999999587e-02 1.325300000000000089e-01 2.564299999999999913e-02 9.755800000000000582e-02 2.225900000000000101e-02 2.257240000000000080e-01 6.559299999999999853e-02 -6.687999999999999501e-02 -1.814330000000000109e-01 2.970199999999999924e-02 8.937999999999999765e-03 1.890000000000000013e-02 -1.047880000000000061e-01 -2.100680000000000047e-01 -1.213550000000000045e-01 -2.733670000000000266e-01 1.143129999999999979e-01 -9.135400000000000464e-02 2.124300000000000146e-02 -2.331300000000000039e-02 4.541699999999999904e-02 8.526000000000000592e-03
-1.329930000000000001e-01 -2.491799999999999918e-02 1.010000000000000064e-01 -4.316600000000000298e-02 -4.064500000000000057e-02 -7.352100000000000302e-02 7.056099999999999872e-02 -6.930400000000000449e-02 6.776000000000000079e-02 7.948700000000000210e-02 -9.747999999999999721e-03 5.035900000000000098e-02 -4.728600000000000164e-02 1.082400000000000029e-01 5.509000000000000008e-02 6.450899999999999690e-02 3.228000000000000314e-02 1.088869999999999977e-01 -9.348499999999999865e-02 -4.285599999999999826e-02 -4.000100000000000183e-02 6.592800000000000049e-02 -2.498039999999999983e-01 1.148840000000000000e-01 -1.196279999999999982e-01 -1.014710000000000056e-01 6.514000000000000346e-02 2.651709999999999900e-01 2.167600000000000082e-02 -3.532099999999999823e-02 1.477799999999999947e-01 9.242999999999999480e-03 1.196229999999999932e-01 2.175500000000000003e-02 -6.277800000000000047e-02 -1.183400000000000007e-01 9.125600000000000378e-02 -4.435100000000000153e-02 1.147880000000000011e-01 8.244400000000000339e-02 1.327799999999999987e-02 -5.075699999999999656e-02 2.066910000000000136e-01 1.744599999999999970e-02 8.003699999999999704e-02 9.886000000000000343e-02 -2.783400000000000110e-02 2.815099999999999894e-02 -1.847599999999999937e-02 2.126499999999999918e-02 -1.903930000000000067e-01 1.417990000000000084e-01 7.917799999999999838e-02 4.903400000000000120e-02 -8.816300000000000525e-02 -3.165500000000000258e-02 -3.045099999999999890e-02 -1.222130000000000022e-01 4.471800000000000080e-02 -1.062160000000000049e-01 -3.734599999999999725e-02 -5.896499999999999658e-02 2.044999999999999943e-02 -3.189700000000000174e-02 -3.917999999999999608e-03 -3.345399999999999763e-02 -1.084750000000000020e-01 -8.732199999999999684e-02 6.575000000000000115e-03 -1.018400000000000000e-01 -4.787899999999999795e-02 -9.535999999999999338e-03 -1.677770000000000095e-01 -1.319799999999999966e-02 3.160400000000000015e-02 8.270399999999999974e-02 -1.034879999999999967e-01 8.067199999999999371e-02 -1.061209999999999931e-01 -1.061499999999999944e-01 -1.080129999999999979e-01 9.934199999999999975e-02 2.059700000000000072e-02 -7.318600000000000105e-02 -7.192900000000000682e-02 -2.854800000000000046e-02 -5.026900000000000118e-02 1.903099999999999931e-02 -8.573899999999999577e-02 6.229799999999999921e-02 -1.132190000000000002e-01 -3.887499999999999983e-02 -8.059900000000000397e-02 5.132000000000000277e-03 3.889000000000000096e-03 5.557999999999999746e-02 2.882399999999999893e-02 4.726199999999999846e-02 4.905500000000000138e-02 4.601000000000000055e-03 1.211689999999999989e-01 1.280000000000000105e-03 6.779000000000000303e-03 -3.188599999999999768e-02 5.374799999999999717e-02 6.753299999999999581e-02 -5.701500000000000318e-02 1.605090000000000128e-01 6.237199999999999689e-02 1.862189999999999956e-01 9.680000000000000019e-04 2.032829999999999915e-01 4.786800000000000083e-02 -3.659599999999999659e-02 1.402199999999999974e-02 6.554500000000000604e-02 8.123700000000000365e-02 -8.810800000000000576e-02 1.572000000000000047e-03 -1.090030000000000027e-01 -2.534700000000000147e-02 -1.624799999999999855e-02 1.002880000000000021e-01 1.257240000000000024e-01 8.072600000000000608e-02 4.444000000000000034e-02 6.314000000000000168e-03 -1.112979999999999942e-01 -1.570469999999999922e-01 -6.001599999999999990e-02 2.000570000000000126e-01 -1.313350000000000073e-01 -2.584230000000000138e-01 3.521000000000000241e-01 -1.159769999999999968e-01 1.240499999999999936e-02 3.299799999999999955e-02 -7.190699999999999870e-02 -1.710689999999999988e-01 9.213599999999999568e-02 1.216229999999999950e-01 1.698459999999999970e-01 3.446099999999999858e-02 1.291559999999999930e-01 2.377399999999999999e-02 2.971610000000000085e-01 8.719999999999999973e-02 -9.352699999999999902e-02 -2.390879999999999950e-01 3.910199999999999787e-02 6.294000000000000115e-03 2.488599999999999840e-02 -1.377220000000000111e-01 -2.827810000000000046e-01 -1.595650000000000124e-01 -3.605729999999999769e-01 1.450730000000000075e-01 -1.205510000000000054e-01 2.815799999999999900e-02 -3.642700000000000105e-02 5.987699999999999967e-02 1.136000000000000031e-02
-1.648860000000000048e-01 -3.125200000000000200e-02 1.236170000000000047e-01 -5.404199999999999976e-02 -5.058200000000000196e-02 -9.157099999999999962e-02 8.691400000000000514e-02 -8.660800000000000443e-02 8.350599999999999690e-02 9.785000000000000642e-02 -1.222799999999999929e-02 6.209400000000000336e-02 -5.947199999999999709e-02 1.339490000000000125e-01 6.733899999999999608e-02 7.892899999999999916e-02 3.925399999999999723e-02 1.340260000000000062e-01 -1.168639999999999957e-01 -5.382800000000000085e-02 -5.025600000000000206e-02 8.122600000000000653e-02 -3.061880000000000157e-01 1.396749999999999936e-01 -1.490470000000000128e-01 -1.254139999999999977e-01 7.818100000000000049e-02 3.100919999999999788e-01 2.661600000000000077e-02 -4.565700000000000314e-02 1.641380000000000061e-01 1.179900000000000046e-02 1.479900000000000104e-01 7.976000000000000451e-03 -7.788599999999999690e-02 -1.471210000000000018e-01 9.464200000000000390e-02 -5.394700000000000190e-02 1.419459999999999888e-01 8.356500000000000039e-02 1.632199999999999970e-02 -6.306499999999999606e-02 2.348560000000000092e-01 2.112599999999999895e-02 9.635000000000000508e-02 1.039420000000000066e-01 -3.401799999999999963e-02 3.409000000000000224e-02 -4.270700000000000190e-02 2.692299999999999902e-02 -2.369829999999999992e-01 1.571279999999999899e-01 9.891099999999999892e-02 6.001999999999999696e-02 -9.043900000000000550e-02 -3.870599999999999735e-02 -3.683199999999999669e-02 -1.317760000000000042e-01 5.617400000000000171e-02 -1.319069999999999965e-01 -2.699800000000000116e-02 -7.253700000000000425e-02 2.577700000000000130e-02 -2.016700000000000090e-02 -4.543000000000000163e-03 -4.194599999999999718e-02 -1.157620000000000038e-01 -1.079640000000000044e-01 8.746999999999999567e-03 -1.075699999999999990e-01 -5.850000000000000339e-02 -1.181399999999999985e-02 -1.895429999999999893e-01 -1.621900000000000078e-02 3.789100000000000107e-02 1.226249999999999979e-01 -1.282919999999999894e-01 1.012990000000000002e-01 -1.128500000000000059e-01 -1.295830000000000037e-01 -1.331739999999999868e-01 1.227319999999999939e-01 2.460299999999999987e-02 -9.016000000000000403e-02 -8.823999999999999899e-02 -3.536199999999999760e-02 -6.133899999999999769e-02 2.457000000000000156e-02 -1.065200000000000036e-01 7.792699999999999627e-02 -1.399549999999999961e-01 -4.781500000000000333e-02 -9.829100000000000337e-02 6.582000000000000177e-03 4.290999999999999676e-03 6.857800000000000007e-02 3.615999999999999770e-02 5.873599999999999655e-02 6.079099999999999782e-02 5.910999999999999588e-03 1.492700000000000138e-01 2.377999999999999906e-03 9.025999999999999301e-03 -4.022799999999999987e-02 6.656399999999999817e-02 8.489199999999999524e-02 -7.164299999999999835e-02 2.000750000000000028e-01 8.131599999999999939e-02 2.299930000000000030e-01 1.796000000000000070e-03 2.549950000000000272e-01 5.991500000000000298e-02 -4.392599999999999977e-02 2.128000000000000030e-02 8.061500000000000610e-02 1.002099999999999935e-01 -1.041699999999999987e-01 1.837000000000000091e-03 -1.341549999999999965e-01 -2.691699999999999995e-02 -2.001400000000000054e-02 1.239309999999999995e-01 1.586990000000000067e-01 9.988400000000000056e-02 5.542500000000000204e-02 1.208599999999999952e-02 -1.362819999999999865e-01 -1.926799999999999902e-01 -7.004299999999999415e-02 2.439129999999999909e-01 -1.586400000000000032e-01 -3.156649999999999734e-01 4.336499999999999799e-01 -1.447539999999999938e-01 1.132999999999999979e-02 4.083400000000000224e-02 -8.852200000000000346e-02 -2.158760000000000123e-01 1.138289999999999996e-01 1.509220000000000006e-01 2.062740000000000129e-01 4.340299999999999714e-02 1.597359999999999891e-01 2.528400000000000092e-02 3.658899999999999930e-01 1.083680000000000060e-01 -1.190060000000000007e-01 -2.945169999999999733e-01 4.807199999999999668e-02 3.797000000000000028e-03 3.073800000000000143e-02 -1.691580000000000028e-01 -3.529519999999999880e-01 -1.961690000000000100e-01 -4.444960000000000022e-01 1.747319999999999984e-01 -1.486359999999999904e-01 3.483300000000000285e-02 -4.897599999999999870e-02 7.381400000000000461e-02 1.417999999999999990e-02
-1.958260000000000001e-01 -3.735299999999999732e-02 1.450079999999999980e-01 -6.457599999999999452e-02 -6.008700000000000152e-02 -1.093220000000000025e-01 1.027549999999999991e-01 -1.037539999999999990e-01 9.864100000000000645e-02 1.155830000000000052e-01 -1.444699999999999977e-02 7.338400000000000478e-02 -7.169799999999999784e-02 1.590940000000000132e-01 7.892799999999999816e-02 9.275999999999999523e-02 4.588300000000000017e-02 1.580600000000000060e-01 -1.398550000000000071e-01 -6.464300000000000601e-02 -6.049999999999999822e-02 9.600300000000000500e-02 -3.597020000000000217e-01 1.631740000000000135e-01 -1.777859999999999996e-01 -1.483089999999999964e-01 8.960700000000000609e-02 3.537440000000000029e-01 3.133400000000000074e-02 -5.645599999999999924e-02 1.799119999999999886e-01 1.429099999999999988e-02 1.756409999999999916e-01 -5.451000000000000116e-03 -9.284100000000000685e-02 -1.752269999999999939e-01 9.804899999999999727e-02 -6.297300000000000120e-02 1.683189999999999964e-01 8.471700000000000064e-02 1.883400000000000005e-02 -7.503300000000000247e-02 2.609409999999999785e-01 2.445699999999999957e-02 1.109490000000000059e-01 1.089439999999999992e-01 -4.004300000000000220e-02 3.931699999999999778e-02 -6.679000000000000214e-02 3.256300000000000167e-02 -2.825340000000000074e-01 1.721519999999999995e-01 1.183879999999999932e-01 7.034300000000000275e-02 -9.249699999999999589e-02 -4.552500000000000296e-02 -4.241199999999999831e-02 -1.404960000000000098e-01 6.758799999999999530e-02 -1.571690000000000031e-01 -1.659100000000000158e-02 -8.563300000000000078e-02 3.121200000000000016e-02 -8.215999999999999345e-03 -5.179999999999999709e-03 -5.056100000000000178e-02 -1.227379999999999999e-01 -1.281970000000000054e-01 1.122399999999999960e-02 -1.131370000000000015e-01 -6.858999999999999819e-02 -1.411500000000000081e-02 -2.108500000000000096e-01 -1.930400000000000171e-02 4.298199999999999937e-02 1.619140000000000024e-01 -1.523700000000000054e-01 1.216710000000000014e-01 -1.193290000000000045e-01 -1.516730000000000023e-01 -1.575809999999999989e-01 1.450819999999999887e-01 2.818000000000000019e-02 -1.065439999999999998e-01 -1.038489999999999969e-01 -4.173000000000000320e-02 -7.161299999999999610e-02 3.024400000000000005e-02 -1.267040000000000111e-01 9.347600000000000353e-02 -1.661169999999999869e-01 -5.610099999999999809e-02 -1.147309999999999997e-01 7.818999999999999562e-03 4.494999999999999864e-03 8.091399999999999981e-02 4.327700000000000297e-02 7.015799999999999814e-02 7.215299999999999492e-02 7.027000000000000260e-03 1.759630000000000083e-01 3.563999999999999894e-03 1.129900000000000002e-02 -4.859600000000000031e-02 7.887500000000000067e-02 1.018050000000000066e-01 -8.593000000000000638e-02 2.386969999999999925e-01 9.947200000000000486e-02 2.720310000000000228e-01 2.866000000000000058e-03 3.044970000000000176e-01 7.181099999999999983e-02 -5.040900000000000242e-02 2.817000000000000060e-02 9.499799999999999911e-02 1.184280000000000055e-01 -1.193179999999999935e-01 2.063999999999999863e-03 -1.580280000000000018e-01 -2.838099999999999998e-02 -2.348799999999999846e-02 1.466580000000000106e-01 1.899339999999999917e-01 1.184169999999999945e-01 6.623600000000000321e-02 1.753499999999999850e-02 -1.596829999999999916e-01 -2.262419999999999987e-01 -7.976099999999999857e-02 2.849180000000000046e-01 -1.833859999999999935e-01 -3.707699999999999885e-01 5.114809999999999635e-01 -1.727760000000000129e-01 1.028899999999999954e-02 4.832499999999999990e-02 -1.043169999999999931e-01 -2.589480000000000115e-01 1.345550000000000079e-01 1.792209999999999914e-01 2.414779999999999982e-01 5.242100000000000232e-02 1.890199999999999936e-01 2.674899999999999847e-02 4.314160000000000217e-01 1.289579999999999893e-01 -1.431219999999999992e-01 -3.472779999999999756e-01 5.652599999999999986e-02 1.456999999999999962e-03 3.644800000000000123e-02 -1.988479999999999970e-01 -4.200360000000000205e-01 -2.309660000000000046e-01 -5.245560000000000223e-01 2.030299999999999883e-01 -1.753200000000000036e-01 4.118100000000000233e-02 -6.081299999999999900e-02 8.710900000000000587e-02 1.698799999999999963e-02