9.954484313347486957e-01 -2.712442818220354014e-04 3.663298689623560200e+00 -2.712442818220354014e-04 -1.454954327693398219e-01 -1.446636169717522321e-04 3.663298689623560200e+00 -1.446636169717522321e-04 -3.589827655154031461e-01
1.033440713741955008e+00 -3.321838304713860962e-02 3.626933872907286638e+00 -3.321838304713860962e-02 -3.227445294639792461e-01 -3.839010735387874546e-02 3.626933872907286638e+00 -3.839010735387874546e-02 -5.382933187518900153e-01
1.084109145586311440e+00 -6.540603782335348282e-02 3.599664781108110834e+00 -6.540603782335348282e-02 -4.861782507378162865e-01 -7.706954194170100025e-02 3.599664781108110834e+00 -7.706954194170100025e-02 -6.968084770486876467e-01
1.146459164501136385e+00 -9.668954499349489973e-02 3.581274418800576953e+00 -9.668954499349489973e-02 -6.354530205005431975e-01 -1.161829673804385121e-01 3.581274418800576953e+00 -1.161829673804385121e-01 -8.348718164961035360e-01
1.219152632029441907e+00 -1.268699920842266959e-01 3.571545790559226496e+00 -1.268699920842266959e-01 -7.704965069436738867e-01 -1.556942177658483251e-01 3.571545790559226496e+00 -1.556942177658483251e-01 -9.532609040353612340e-01
1.300327004102716399e+00 -1.557846325264556908e-01 3.570062988485266153e+00 -1.557846325264556908e-01 -8.917969497744880902e-01 -1.955852101458090408e-01 3.570062988485266153e+00 -1.955852101458090408e-01 -1.053548956501028533e+00
1.388282483221541908e+00 -1.832888027032101019e-01 3.576355855823536878e+00 -1.832888027032101019e-01 -9.996798421311724470e-01 -2.357836127118346781e-01 3.576355855823536878e+00 -2.357836127118346781e-01 -1.137435771392523387e+00
1.480650202658005732e+00 -2.092197560453966654e-01 3.589863821058274507e+00 -2.092197560453966654e-01 -1.095392907710107888e+00 -2.762894254639253200e-01 3.589863821058274507e+00 -2.762894254639253200e-01 -1.207561459719580288e+00
1.575404871774503279e+00 -2.334147459839222283e-01 3.609935897913105318e+00 -2.334147459839222283e-01 -1.179858377069489705e+00 -3.171207313542023787e-01 3.609935897913105318e+00 -3.171207313542023787e-01 -1.266403385922840519e+00
1.670177623843122516e+00 -2.557833577581793971e-01 3.635921100111656035e+00 -2.557833577581793971e-01 -1.254414388666306612e+00 -3.583136962869087894e-01 3.635921100111656035e+00 -3.583136962869087894e-01 -1.316927154150224988e+00
-4.308818709981112960e+01 -6.121742274773312786e+00 -1.085046180519326775e+00 -6.121742274773312786e+00 -3.341205464513647883e+01 7.878778795044562244e+00 -1.085046180519326775e+00 7.878778795044562244e+00 -3.238931849894920134e+01
-4.309584754637483428e+01 -6.015731578778844124e+00 -1.075827032669709027e+00 -6.015731578778844124e+00 -3.347769117611530731e+01 7.957284115908316302e+00 -1.075827032669709027e+00 7.957284115908316302e+00 -3.249953008499473839e+01
-4.305741225369044400e+01 -5.907363822303235423e+00 -1.061456567155665942e+00 -5.907363822303235423e+00 -3.349998820792479393e+01 8.023376852141554494e+00 -1.061456567155665942e+00 8.023376852141554494e+00 -3.248827702205252166e+01
-4.297177872572647317e+01 -5.796886116525961086e+00 -1.041858749768128423e+00 -5.796886116525961086e+00 -3.347786225308570351e+01 8.077228080714681013e+00 -1.041858749768128423e+00 8.077228080714681013e+00 -3.235649072918366187e+01
-4.283913704800558975e+01 -5.684602598283298391e+00 -1.017014571954828916e+00 -5.684602598283298391e+00 -3.341127529449352096e+01 8.118894827284499627e+00 -1.017014571954828916e+00 8.118894827284499627e+00 -3.210434228335855522e+01
-4.266060872511154400e+01 -5.570893438620592164e+00 -9.867529567453622308e-01 -5.570893438620592164e+00 -3.330131081962746720e+01 8.148377091851008558e+00 -9.867529567453622308e-01 8.148377091851008558e+00 -3.173430279637193863e+01
-4.243756237280760502e+01 -5.456043765821850577e+00 -9.509218357215908357e-01 -5.456043765821850577e+00 -3.314926141004170290e+01 8.165750908623277127e+00 -9.509218357215908357e-01 8.165750908623277127e+00 -3.124890040567537142e+01
-4.217134759830472035e+01 -5.340376725275617353e+00 -9.092550891517724443e-01 -5.340376725275617353e+00 -3.295653369860403359e+01 8.170997269049038891e+00 -9.092550891517724443e-01 8.170997269049038891e+00 -3.065045415464544831e+01
-4.186329500026162265e+01 -5.224196453818167107e+00 -8.613915545428298959e-01 -5.224196453818167107e+00 -3.272451530962994326e+01 8.164135181680560294e+00 -8.613915545428298959e-01 8.164135181680560294e+00 -2.994221450571987475e+01
-4.151511534838235207e+01 -5.107807088285778896e+00 -8.070270950584866876e-01 -5.107807088285778896e+00 -3.245489800427122873e+01 8.145107620861042008e+00 -8.070270950584866876e-01 8.145107620861042008e+00 -2.912716580160460822e+01
-4.719865871081616149e+01 -9.730095080385861905e+00 -6.851963207398094724e+00 -9.730095080385861905e+00 -4.268683399824715252e+01 -1.083054482294108922e+01 -6.851963207398094724e+00 -1.083054482294108922e+01 -4.447667069416893781e+01
-4.706567007100893818e+01 -9.730883588590069522e+00 -6.873752958504614874e+00 -9.730883588590069522e+00 -4.259009750392606009e+01 -1.061682063578596313e+01 -6.873752958504614874e+00 -1.061682063578596313e+01 -4.413461198880215619e+01
-4.687604346385069221e+01 -9.727883411032596683e+00 -6.884965160530299499e+00 -9.727883411032596683e+00 -4.243858853727365954e+01 -1.038973027297414653e+01 -6.884965160530299499e+00 -1.038973027297414653e+01 -4.363927498130036753e+01
-4.663006736795274065e+01 -9.721056083898602651e+00 -6.885330566771274086e+00 -9.721056083898602651e+00 -4.223263404071609273e+01 -1.014917757496854200e+01 -6.885330566771274086e+00 -1.014917757496854200e+01 -4.299346753014684452e+01
-4.632928033590862782e+01 -9.710266983836151056e+00 -6.874445307171724195e+00 -9.710266983836151056e+00 -4.197354178395790569e+01 -9.895508716102700220e+00 -6.874445307171724195e+00 -9.895508716102700220e+00 -4.220124756780714392e+01
-4.597399007823709383e+01 -9.695246864141363830e+00 -6.851924743583255761e+00 -9.695246864141363830e+00 -4.166183102849940667e+01 -9.629319885506633980e+00 -6.851924743583255761e+00 -9.629319885506633980e+00 -4.126665379483941365e+01
-4.556840838266304416e+01 -9.675918797184566600e+00 -6.817384237857474716e+00 -9.675918797184566600e+00 -4.130136738773196470e+01 -9.350861097976800096e+00 -6.817384237857474716e+00 -9.350861097976800096e+00 -4.019345566509790046e+01
-4.511403533796521259e+01 -9.651994304354460041e+00 -6.770381456123727659e+00 -9.651994304354460041e+00 -4.089359325471207285e+01 -9.060843934087724705e+00 -6.770381456123727659e+00 -9.060843934087724705e+00 -3.898932670964307334e+01
-4.461419806412721556e+01 -9.623415689928785710e+00 -6.710608687863301114e+00 -9.623415689928785710e+00 -4.044164343034913145e+01 -8.759960742506519793e+00 -6.710608687863301114e+00 -8.759960742506519793e+00 -3.766195969144280298e+01
-4.407233907257717220e+01 -9.589932939111088572e+00 -6.637719758742638199e+00 -9.589932939111088572e+00 -3.994874887508964179e+01 -8.448903871900293794e+00 -6.637719758742638199e+00 -8.448903871900293794e+00 -3.621991280929886869e+01
3.610086256499425872e+01 -1.537142693055366660e+00 -5.797122240524194225e+00 -1.537142693055366660e+00 3.564981621437255654e+01 -2.475892438139359442e+00 -5.797122240524194225e+00 -2.475892438139359442e+00 -7.343096267277293698e+00
3.613338430178590954e+01 -1.558940667499770338e+00 -5.807425463171549396e+00 -1.558940667499770338e+00 3.561540204893139361e+01 -2.298599909659876595e+00 -5.807425463171549396e+00 -2.298599909659876595e+00 -7.341939783102590766e+00
3.618111555772365762e+01 -1.579669770206948654e+00 -5.802028537022934529e+00 -1.579669770206948654e+00 3.559791460641088179e+01 -2.118170855918698248e+00 -5.802028537022934529e+00 -2.118170855918698248e+00 -7.308051292286291023e+00
3.624340800077016667e+01 -1.598997073914486533e+00 -5.780878894615864461e+00 -1.598997073914486533e+00 3.559709104949859437e+01 -1.934868114228257774e+00 -5.780878894615864461e+00 -1.934868114228257774e+00 -7.242937728753007676e+00
3.631940302903814910e+01 -1.616677263797447361e+00 -5.743748743612896668e+00 -1.616677263797447361e+00 3.561252836098212526e+01 -1.748972044388483082e+00 -5.743748743612896668e+00 -1.748972044388483082e+00 -7.148070981452362638e+00
3.640815442820287018e+01 -1.632517592493380798e+00 -5.690270111776626116e+00 -1.632517592493380798e+00 3.564356068633666297e+01 -1.560780528686797952e+00 -5.690270111776626116e+00 -1.560780528686797952e+00 -7.025343479033871574e+00
3.650827792175216757e+01 -1.646220177714863064e+00 -5.620110071844639066e+00 -1.646220177714863064e+00 3.568913667631245801e+01 -1.370538881948138998e+00 -5.620110071844639066e+00 -1.370538881948138998e+00 -6.877138279796919385e+00
3.661830162073641759e+01 -1.657592272099443376e+00 -5.532795516654555712e+00 -1.657592272099443376e+00 3.574804727927234183e+01 -1.178439851534957006e+00 -5.532795516654555712e+00 -1.178439851534957006e+00 -6.706381639153258689e+00
3.673671859123101768e+01 -1.666423605797175966e+00 -5.427800771581511086e+00 -1.666423605797175966e+00 3.581897830865413113e+01 -9.846060948597202822e-01 -5.427800771581511086e+00 -9.846060948597202822e-01 -6.516227604852077526e+00
3.686179410697390324e+01 -1.672591521395592640e+00 -5.304582639513144571e+00 -1.672591521395592640e+00 3.590030017312075472e+01 -7.889850444599424417e-01 -5.304582639513144571e+00 -7.889850444599424417e-01 -6.309952882055034351e+00
3.226489478148808843e+01 -1.035372895835014262e+01 -1.447766005165483039e+00 -1.035372895835014262e+01 3.820064318051319674e+01 -9.009930380811834727e-01 -1.447766005165483039e+00 -9.009930380811834727e-01 2.268398746843222114e+01
3.238708043450867535e+01 -1.042204295347387166e+01 -1.445434350721626737e+00 -1.042204295347387166e+01 3.798588736599024429e+01 -8.754492416365489138e-01 -1.445434350721626737e+00 -8.754492416365489138e-01 2.255423263867225003e+01
3.248664555934259823e+01 -1.047570580649516181e+01 -1.426815915983371097e+00 -1.047570580649516181e+01 3.774591836274232293e+01 -8.456423456490427260e-01 -1.426815915983371097e+00 -8.456423456490427260e-01 2.234692419804461139e+01
3.256165871089083907e+01 -1.051450871253844177e+01 -1.391858499731824406e+00 -1.051450871253844177e+01 3.748183239636615838e+01 -8.118681570257214597e-01 -1.391858499731824406e+00 -8.118681570257214597e-01 2.206251455711303322e+01
3.260991003755363238e+01 -1.053838206997852289e+01 -1.340318496278821714e+00 -1.053838206997852289e+01 3.719451688758290686e+01 -7.745094847051284814e-01 -1.340318496278821714e+00 -7.745094847051284814e-01 2.170079491100195668e+01
3.262898088285562181e+01 -1.054743028125318993e+01 -1.271969700342497234e+00 -1.054743028125318993e+01 3.688473745426966843e+01 -7.340013388446998688e-01 -1.271969700342497234e+00 -7.340013388446998688e-01 2.126133024955393935e+01
3.261646999072776509e+01 -1.054194915326949733e+01 -1.186516305015794082e+00 -1.054194915326949733e+01 3.655308571024055908e+01 -6.908135304144662481e-01 -1.186516305015794082e+00 -6.908135304144662481e-01 2.074304174757854113e+01
3.256955849534988090e+01 -1.052249549902896497e+01 -1.083679903797953203e+00 -1.052249549902896497e+01 3.619938765143260184e+01 -6.454332707907557420e-01 -1.083679903797953203e+00 -6.454332707907557420e-01 2.014498978313570277e+01
3.248561893537105050e+01 -1.048967833275200334e+01 -9.631298889693236109e-01 -1.048967833275200334e+01 3.582352147500170503e+01 -5.983651717561941918e-01 -9.631298889693236109e-01 -5.983651717561941918e-01 1.946545171600197222e+01
3.236184984537739950e+01 -1.044424587190940024e+01 -8.243964495598745668e-01 -1.044424587190940024e+01 3.542513917282192892e+01 -5.499920422493249639e-01 -8.243964495598745668e-01 -5.499920422493249639e-01 1.870239169864055739e+01
1.300999081584224015e+01 -1.176370886529199744e+00 -5.548747721817623990e+00 -1.176370886529199744e+00 -7.057795758105944728e+00 -2.236831877871437335e+00 -5.548747721817623990e+00 -2.236831877871437335e+00 3.414376897989930626e+01
1.314213453977141732e+01 -1.228920524001238412e+00 -5.394248923909368720e+00 -1.228920524001238412e+00 -7.017488611107637553e+00 -2.206082464664025355e+00 -5.394248923909368720e+00 -2.206082464664025355e+00 3.433755471726638575e+01
1.322165703271700998e+01 -1.280718429602082820e+00 -5.203094248091463925e+00 -1.280718429602082820e+00 -7.007358129224404486e+00 -2.173006262331488525e+00 -5.203094248091463925e+00 -2.173006262331488525e+00 3.441079487957415495e+01
1.324696533904720930e+01 -1.331245550373051589e+00 -4.975820645700474110e+00 -1.331245550373051589e+00 -7.028460316751493409e+00 -2.137656966007484449e+00 -4.975820645700474110e+00 -2.137656966007484449e+00 3.436012457178009782e+01
1.321680657231002165e+01 -1.379839646332378766e+00 -4.713358832386450814e+00 -1.379839646332378766e+00 -7.081439515292784925e+00 -2.099962982180470394e+00 -4.713358832386450814e+00 -2.099962982180470394e+00 3.418395083825241443e+01
1.313012472821019827e+01 -1.425802680742527029e+00 -4.416836405956184208e+00 -1.425802680742527029e+00 -7.167154846986788286e+00 -2.059906412472560788e+00 -4.416836405956184208e+00 -2.059906412472560788e+00 3.388105658929488584e+01
1.298616807487654334e+01 -1.468508210377501122e+00 -4.087452557728008529e+00 -1.468508210377501122e+00 -7.286411738838352470e+00 -2.017236679593358506e+00 -4.087452557728008529e+00 -2.017236679593358506e+00 3.345103016221613501e+01
1.278427437232729602e+01 -1.507347690389191586e+00 -3.726621259554883103e+00 -1.507347690389191586e+00 -7.440140906497528128e+00 -1.971792698141891620e+00 -3.726621259554883103e+00 -1.971792698141891620e+00 3.289324511379018645e+01
1.252401405949319724e+01 -1.541676779173718037e+00 -3.335792280045539293e+00 -1.541676779173718037e+00 -7.629452049393218971e+00 -1.923234398938335588e+00 -3.335792280045539293e+00 -1.923234398938335588e+00 3.220764774888336035e+01
1.220515445746173810e+01 -1.570904830260856810e+00 -2.916469082942365620e+00 -1.570904830260856810e+00 -7.855454866954332260e+00 -1.871293306314406379e+00 -2.916469082942365620e+00 -1.871293306314406379e+00 3.139404118533892429e+01
1.822505710547136282e+00 -2.017809338406408859e+00 1.602421328338091655e+01 -2.017809338406408859e+00 -8.814568831487484601e+00 -1.798702112405079490e+01 1.602421328338091655e+01 -1.798702112405079490e+01 -1.011641071195333197e+01
1.881317388272704560e+00 -2.062346514067773473e+00 1.580865554084306268e+01 -2.062346514067773473e+00 -8.765984478995655138e+00 -1.777563817202725005e+01 1.580865554084306268e+01 -1.777563817202725005e+01 -9.970238352373790747e+00
1.955351555428170407e+00 -2.100229547643015948e+00 1.557105709205281663e+01 -2.100229547643015948e+00 -8.691859159208872754e+00 -1.753142204220340616e+01 1.557105709205281663e+01 -1.753142204220340616e+01 -9.776302013984267347e+00
2.045191588853961129e+00 -2.131221442290711643e+00 1.531138147595765275e+01 -2.131221442290711643e+00 -8.591573034234182060e+00 -1.725450034826311807e+01 1.531138147595765275e+01 -1.725450034826311807e+01 -9.536789359936372890e+00
2.149780118026801912e+00 -2.155249275905807504e+00 1.503010268624042034e+01 -2.155249275905807504e+00 -8.466238166173647883e+00 -1.694523770073164215e+01 1.503010268624042034e+01 -1.694523770073164215e+01 -9.253906283907964436e+00
2.268260308212316279e+00 -2.172294817962039826e+00 1.472789525237286057e+01 -2.172294817962039826e+00 -8.316857233971754582e+00 -1.660418101539688251e+01 1.472789525237286057e+01 -1.660418101539688251e+01 -8.929658143788014257e+00
2.399465405729648726e+00 -2.182412760038199284e+00 1.440547016487924736e+01 -2.182412760038199284e+00 -8.144833988150780968e+00 -1.623176782488916103e+01 1.440547016487924736e+01 -1.623176782488916103e+01 -8.566724826937235804e+00
2.542228656897945527e+00 -2.185748946344392429e+00 1.406359310586263867e+01 -2.185748946344392429e+00 -7.951572179233003190e+00 -1.582861796710143132e+01 1.406359310586263867e+01 -1.582861796710143132e+01 -8.167312227033491467e+00
2.695018697511085026e+00 -2.182540373722042570e+00 1.370315737110993837e+01 -2.182540373722042570e+00 -7.739004243002337802e+00 -1.539522366624280458e+01 1.370315737110993837e+01 -1.539522366624280458e+01 -7.735084679855718015e+00
2.856595851783159112e+00 -2.173042269538837168e+00 1.332505625640805036e+01 -2.173042269538837168e+00 -7.508752696296223661e+00 -1.493211360757491413e+01 1.332505625640805036e+01 -1.493211360757491413e+01 -7.272357462239359194e+00
-3.449130978439944784e+01 1.235552880595545311e+01 -9.636242191968150905e+00 1.235552880595545311e+01 9.811030521220938994e+00 2.381802113010266453e+00 -9.636242191968150905e+00 2.381802113010266453e+00 -4.167789632810117695e+01
-3.438950161940108785e+01 1.236604211035046674e+01 -9.788165012898922157e+00 1.236604211035046674e+01 9.869188040762965741e+00 2.354107171573931900e+00 -9.788165012898922157e+00 2.354107171573931900e+00 -4.143553308473343577e+01
-3.422398208677923748e+01 1.237193030380138303e+01 -9.927234111848509457e+00 1.237193030380138303e+01 9.961040143648730805e+00 2.322845879530101243e+00 -9.927234111848509457e+00 2.322845879530101243e+00 -4.105891160078768820e+01
-3.399430539270795748e+01 1.237321196105095389e+01 -1.005354236253065281e+01 1.237321196105095389e+01 1.008684687627669518e+01 2.288296858019985613e+00 -1.005354236253065281e+01 2.288296858019985613e+00 -4.054931353351347667e+01
-3.370153029752385265e+01 1.236986850735642562e+01 -1.016699689123161221e+01 1.236986850735642562e+01 1.024553090356750928e+01 2.250943050355016517e+00 -1.016699689123161221e+01 2.250943050355016517e+00 -3.990915359946798446e+01
-3.334617689402384144e+01 1.236184421848956028e+01 -1.026735622629567501e+01 1.236184421848956028e+01 1.043662785695249262e+01 2.211211675618383943e+00 -1.026735622629567501e+01 2.211211675618383943e+00 -3.914121801006329804e+01
-3.293026982916739342e+01 1.234912051970760949e+01 -1.035439747080986805e+01 1.234912051970760949e+01 1.065776016935997994e+01 2.169474228665034587e+00 -1.035439747080986805e+01 2.169474228665034587e+00 -3.824859017259549887e+01
-3.245523935814605210e+01 1.233175313523881478e+01 -1.042776770466199565e+01 1.233175313523881478e+01 1.090764618354040216e+01 2.126232227549147868e+00 -1.042776770466199565e+01 2.126232227549147868e+00 -3.723611809492164326e+01
-3.192285008152082071e+01 1.230964919136943969e+01 -1.048700255928337022e+01 1.230964919136943969e+01 1.118450272419000946e+01 2.081857167125671815e+00 -1.048700255928337022e+01 2.081857167125671815e+00 -3.610859406067054778e+01
-3.133542384213512122e+01 1.228293871129871562e+01 -1.053163766610531127e+01 1.228293871129871562e+01 1.148621227063560468e+01 2.036739116992300591e+00 -1.053163766610531127e+01 2.036739116992300591e+00 -3.487144189472445532e+01
1.852557787834769698e+01 -3.640088531333365740e+00 2.238473277804776629e+01 -3.640088531333365740e+00 -2.103104777609088671e+01 -2.347079593518112794e+00 2.238473277804776629e+01 -2.347079593518112794e+00 -2.602061658062169158e+01
1.817559819412737099e+01 -3.601057679588151039e+00 2.209111474063329439e+01 -3.601057679588151039e+00 -2.123686010815066894e+01 -2.366384782952748456e+00 2.209111474063329439e+01 -2.366384782952748456e+00 -2.681381123894552942e+01
1.785468598263533124e+01 -3.558242571959441936e+00 2.177058643915842140e+01 -3.558242571959441936e+00 -2.138797440347897805e+01 -2.385123248076329361e+00 2.177058643915842140e+01 -2.385123248076329361e+00 -2.750316737834064540e+01
1.756450485394596228e+01 -3.512136807040738606e+00 2.142406194509258910e+01 -3.512136807040738606e+00 -2.148386050062354968e+01 -2.403770306052966266e+00 2.142406194509258910e+01 -2.403770306052966266e+00 -2.808371245001326244e+01
1.730593231666993503e+01 -3.463142576278595008e+00 2.105240048561707411e+01 -3.463142576278595008e+00 -2.152484746531337123e+01 -2.422380801170825215e+00 2.105240048561707411e+01 -2.422380801170825215e+00 -2.855303330528406747e+01
1.707942540654196506e+01 -3.411570663972622430e+00 2.065649785077193457e+01 -3.411570663972622430e+00 -2.151173968044155771e+01 -2.441100984865017587e+00 2.065649785077193457e+01 -2.441100984865017587e+00 -2.890990508838399009e+01
1.688518521928533644e+01 -3.357768417281209228e+00 2.023690248343883269e+01 -3.357768417281209228e+00 -2.144556090605388832e+01 -2.459839449988598048e+00 2.023690248343883269e+01 -2.459839449988598048e+00 -2.915440092503059688e+01
1.672304722203554306e+01 -3.302010057645187846e+00 1.979405313792310039e+01 -3.302010057645187846e+00 -2.132762740506635524e+01 -2.478504789394623931e+00 1.979405313792310039e+01 -2.478504789394623931e+00 -2.928663050380021815e+01
1.659271891192236126e+01 -3.244569806505391618e+00 1.932816919137740541e+01 -3.244569806505391618e+00 -2.115943825468884754e+01 -2.496859344501038969e+00 1.932816919137740541e+01 -2.496859344501038969e+00 -2.930723367472146279e+01
1.649379809749924064e+01 -3.185685322443875034e+00 1.883937861380746881e+01 -3.185685322443875034e+00 -2.094245596927247632e+01 -2.514574049578843340e+00 1.883937861380746881e+01 -2.514574049578843340e+00 -2.921717935355194129e+01
-1.463759726509985981e+01 5.022908041072815521e+00 2.115894390991573104e+01 5.022908041072815521e+00 -1.682080362220038694e+01 3.710064831535224428e-02 2.115894390991573104e+01 3.710064831535224428e-02 -5.878084435425694032e+00
-1.471012138388819146e+01 4.948835758122293704e+00 2.123119157081795549e+01 4.948835758122293704e+00 -1.683855221848835626e+01 2.536224647131457011e-01 2.123119157081795549e+01 2.536224647131457011e-01 -6.024312226649740865e+00
-1.476666623685962598e+01 4.869308039552624479e+00 2.127730474622034507e+01 4.869308039552624479e+00 -1.683801773324188744e+01 4.665134675400874897e-01 2.127730474622034507e+01 4.665134675400874897e-01 -6.130214027553870793e+00
-1.480601540931530202e+01 4.784767217981575449e+00 2.129743088032882170e+01 4.784767217981575449e+00 -1.681861038963728561e+01 6.760316841565426893e-01 2.129743088032882170e+01 6.760316841565426893e-01 -6.195660824457902116e+00
-1.482833477598688177e+01 4.695729348129878744e+00 2.129171741734931089e+01 4.695729348129878744e+00 -1.678066193713787513e+01 8.821586840367710014e-01 2.129171741734931089e+01 8.821586840367710014e-01 -6.220726339464797583e+00
-1.483382707265751144e+01 4.602728915244003183e+00 2.126021964885902804e+01 4.602728915244003183e+00 -1.672468843046439346e+01 1.085115633489656561e+00 2.126021964885902804e+01 1.085115633489656561e+00 -6.205797613615102293e+00
-1.482326638140828479e+01 4.506337265621900734e+00 2.120302972748667969e+01 4.506337265621900734e+00 -1.665181413168699365e+01 1.285031546195382290e+00 2.120302972748667969e+01 1.285031546195382290e+00 -6.152496533173970938e+00
-1.479735306221733104e+01 4.407125745561522479e+00 2.112031352796392625e+01 4.407125745561522479e+00 -1.656288684498973751e+01 1.482256602143014801e+00 2.112031352796392625e+01 1.482256602143014801e+00 -6.061910499160082288e+00
-1.475702707189741680e+01 4.305591979257858526e+00 2.101201575871354876e+01 4.305591979257858526e+00 -1.645915984612296867e+01 1.677048828692919491e+00 2.101201575871354876e+01 1.677048828692919491e+00 -5.936103730456359528e+00
-1.470339424199295664e+01 4.202288882483118826e+00 2.087819171131276619e+01 4.202288882483118826e+00 -1.634190484136277632e+01 1.869868988988605318e+00 2.087819171131276619e+01 1.869868988988605318e+00 -5.777066723842760432e+00
4.187751683645869605e+01 -4.488495538820276742e+00 -1.272569169990108939e+01 -4.488495538820276742e+00 1.560374124555689690e+01 -3.750010581150469147e+00 -1.272569169990108939e+01 -3.750010581150469147e+00 3.292373823034774460e+01
4.190420506557625657e+01 -4.506503107027215904e+00 -1.275934891031308993e+01 -4.506503107027215904e+00 1.563404496121066956e+01 -3.676862476736639351e+00 -1.275934891031308993e+01 -3.676862476736639351e+00 3.299784697128085753e+01
4.187044305845306269e+01 -4.517541693939713277e+00 -1.273987418814942707e+01 -4.517541693939713277e+00 1.563781764281367437e+01 -3.596623128198641606e+00 -1.273987418814942707e+01 -3.596623128198641606e+00 3.294405132620096310e+01
4.177532257692542572e+01 -4.521960621928418966e+00 -1.266745966071395735e+01 -4.521960621928418966e+00 1.561388906042424018e+01 -3.508663755269307849e+00 -1.266745966071395735e+01 -3.508663755269307849e+00 3.276041255595096402e+01
4.161847683250417873e+01 -4.520179077838110793e+00 -1.254261184544412622e+01 -4.520179077838110793e+00 1.556094925515243510e+01 -3.412442908274133213e+00 -1.254261184544412622e+01 -3.412442908274133213e+00 3.244570803223358268e+01
4.139955650281866184e+01 -4.512598782395034647e+00 -1.236608178543682435e+01 -4.512598782395034647e+00 1.547740881021180925e+01 -3.307419137538612830e+00 -1.236608178543682435e+01 -3.307419137538612830e+00 3.199953603432257765e+01
4.111878864740980077e+01 -4.499638922443969236e+00 -1.213879518497427057e+01 -4.499638922443969236e+00 1.536199269894949104e+01 -3.192998595032642495e+00 -1.213879518497427057e+01 -3.192998595032642495e+00 3.142077873063186999e+01
4.077591127449959885e+01 -4.481806015422354683e+00 -1.186197467235373715e+01 -4.481806015422354683e+00 1.521246525819332973e+01 -3.068884356741172326e+00 -1.186197467235373715e+01 -3.068884356741172326e+00 3.070980290965064441e+01
4.037167542718496804e+01 -4.459484315937904952e+00 -1.153682540975396087e+01 -4.459484315937904952e+00 1.502751652905339341e+01 -2.934552439108228938e+00 -1.153682540975396087e+01 -2.934552439108228938e+00 2.986482702728859095e+01
3.990618590217709283e+01 -4.433197807546592983e+00 -1.116491934784286144e+01 -4.433197807546592983e+00 1.480464885657954710e+01 -2.789863113185552468e+00 -1.116491934784286144e+01 -2.789863113185552468e+00 2.888730077138390229e+01
3.557615062943789042e+01 9.231091027401664206e+00 2.366214891735207715e+01 9.231091027401664206e+00 1.903765674968895283e+01 -8.793930552285321056e+00 2.366214891735207715e+01 -8.793930552285321056e+00 3.544902410415374305e+01
3.558576259230539307e+01 9.322360904320303732e+00 2.346253873765719788e+01 9.322360904320303732e+00 1.909683422599530189e+01 -8.695990078185403149e+00 2.346253873765719788e+01 -8.695990078185403149e+00 3.549386242273970993e+01
3.554321783862953055e+01 9.400096997456456549e+00 2.322570627552820710e+01 9.400096997456456549e+00 1.912969698428732102e+01 -8.579911182353717081e+00 2.322570627552820710e+01 -8.579911182353717081e+00 3.542195653658876608e+01
3.544639788479103260e+01 9.463651506033984973e+00 2.295277205122652475e+01 9.463651506033984973e+00 1.913311106945883822e+01 -8.445833929822940789e+00 2.295277205122652475e+01 -8.445833929822940789e+00 3.522838666142811803e+01
3.529525020640265609e+01 9.512289088631334266e+00 2.264497914191716532e+01 9.512289088631334266e+00 1.910607851815203162e+01 -8.293863369367580063e+00 2.264497914191716532e+01 -8.293863369367580063e+00 3.491294269970873643e+01
3.508938962462453048e+01 9.545519517634129869e+00 2.230371068979782834e+01 9.545519517634129869e+00 1.904702359874927708e+01 -8.124192090407571953e+00 2.230371068979782834e+01 -8.124192090407571953e+00 3.447529199697802227e+01
3.482843096061679944e+01 9.562922597944341518e+00 2.193041986958253631e+01 9.562922597944341518e+00 1.895403792518033725e+01 -7.936977666104672480e+00 2.193041986958253631e+01 -7.936977666104672480e+00 3.391499685000884767e+01
3.451188398676507774e+01 9.564270723883865344e+00 2.152654234785624254e+01 9.564270723883865344e+00 1.882516058698772099e+01 -7.732412685878817804e+00 2.152654234785624254e+01 -7.732412685878817804e+00 3.323055155969993990e+01
3.413948608113311423e+01 9.549476354807277190e+00 2.109361883997840081e+01 9.549476354807277190e+00 1.865829060868126277e+01 -7.510724755408108244e+00 2.109361883997840081e+01 -7.510724755408108244e+00 3.242223625611663351e+01
3.371109717868820610e+01 9.518609523230917802e+00 2.063312002879212415e+01 9.518609523230917802e+00 1.845150209606164893e+01 -7.272194004757897901e+00 2.063312002879212415e+01 -7.272194004757897901e+00 3.148971828480634017e+01
-3.880366896986124203e+01 8.857130043951986664e+00 -8.325622246591551701e+00 8.857130043951986664e+00 -4.160188439152704376e+01 -1.579185356203208457e+01 -8.325622246591551701e+00 -1.579185356203208457e+01 -2.954151802320482645e+01
-3.882711504233851230e+01 8.749899021980395375e+00 -8.289300832932612551e+00 8.749899021980395375e+00 -4.164342450856435107e+01 -1.569679316582245399e+01 -8.289300832932612551e+00 -1.569679316582245399e+01 -2.964324464635762624e+01
-3.881393495935372329e+01 8.634173322246931903e+00 -8.231114194900069236e+00 8.634173322246931903e+00 -4.164174842864721171e+01 -1.557781053806818505e+01 -8.231114194900069236e+00 -1.557781053806818505e+01 -2.964050197012958066e+01
-3.876329068094831598e+01 8.510486242907052912e+00 -8.151633723374766660e+00 8.510486242907052912e+00 -4.159605620454244246e+01 -1.543524851329777903e+01 -8.151633723374766660e+00 -1.543524851329777903e+01 -2.953365187541188419e+01
-3.867562027346425424e+01 8.379352035753514727e+00 -8.051449855600241179e+00 8.379352035753514727e+00 -4.150697636621897146e+01 -1.526931660150088810e+01 -8.051449855600241179e+00 -1.526931660150088810e+01 -2.932347526307502150e+01
-3.855178082322281341e+01 8.241513508931415544e+00 -7.931305399721589211e+00 8.241513508931415544e+00 -4.137567074180117999e+01 -1.508026240539253315e+01 -7.931305399721589211e+00 -1.508026240539253315e+01 -2.901181963030039057e+01
-3.839276274108412679e+01 8.097656331497768534e+00 -7.791866978433129809e+00 8.097656331497768534e+00 -4.120339639122692432e+01 -1.486829543496236461e+01 -7.791866978433129809e+00 -1.486829543496236461e+01 -2.860081816970980739e+01
-3.819965166972178139e+01 7.948523311597668339e+00 -7.633972631693430877e+00 7.948523311597668339e+00 -4.099184844077604595e+01 -1.463358710747463043e+01 -7.633972631693430877e+00 -1.463358710747463043e+01 -2.809277549118933237e+01
-3.797357134453478267e+01 7.794895350101599618e+00 -7.458384214010284730e+00 7.794895350101599618e+00 -4.074256964582680496e+01 -1.437621360838011420e+01 -7.458384214010284730e+00 -1.437621360838011420e+01 -2.748965337009653709e+01