 vasp.6.1.1 19Jun20 (build Dec 21 2021 08:45:49) complex                        
  
 executed on             LinuxIFC date 2023.10.05  07:44:13
 running on   40 total cores
 distrk:  each k-point on   40 cores,    1 groups
 distr:  one band on NCORE=   1 cores,   40 groups


--------------------------------------------------------------------------------------------------------


 INCAR:
 POTCAR:   PAW_PBE Te 08Apr2002                   
 POTCAR:   PAW_PBE Mo 08Apr2002                   
 -----------------------------------------------------------------------------
|                                                                             |
|           W    W    AA    RRRRR   N    N  II  N    N   GGGG   !!!           |
|           W    W   A  A   R    R  NN   N  II  NN   N  G    G  !!!           |
|           W    W  A    A  R    R  N N  N  II  N N  N  G       !!!           |
|           W WW W  AAAAAA  RRRRR   N  N N  II  N  N N  G  GGG   !            |
|           WW  WW  A    A  R   R   N   NN  II  N   NN  G    G                |
|           W    W  A    A  R    R  N    N  II  N    N   GGGG   !!!           |
|                                                                             |
|     For optimal performance we recommend to set                             |
|       NCORE = 4 - approx SQRT(number of cores).                             |
|     NCORE specifies how many cores store one orbital (NPAR=cpu/NCORE).      |
|     This setting can greatly improve the performance of VASP for DFT.       |
|     The default, NCORE=1 might be grossly inefficient on modern             |
|     multi-core architectures or massively parallel machines. Do your        |
|     own testing!!!!                                                         |
|     Unfortunately you need to use the default for GW and RPA                |
|     calculations (for HF NCORE is supported but not extensively tested      |
|     yet).                                                                   |
|                                                                             |
 -----------------------------------------------------------------------------

 POTCAR:   PAW_PBE Te 08Apr2002                   
   VRHFIN =Te: s2p4                                                                                 
   LEXCH  = PE                                                                                      
   EATOM  =   223.2721 eV,   16.4100 Ry                                                             
                                                                                                    
   TITEL  = PAW_PBE Te 08Apr2002                                                                    
   LULTRA =        F    use ultrasoft PP ?                                                          
   IUNSCR =        1    unscreen: 0-lin 1-nonlin 2-no                                               
   RPACOR =    2.200    partial core radius                                                         
   POMASS =  127.600; ZVAL   =    6.000    mass and valenz                                          
   RCORE  =    2.300    outmost cutoff radius                                                       
   RWIGS  =    2.900; RWIGS  =    1.535    wigner-seitz radius (au A)                               
   ENMAX  =  174.982; ENMIN  =  131.236 eV                                                          
   ICORE  =        3    local potential                                                             
   LCOR   =        T    correct aug charges                                                         
   LPAW   =        T    paw PP                                                                      
   EAUG   =  368.792                                                                                
   DEXC   =    -.169                                                                                
   RMAX   =    3.486    core radius for proj-oper                                                   
   RAUG   =    1.300    factor for augmentation sphere                                              
   RDEP   =    2.397    radius for radial grids                                                     
   QCUT   =   -3.586; QGAM   =    7.172    optimization parameters                                  
                                                                                                    
   Description                                                                                      
     l     E      TYP  RCUT    TYP  RCUT                                                            
     0   .000     23  2.300                                                                         
     0   .000     23  2.300                                                                         
     1   .000     23  2.300                                                                         
     1   .000     23  2.300                                                                         
     2   .000     23  2.300                                                                         
     3  -.100     23  2.300                                                                         
  local pseudopotential read in
  partial core-charges read in
  atomic valenz-charges read in
  non local Contribution for L=           0  read in
    real space projection operators read in
  non local Contribution for L=           0  read in
    real space projection operators read in
  non local Contribution for L=           1  read in
    real space projection operators read in
  non local Contribution for L=           1  read in
    real space projection operators read in
  non local Contribution for L=           2  read in
    real space projection operators read in
    PAW grid and wavefunctions read in
 
   number of l-projection  operators is LMAX  =           5
   number of lm-projection operators is LMMAX =          13
 
 POTCAR:   PAW_PBE Mo 08Apr2002                   
   VRHFIN =Mo: 4p5s4d                                                                               
   LEXCH  = PE                                                                                      
   EATOM  =   217.5180 eV,   15.9871 Ry                                                             
                                                                                                    
   TITEL  = PAW_PBE Mo 08Apr2002                                                                    
   LULTRA =        F    use ultrasoft PP ?                                                          
   IUNSCR =        1    unscreen: 0-lin 1-nonlin 2-no                                               
   RPACOR =    2.200    partial core radius                                                         
   POMASS =   95.940; ZVAL   =    6.000    mass and valenz                                          
   RCORE  =    2.750    outmost cutoff radius                                                       
   RWIGS  =    2.750; RWIGS  =    1.455    wigner-seitz radius (au A)                               
   ENMAX  =  224.584; ENMIN  =  168.438 eV                                                          
   RCLOC  =    2.111    cutoff for local pot                                                        
   LCOR   =        T    correct aug charges                                                         
   LPAW   =        T    paw PP                                                                      
   EAUG   =  345.278                                                                                
   DEXC   =    -.088                                                                                
   RMAX   =    3.077    core radius for proj-oper                                                   
   RAUG   =    1.300    factor for augmentation sphere                                              
   RDEP   =    2.815    radius for radial grids                                                     
   QCUT   =   -4.063; QGAM   =    8.126    optimization parameters                                  
                                                                                                    
   Description                                                                                      
     l     E      TYP  RCUT    TYP  RCUT                                                            
     2   .000     23  2.500                                                                         
     2   .000     23  2.500                                                                         
     0   .000     23  2.600                                                                         
     0  1.000     23  2.600                                                                         
     1   .400     23  2.750                                                                         
     1  2.000     23  2.750                                                                         
     3   .000      7   .000                                                                         
  local pseudopotential read in
  partial core-charges read in
  atomic valenz-charges read in
  non local Contribution for L=           2  read in
    real space projection operators read in
  non local Contribution for L=           2  read in
    real space projection operators read in
  non local Contribution for L=           0  read in
    real space projection operators read in
  non local Contribution for L=           0  read in
    real space projection operators read in
  non local Contribution for L=           1  read in
    real space projection operators read in
  non local Contribution for L=           1  read in
    real space projection operators read in
    PAW grid and wavefunctions read in
 
   number of l-projection  operators is LMAX  =           6
   number of lm-projection operators is LMMAX =          18
 
 -----------------------------------------------------------------------------
|                                                                             |
|               ----> ADVICE to this user running VASP <----                  |
|                                                                             |
|     You have a (more or less) 'large supercell' and for larger cells it     |
|     might be more efficient to use real-space projection operators.         |
|     Therefore, try LREAL= Auto in the INCAR file.                           |
|     Mind: If you want to do very accurate calculations, keep the            |
|     reciprocal projection scheme (i.e. LREAL=.FALSE.).                      |
|                                                                             |
 -----------------------------------------------------------------------------

 PAW_PBE Te 08Apr2002                   :
 energy of atom  1       EATOM= -223.2721
 kinetic energy error for atom=    0.0006 (will be added to EATOM!!)
 PAW_PBE Mo 08Apr2002                   :
 energy of atom  2       EATOM= -217.5180
 kinetic energy error for atom=    0.0009 (will be added to EATOM!!)
 
 
 POSCAR: Te Mo
  positions in cartesian coordinates
  No initial velocities read in
 exchange correlation table for  LEXCH =        8
   RHO(1)=    0.500       N(1)  =     2000
   RHO(2)=  100.500       N(2)  =     4000
 


--------------------------------------------------------------------------------------------------------


 ion  position               nearest neighbor table
   1  0.112  0.222  0.321-  37 2.72  41 2.73  38 2.79   5 3.43   9 3.45   3 3.52   2 3.53   4 3.58
                             7 3.60
   2  0.111  0.556  0.320-  38 2.72  42 2.75  39 2.79   6 3.44   7 3.44   3 3.53   1 3.53   8 3.59
                             5 3.59
   3  0.111  0.889  0.321-  39 2.72  40 2.74  37 2.79   4 3.44   8 3.44   1 3.52   2 3.53   9 3.59
                             6 3.60
   4  0.444  0.222  0.321-  40 2.71  44 2.74  41 2.79   3 3.44   8 3.45   5 3.52   6 3.52   1 3.58
                             7 3.60
   5  0.444  0.555  0.320-  41 2.71  45 2.75  42 2.80   1 3.43   9 3.45   4 3.52   6 3.53   2 3.59
                             8 3.59
   6  0.444  0.889  0.320-  42 2.72  43 2.74  40 2.79   7 3.44   2 3.44   4 3.52   5 3.53   9 3.59
                             3 3.60
   7  0.778  0.222  0.320-  43 2.73  38 2.74  44 2.79   6 3.44   2 3.44   8 3.52   9 3.53   1 3.60
                             4 3.60
   8  0.778  0.555  0.321-  44 2.72  39 2.74  45 2.79   3 3.44   4 3.45   7 3.52   9 3.52   2 3.59
                             5 3.59
   9  0.778  0.889  0.321-  45 2.72  37 2.74  43 2.80   1 3.45   5 3.45   8 3.52   7 3.53   3 3.59
                             6 3.59
  10  0.112  0.056  0.559-  48 2.72  49 2.74  46 2.80  14 3.44  18 3.45  12 3.52  11 3.52  13 3.59
                            16 3.60
  11  0.111  0.389  0.559-  46 2.72  50 2.74  47 2.80  16 3.44  15 3.44  12 3.52  10 3.52  14 3.59
                            17 3.60
  12  0.112  0.723  0.559-  47 2.72  51 2.73  48 2.80  13 3.43  17 3.45  11 3.52  10 3.52  15 3.59
                            18 3.60
  13  0.444  0.055  0.559-  51 2.72  52 2.75  49 2.79  12 3.43  17 3.45  14 3.52  15 3.52  10 3.59
                            16 3.59
  14  0.444  0.389  0.559-  49 2.73  53 2.74  50 2.79  10 3.44  18 3.44  13 3.52  15 3.53  17 3.59
                            11 3.59
  15  0.445  0.722  0.559-  50 2.72  54 2.75  51 2.80  11 3.44  16 3.45  13 3.52  14 3.53  12 3.59
                            18 3.59
  16  0.778  0.056  0.559-  54 2.72  46 2.74  52 2.79  11 3.44  15 3.45  17 3.53  18 3.53  13 3.59
                            10 3.60
  17  0.777  0.389  0.558-  52 2.73  47 2.75  53 2.79  13 3.45  12 3.45  18 3.52  16 3.53  14 3.59
                            11 3.60
  18  0.778  0.722  0.559-  53 2.72  48 2.74  54 2.80  14 3.44  10 3.45  17 3.52  16 3.53  15 3.59
                            12 3.60
  19  0.111  0.222  0.441-  37 2.72  41 2.76  38 2.77  27 3.44  23 3.45  20 3.52  21 3.53  25 3.59
                            22 3.59
  20  0.111  0.555  0.441-  38 2.72  42 2.76  39 2.77  25 3.44  24 3.45  19 3.52  21 3.52  23 3.60
                            26 3.60
  21  0.112  0.889  0.442-  39 2.73  40 2.77  37 2.78  22 3.44  26 3.44  20 3.52  19 3.53  24 3.60
                            27 3.60
  22  0.444  0.222  0.441-  40 2.72  44 2.76  41 2.77  21 3.44  26 3.45  23 3.52  24 3.53  19 3.59
                            25 3.59
  23  0.445  0.556  0.441-  41 2.73  45 2.76  42 2.78  27 3.44  19 3.45  24 3.52  22 3.52  26 3.59
                            20 3.60
  24  0.445  0.889  0.441-  42 2.72  43 2.75  40 2.79  25 3.44  20 3.45  23 3.52  22 3.53  27 3.58
                            21 3.60
  25  0.778  0.223  0.441-  43 2.73  38 2.76  44 2.78  20 3.44  24 3.44  26 3.52  27 3.53  19 3.59
                            22 3.59
  26  0.778  0.556  0.441-  44 2.73  39 2.77  45 2.78  21 3.44  22 3.45  27 3.52  25 3.52  23 3.59
                            20 3.60
  27  0.778  0.889  0.441-  45 2.72  37 2.76  43 2.77  23 3.44  19 3.44  26 3.52  25 3.53  24 3.58
                            21 3.60
  28  0.111  0.055  0.679-  48 2.72  49 2.76  46 2.78  36 3.44  32 3.45  30 3.52  29 3.53  31 3.59
                            34 3.59
  29  0.112  0.389  0.680-  46 2.72  50 2.76  47 2.78  33 3.44  34 3.44  30 3.52  28 3.53  32 3.59
                            35 3.59
  30  0.111  0.722  0.680-  47 2.72  51 2.76  48 2.79  31 3.44  35 3.45  29 3.52  28 3.52  33 3.58
                            36 3.59
  31  0.444  0.055  0.679-  51 2.72  52 2.76  49 2.77  30 3.44  35 3.44  33 3.52  32 3.53  28 3.59
                            34 3.60
  32  0.445  0.390  0.679-  49 2.73  53 2.76  50 2.77  36 3.44  28 3.45  33 3.52  31 3.53  29 3.59
                            35 3.60
  33  0.444  0.722  0.680-  50 2.73  54 2.77  51 2.78  29 3.44  34 3.45  32 3.52  31 3.52  30 3.58
                            36 3.60
  34  0.778  0.056  0.679-  54 2.71  46 2.76  52 2.78  29 3.44  33 3.45  35 3.52  36 3.52  28 3.59
                            31 3.60
  35  0.778  0.388  0.680-  52 2.72  47 2.76  53 2.78  31 3.44  30 3.45  34 3.52  36 3.53  29 3.59
                            32 3.60
  36  0.778  0.723  0.679-  53 2.73  48 2.75  54 2.77  28 3.44  32 3.44  34 3.52  35 3.53  30 3.59
                            33 3.60
  37  0.000  0.000  0.381-   1 2.72  19 2.72   9 2.74  27 2.76  21 2.78   3 2.79  41 3.44  45 3.45

  38  1.000  0.333  0.381-   2 2.72  20 2.72   7 2.74  25 2.76  19 2.77   1 2.79  42 3.45  43 3.45

  39  0.001  0.666  0.381-   3 2.72  21 2.73   8 2.74  26 2.77  20 2.77   2 2.79  44 3.45  40 3.45

  40  0.334  0.001  0.381-   4 2.71  22 2.72   3 2.74  21 2.77  24 2.79   6 2.79  44 3.43  39 3.45

  41  0.333  0.333  0.381-   5 2.71  23 2.73   1 2.73  19 2.76  22 2.77   4 2.79  45 3.44  37 3.44

  42  0.334  0.667  0.381-   6 2.72  24 2.72   2 2.75  20 2.76  23 2.78   5 2.80  43 3.43  38 3.45

  43  0.666  0.999  0.381-   7 2.73  25 2.73   6 2.74  24 2.75  27 2.77   9 2.80  42 3.43  38 3.45

  44  0.667  0.333  0.381-   8 2.72  26 2.73   4 2.74  22 2.76  25 2.78   7 2.79  40 3.43  39 3.45

  45  0.667  0.667  0.381-  27 2.72   9 2.72   5 2.75  23 2.76  26 2.78   8 2.79  41 3.44  37 3.45

  46  0.000  0.167  0.619-  11 2.72  29 2.72  16 2.74  34 2.76  28 2.78  10 2.80  54 3.44  50 3.44

  47  0.000  0.501  0.619-  30 2.72  12 2.72  17 2.75  35 2.76  29 2.78  11 2.80  51 3.44  52 3.45

  48  1.000  0.833  0.619-  28 2.72  10 2.72  18 2.74  36 2.75  30 2.79  12 2.80  49 3.44  53 3.44

  49  0.333  0.166  0.619-  14 2.73  32 2.73  10 2.74  28 2.76  31 2.77  13 2.79  48 3.44  53 3.44

  50  0.333  0.500  0.619-  15 2.72  33 2.73  11 2.74  29 2.76  32 2.77  14 2.79  46 3.44  54 3.45

  51  0.333  0.834  0.619-  31 2.72  13 2.72  12 2.73  30 2.76  33 2.78  15 2.80  52 3.44  47 3.44

  52  0.667  0.167  0.619-  35 2.72  17 2.73  13 2.75  31 2.76  34 2.78  16 2.79  51 3.44  47 3.45

  53  0.667  0.499  0.619-  18 2.72  36 2.73  14 2.74  32 2.76  35 2.78  17 2.79  49 3.44  48 3.44

  54  0.667  0.834  0.619-  34 2.71  16 2.72  15 2.75  33 2.77  36 2.77  18 2.80  46 3.44  50 3.45

 

IMPORTANT INFORMATION: All symmetrisations will be switched off!
NOSYMM: (Re-)initialisation of all symmetry stuff for point group C_1.


----------------------------------------------------------------------------------------

                                     Primitive cell                                     

  volume of cell :    2964.3501

  direct lattice vectors                    reciprocal lattice vectors
    10.777469922  0.000000000  0.000000000     0.092786155  0.058270108  0.000705569
    -5.622362145  8.952744130  0.000000000     0.000000000  0.111697596 -0.000000312
    -0.233675306  0.000085728 30.722496553     0.000000000  0.000000000  0.032549438

  length of vectors
    10.777469922 10.571782420 30.723385208     0.109568125  0.111697596  0.032549438

  position of ions in fractional coordinates (direct lattice)
     0.111624368  0.222343681  0.320669708
     0.111068629  0.555555955  0.320456087
     0.110860187  0.888924436  0.320709090
     0.443612879  0.221801934  0.320618111
     0.443783578  0.554510390  0.320444046
     0.444444527  0.888886661  0.320461497
     0.777646356  0.222125514  0.320443431
     0.777692867  0.555304139  0.320550111
     0.777824779  0.888753158  0.320508442
     0.111683172  0.056037734  0.558572328
     0.111144952  0.389159189  0.558702550
     0.112056027  0.722936231  0.558808373
     0.444150808  0.055423083  0.558699157
     0.444478292  0.388777891  0.558647703
     0.444532054  0.722305990  0.558699682
     0.777886859  0.056069909  0.558722309
     0.777461464  0.389442775  0.558493136
     0.777692962  0.722219708  0.558696325
     0.110996553  0.222312954  0.441274622
     0.111151298  0.555471020  0.441374281
     0.111593908  0.888855459  0.441516414
     0.444202273  0.222116339  0.441277650
     0.444924538  0.555722597  0.441439038
     0.445328343  0.889137464  0.441398803
     0.777984345  0.222718250  0.441435097
     0.777671836  0.555910131  0.441487362
     0.777803442  0.888947639  0.441198330
     0.111105671  0.055064700  0.679366619
     0.111623090  0.388992727  0.679653721
     0.111381670  0.722030290  0.679729967
     0.444257555  0.055445570  0.679497870
     0.444586322  0.389621590  0.679448091
     0.444191431  0.722393794  0.679757194
     0.778373286  0.055556445  0.679494865
     0.777777936  0.388258722  0.679747430
     0.778494899  0.722591569  0.679323753
     0.000177210  0.000225620  0.380940061
     0.999987592  0.333416234  0.380874647
     0.000650426  0.666421576  0.380810427
     0.334105081  0.000808864  0.380737887
     0.333461923  0.333412161  0.380828012
     0.333790931  0.667082348  0.380924379
     0.665798623  0.999327196  0.380911561
     0.666586500  0.333308998  0.380872991
     0.666640427  0.666640379  0.380907165
     0.000000476  0.166666009  0.619108229
     0.000013963  0.500550680  0.619288778
     0.999605046  0.833485156  0.619027379
     0.333420756  0.166130962  0.619134399
     0.333372389  0.499925666  0.619058910
     0.333393680  0.833697419  0.619161245
     0.666747810  0.166847697  0.619163344
     0.666728224  0.499492444  0.618974576
     0.667282668  0.834235228  0.619269015

  ion indices of the primitive-cell ions
   primitive index   ion index
                 1           1
                 2           2
                 3           3
                 4           4
                 5           5
                 6           6
                 7           7
                 8           8
                 9           9
                10          10
                11          11
                12          12
                13          13
                14          14
                15          15
                16          16
                17          17
                18          18
                19          19
                20          20
                21          21
                22          22
                23          23
                24          24
                25          25
                26          26
                27          27
                28          28
                29          29
                30          30
                31          31
                32          32
                33          33
                34          34
                35          35
                36          36
                37          37
                38          38
                39          39
                40          40
                41          41
                42          42
                43          43
                44          44
                45          45
                46          46
                47          47
                48          48
                49          49
                50          50
                51          51
                52          52
                53          53
                54          54

----------------------------------------------------------------------------------------

 
 

Automatic generation of k-mesh.
 generate k-points for:    3    3    1
Space group operators:
 irot       det(A)        alpha          n_x          n_y          n_z        tau_x        tau_y        tau_z
    1     1.000000     0.000000     1.000000     0.000000     0.000000     0.000000     0.000000     0.000000
 
 Subroutine IBZKPT returns following result:
 ===========================================
 
 Found      5 irreducible k-points:
 
 Following reciprocal coordinates:
            Coordinates               Weight
  0.000000  0.000000  0.000000      1.000000
  0.333333 -0.000000  0.000000      2.000000
  0.000000  0.333333  0.000000      2.000000
  0.333333  0.333333 -0.000000      2.000000
 -0.333333  0.333333  0.000000      2.000000
 
 Following cartesian coordinates:
            Coordinates               Weight
  0.000000  0.000000  0.000000      1.000000
  0.030929  0.019423  0.000235      2.000000
  0.000000  0.037233 -0.000000      2.000000
  0.030929  0.056656  0.000235      2.000000
 -0.030929  0.017809 -0.000235      2.000000
 


--------------------------------------------------------------------------------------------------------




 Dimension of arrays:
   k-points           NKPTS =      5   k-points in BZ     NKDIM =      5   number of bands    NBANDS=    200
   number of dos      NEDOS =    301   number of ions     NIONS =     54
   non local maximal  LDIM  =      6   non local SUM 2l+1 LMDIM =     18
   total plane-waves  NPLWV = ******
   max r-space proj   IRMAX =      1   max aug-charges    IRDMAX=  36873
   dimension x,y,z NGX =    84 NGY =   84 NGZ =  240
   dimension x,y,z NGXF=   168 NGYF=  168 NGZF=  480
   support grid    NGXF=   168 NGYF=  168 NGZF=  480
   ions per type =              36  18
   NGX,Y,Z   is equivalent  to a cutoff of  12.96, 13.21, 12.99 a.u.
   NGXF,Y,Z  is equivalent  to a cutoff of  25.91, 26.42, 25.97 a.u.

 SYSTEM =  dpgen_md                                
 POSCAR =  Te Mo                                   

 Startparameter for this run:
   NWRITE =      2    write-flag & timer
   PREC   = a         normal or accurate (medium, high low for compatibility)
   ISTART =      0    job   : 0-new  1-cont  2-samecut
   ICHARG =      2    charge: 1-file 2-atom 10-const
   ISPIN  =      1    spin polarized calculation?
   LNONCOLLINEAR =      F non collinear calculations
   LSORBIT =      F    spin-orbit coupling
   INIWAV =      1    electr: 0-lowe 1-rand  2-diag
   LASPH  =      F    aspherical Exc in radial PAW
   METAGGA=      F    non-selfconsistent MetaGGA calc.

 Electronic Relaxation 1
   ENCUT  =  550.0 eV  40.42 Ry    6.36 a.u.  20.61 20.22 58.75*2*pi/ulx,y,z
   ENINI  =  550.0     initial cutoff
   ENAUG  =  368.8 eV  augmentation charge cutoff
   NELM   =    100;   NELMIN=  6; NELMDL= -5     # of ELM steps 
   EDIFF  = 0.1E-05   stopping-criterion for ELM
   LREAL  =      F    real-space projection
   NLSPLINE    = F    spline interpolate recip. space projectors
   LCOMPAT=      F    compatible to vasp.4.4
   GGA_COMPAT  = T    GGA compatible to vasp.4.4-vasp.4.6
   LMAXPAW     = -100 max onsite density
   LMAXMIX     =    2 max onsite mixed and CHGCAR
   VOSKOWN=      0    Vosko Wilk Nusair interpolation
   ROPT   =    0.00000   0.00000
 Ionic relaxation
   EDIFFG = 0.1E-04   stopping-criterion for IOM
   NSW    =     10    number of steps for IOM
   NBLOCK =      1;   KBLOCK =      1    inner block; outer block 
   IBRION =      0    ionic relax: 0-MD 1-quasi-New 2-CG
   NFREE  =      0    steps in history (QN), initial steepest desc. (CG)
   ISIF   =      2    stress and relaxation
   IWAVPR =     11    prediction:  0-non 1-charg 2-wave 3-comb
   ISYM   =      0    0-nonsym 1-usesym 2-fastsym
   LCORR  =      T    Harris-Foulkes like correction to forces

   POTIM  = 2.0000    time-step for ionic-motion
   TEIN   =  100.0    initial temperature
   TEBEG  =  100.0;   TEEND  = 100.0 temperature during run
   SMASS  =   0.04    Nose mass-parameter (am)
   estimated Nose-frequenzy (Omega)   =  0.79E+14 period in steps = 0.40E+02 mass=   0.327E-28a.u.
   SCALEE = 1.0000    scale energy and forces
   NPACO  =    256;   APACO  = 16.0  distance and # of slots for P.C.
   PSTRESS=    0.0 pullay stress

  Mass of Ions in am
   POMASS = 127.60 95.94
  Ionic Valenz
   ZVAL   =   6.00  6.00
  Atomic Wigner-Seitz radii
   RWIGS  =  -1.00 -1.00
  virtual crystal weights 
   VCA    =   1.00  1.00
   NELECT =     324.0000    total number of electrons
   NUPDOWN=      -1.0000    fix difference up-down

 DOS related values:
   EMIN   =  10.00;   EMAX   =-10.00  energy-range for DOS
   EFERMI =   0.00
   ISMEAR =     0;   SIGMA  =   0.10  broadening in eV -4-tet -1-fermi 0-gaus

 Electronic relaxation 2 (details)
   IALGO  =     68    algorithm
   LDIAG  =      T    sub-space diagonalisation (order eigenvalues)
   LSUBROT=      F    optimize rotation matrix (better conditioning)
   TURBO    =      0    0=normal 1=particle mesh
   IRESTART =      0    0=no restart 2=restart with 2 vectors
   NREBOOT  =      0    no. of reboots
   NMIN     =      0    reboot dimension
   EREF     =   0.00    reference energy to select bands
   IMIX   =      4    mixing-type and parameters
     AMIX     =   0.40;   BMIX     =  1.00
     AMIX_MAG =   1.60;   BMIX_MAG =  1.00
     AMIN     =   0.10
     WC   =   100.;   INIMIX=   1;  MIXPRE=   1;  MAXMIX= -45

 Intra band minimization:
   WEIMIN = 0.0010     energy-eigenvalue tresh-hold
   EBREAK =  0.13E-08  absolut break condition
   DEPER  =   0.30     relativ break condition  

   TIME   =   0.40     timestep for ELM

  volume/ion in A,a.u.               =      54.90       370.45
  Fermi-wavevector in a.u.,A,eV,Ry     =   0.782732  1.479150  8.335882  0.612670
  Thomas-Fermi vector in A             =   1.886516
 
 Write flags
   LWAVE        =      F    write WAVECAR
   LDOWNSAMPLE  =      F    k-point downsampling of WAVECAR
   LCHARG       =      F    write CHGCAR
   LVTOT        =      F    write LOCPOT, total local potential
   LVHAR        =      F    write LOCPOT, Hartree potential only
   LELF         =      F    write electronic localiz. function (ELF)
   LORBIT       =      0    0 simple, 1 ext, 2 COOP (PROOUT), +10 PAW based schemes


 Dipole corrections
   LMONO  =      F    monopole corrections only (constant potential shift)
   LDIPOL =      F    correct potential (dipole corrections)
   IDIPOL =      0    1-x, 2-y, 3-z, 4-all directions 
   EPSILON=  1.0000000 bulk dielectric constant

 Exchange correlation treatment:
   GGA     =    --    GGA type
   LEXCH   =     8    internal setting for exchange type
   VOSKOWN=      0    Vosko Wilk Nusair interpolation
   LHFCALC =     F    Hartree Fock is set to
   LHFONE  =     F    Hartree Fock one center treatment
   AEXX    =    0.0000 exact exchange contribution

 Linear response parameters
   LEPSILON=     F    determine dielectric tensor
   LRPA    =     F    only Hartree local field effects (RPA)
   LNABLA  =     F    use nabla operator in PAW spheres
   LVEL    =     F    velocity operator in full k-point grid
   LINTERFAST=   F  fast interpolation
   KINTER  =     0    interpolate to denser k-point grid
   CSHIFT  =0.1000    complex shift for real part using Kramers Kronig
   OMEGAMAX=  -1.0    maximum frequency
   DEG_THRESHOLD= 0.2000000E-02 threshold for treating states as degnerate
   RTIME   =   -0.100 relaxation time in fs
  (WPLASMAI=    0.000 imaginary part of plasma frequency in eV, 0.658/RTIME)
   DFIELD  = 0.0000000 0.0000000 0.0000000 field for delta impulse in time
 
 Orbital magnetization related:
   ORBITALMAG=     F  switch on orbital magnetization
   LCHIMAG   =     F  perturbation theory with respect to B field
   DQ        =  0.001000  dq finite difference perturbation B field
   LLRAUG    =     F  two centre corrections for induced B field



--------------------------------------------------------------------------------------------------------


 molecular dynamics for ions
   using nose mass (canonical ensemble)
 charge density and potential will be updated during run
 non-spin polarized calculation
 RMM-DIIS sequential band-by-band and
  variant of blocked Davidson during initial phase
 perform sub-space diagonalisation
    before iterative eigenvector-optimisation
 modified Broyden-mixing scheme, WC =      100.0
 initial mixing is a Kerker type mixing with AMIX =  0.4000 and BMIX =      1.0000
 Hartree-type preconditioning will be used
 using additional bands           38
 reciprocal scheme for non local part
 use partial core corrections
 calculate Harris-corrections to forces 
   (improved forces if not selfconsistent)
 use gradient corrections 
 use of overlap-Matrix (Vanderbilt PP)
 Gauss-broadening in eV      SIGMA  =   0.10


--------------------------------------------------------------------------------------------------------


  energy-cutoff  :      550.00
  volume of cell :     2964.35
      direct lattice vectors                 reciprocal lattice vectors
    10.777469922  0.000000000  0.000000000     0.092786155  0.058270108  0.000705569
    -5.622362145  8.952744130  0.000000000     0.000000000  0.111697596 -0.000000312
    -0.233675306  0.000085728 30.722496553     0.000000000  0.000000000  0.032549438

  length of vectors
    10.777469922 10.571782420 30.723385208     0.109568125  0.111697596  0.032549438


 
 k-points in units of 2pi/SCALE and weight: read from INCAR                         
   0.00000000  0.00000000  0.00000000       0.111
   0.03092872  0.01942337  0.00023519       0.222
   0.00000000  0.03723253 -0.00000010       0.222
   0.03092872  0.05665590  0.00023509       0.222
  -0.03092872  0.01780916 -0.00023529       0.222
 
 k-points in reciprocal lattice and weights: read from INCAR                         
   0.00000000  0.00000000  0.00000000       0.111
   0.33333333 -0.00000000  0.00000000       0.222
   0.00000000  0.33333333  0.00000000       0.222
   0.33333333  0.33333333 -0.00000000       0.222
  -0.33333333  0.33333333  0.00000000       0.222
 
 position of ions in fractional coordinates (direct lattice) 
   0.11162437  0.22234368  0.32066971
   0.11106863  0.55555596  0.32045609
   0.11086019  0.88892444  0.32070909
   0.44361288  0.22180193  0.32061811
   0.44378358  0.55451039  0.32044405
   0.44444453  0.88888666  0.32046150
   0.77764636  0.22212551  0.32044343
   0.77769287  0.55530414  0.32055011
   0.77782478  0.88875316  0.32050844
   0.11168317  0.05603773  0.55857233
   0.11114495  0.38915919  0.55870255
   0.11205603  0.72293623  0.55880837
   0.44415081  0.05542308  0.55869916
   0.44447829  0.38877789  0.55864770
   0.44453205  0.72230599  0.55869968
   0.77788686  0.05606991  0.55872231
   0.77746146  0.38944278  0.55849314
   0.77769296  0.72221971  0.55869632
   0.11099655  0.22231295  0.44127462
   0.11115130  0.55547102  0.44137428
   0.11159391  0.88885546  0.44151641
   0.44420227  0.22211634  0.44127765
   0.44492454  0.55572260  0.44143904
   0.44532834  0.88913746  0.44139880
   0.77798435  0.22271825  0.44143510
   0.77767184  0.55591013  0.44148736
   0.77780344  0.88894764  0.44119833
   0.11110567  0.05506470  0.67936662
   0.11162309  0.38899273  0.67965372
   0.11138167  0.72203029  0.67972997
   0.44425755  0.05544557  0.67949787
   0.44458632  0.38962159  0.67944809
   0.44419143  0.72239379  0.67975719
   0.77837329  0.05555644  0.67949487
   0.77777794  0.38825872  0.67974743
   0.77849490  0.72259157  0.67932375
   0.00017721  0.00022562  0.38094006
   0.99998759  0.33341623  0.38087465
   0.00065043  0.66642158  0.38081043
   0.33410508  0.00080886  0.38073789
   0.33346192  0.33341216  0.38082801
   0.33379093  0.66708235  0.38092438
   0.66579862  0.99932720  0.38091156
   0.66658650  0.33330900  0.38087299
   0.66664043  0.66664038  0.38090717
   0.00000048  0.16666601  0.61910823
   0.00001396  0.50055068  0.61928878
   0.99960505  0.83348516  0.61902738
   0.33342076  0.16613096  0.61913440
   0.33337239  0.49992567  0.61905891
   0.33339368  0.83369742  0.61916124
   0.66674781  0.16684770  0.61916334
   0.66672822  0.49949244  0.61897458
   0.66728267  0.83423523  0.61926901
 
 position of ions in cartesian coordinates  (Angst):
  -0.12200102  1.99061357  9.85177401
  -2.00138064  4.97377779  9.84521103
  -3.87800457  7.95834052  9.85298392
   3.45905313  1.98576345  9.85018880
   1.59032608  4.96441711  9.84484109
  -0.28253913  7.95800231  9.84537725
   7.05731041  1.98866036  9.84482220
   5.18453586  4.97152335  9.84809968
   3.31119614  7.95680710  9.84681952
   0.75807304  0.50173938 17.16073642
  -1.12068751  3.48409054 17.16473717
  -2.98750856  6.47231100 17.16798831
   4.34465913  0.49623658 17.16463292
   2.47395915  3.48067688 17.16305214
   0.59931067  6.46666861 17.16464906
   7.93784728  0.50202745 17.16534421
   6.05897317  3.48662940 17.15830344
   4.19042823  6.46589615 17.16454592
  -0.15677691  1.99034882 13.55705806
  -2.02826773  4.97302775 13.56011981
  -3.89793878  7.95773334 13.56448651
   3.43544244  1.98858858 13.55715108
   1.56753373  4.97528006 13.56210932
  -0.30268400  7.96025805 13.56087321
   7.02934774  1.99397735 13.56198825
   5.15264205  4.97695901 13.56359397
   3.28167049  7.95855858 13.55471419
   0.72909315  0.49303841 20.87183861
  -1.14286178  3.48261062 20.88065911
  -3.01793928  6.46421071 20.88300156
   4.31745549  0.49644825 20.87587096
   2.44215179  3.48824065 20.87434165
   0.56685780  6.46746508 20.88383805
   7.91775506  0.49744089 20.87577865
   6.04070699  3.47603926 20.88353808
   4.16879269  6.46923566 20.87052166
  -0.08837493  0.00205257 11.70342970
   8.81374839  2.98502288 11.70142004
  -3.82883949  5.96633450 11.69944703
   3.50729069  0.00727419 11.69721841
   1.63032184  2.98498641 11.69998729
  -0.24216944  5.97225023 11.70294791
   1.46803560  8.94675335 11.70255411
   5.22113145  2.98406283 11.70136915
   3.34759493  5.96829339 11.70241908
  -1.08172184  1.49217121 19.02055043
  -2.95883921  4.48135525 19.02609735
   5.94240652  7.46203241 19.01806652
   2.51470732  1.48738107 19.02135445
   0.63748897  4.47575965 19.01903522
  -1.23889114  7.46393275 19.02217920
   6.10309311  1.49379782 19.02224370
   4.23267690  4.47188111 19.01644427
   2.35653845  7.46874763 19.02549017
 


--------------------------------------------------------------------------------------------------------


 k-point   1 :   0.0000 0.0000 0.0000  plane waves:   86795
 k-point   2 :   0.3333-0.0000 0.0000  plane waves:   86798
 k-point   3 :   0.0000 0.3333 0.0000  plane waves:   86878
 k-point   4 :   0.3333 0.3333-0.0000  plane waves:   86792
 k-point   5 :  -0.3333 0.3333 0.0000  plane waves:   86838

 maximum and minimum number of plane-waves per node :     86878    86792

 maximum number of plane-waves:     86878
 maximum index in each direction: 
   IXMAX=   20   IYMAX=   20   IZMAX=   58
   IXMIN=  -20   IYMIN=  -20   IZMIN=  -58


 serial   3D FFT for wavefunctions
 parallel 3D FFT for charge:
    minimum data exchange during FFTs selected (reduces bandwidth)


 total amount of memory used by VASP MPI-rank0   376521. kBytes
=======================================================================

   base      :      30000. kBytes
   nonl-proj :     200171. kBytes
   fftplans  :      19943. kBytes
   grid      :      90496. kBytes
   one-center:        839. kBytes
   wavefun   :      35072. kBytes
 
     INWAV:  cpu time    0.0001: real time    0.0001
 Broyden mixing: mesh for mixing (old mesh)
   NGX = 41   NGY = 41   NGZ =117
  (NGX  =168   NGY  =168   NGZ  =480)
  gives a total of 196677 points

 initial charge density was supplied:
 charge density of overlapping atoms calculated
 number of electron     324.0000000 magnetization 
 keeping initial charge density in first step


--------------------------------------------------------------------------------------------------------


 Maximum index for augmentation-charges         2218 (set IRDMAX)


--------------------------------------------------------------------------------------------------------


 First call to EWALD:  gamma=   0.123
 Maximum number of real-space cells 4x 4x 2
 Maximum number of reciprocal cells 2x 2x 5

    FEWALD:  cpu time    0.0024: real time    0.0025


--------------------------------------- Iteration      1(   1)  ---------------------------------------


    POTLOK:  cpu time    0.3481: real time    0.3492
    SETDIJ:  cpu time    0.0124: real time    0.0126
     EDDAV:  cpu time   50.0018: real time   50.1128
       DOS:  cpu time    0.0010: real time    0.0010
    --------------------------------------------
      LOOP:  cpu time   50.3633: real time   50.4756

 eigenvalue-minimisations  :  2000
 total energy-change (2. order) : 0.2104014E+04  (-0.1144850E+05)
 number of electron     324.0000000 magnetization 
 augmentation part      324.0000000 magnetization 

 Free energy of the ion-electron system (eV)
  ---------------------------------------------------
  alpha Z        PSCENC =       242.09899334
  Ewald energy   TEWEN  =     64497.71758256
  -Hartree energ DENC   =    -76163.95139323
  -exchange      EXHF   =         0.00000000
  -V(xc)+E(xc)   XCENC  =     -2102.44122737
  PAW double counting   =      7476.04436201    -4809.59211051
  entropy T*S    EENTRO =        -0.11942134
  eigenvalues    EBANDS =      1011.17410972
  atomic energy  EATOM  =     11953.08265402
  Solvation  Ediel_sol  =         0.00000000
  ---------------------------------------------------
  free energy    TOTEN  =      2104.01354921 eV

  energy without entropy =     2104.13297054  energy(sigma->0) =     2104.07325987


--------------------------------------------------------------------------------------------------------




--------------------------------------- Iteration      1(   2)  ---------------------------------------


     EDDAV:  cpu time   70.7700: real time   70.9085
       DOS:  cpu time    0.0006: real time    0.0006
    --------------------------------------------
      LOOP:  cpu time   70.7705: real time   70.9090

 eigenvalue-minimisations  :  3080
 total energy-change (2. order) :-0.2201209E+04  (-0.2127831E+04)
 number of electron     324.0000000 magnetization 
 augmentation part      324.0000000 magnetization 

 Free energy of the ion-electron system (eV)
  ---------------------------------------------------
  alpha Z        PSCENC =       242.09899334
  Ewald energy   TEWEN  =     64497.71758256
  -Hartree energ DENC   =    -76163.95139323
  -exchange      EXHF   =         0.00000000
  -V(xc)+E(xc)   XCENC  =     -2102.44122737
  PAW double counting   =      7476.04436201    -4809.59211051
  entropy T*S    EENTRO =        -0.00132288
  eigenvalues    EBANDS =     -1190.15330366
  atomic energy  EATOM  =     11953.08265402
  Solvation  Ediel_sol  =         0.00000000
  ---------------------------------------------------
  free energy    TOTEN  =       -97.19576571 eV

  energy without entropy =      -97.19444284  energy(sigma->0) =      -97.19510427


--------------------------------------------------------------------------------------------------------




--------------------------------------- Iteration      1(   3)  ---------------------------------------


     EDDAV:  cpu time   60.0339: real time   60.1570
       DOS:  cpu time    0.0004: real time    0.0004
    --------------------------------------------
      LOOP:  cpu time   60.0343: real time   60.1574

 eigenvalue-minimisations  :  2520
 total energy-change (2. order) :-0.2276832E+03  (-0.2245436E+03)
 number of electron     324.0000000 magnetization 
 augmentation part      324.0000000 magnetization 

 Free energy of the ion-electron system (eV)
  ---------------------------------------------------
  alpha Z        PSCENC =       242.09899334
  Ewald energy   TEWEN  =     64497.71758256
  -Hartree energ DENC   =    -76163.95139323
  -exchange      EXHF   =         0.00000000
  -V(xc)+E(xc)   XCENC  =     -2102.44122737
  PAW double counting   =      7476.04436201    -4809.59211051
  entropy T*S    EENTRO =        -0.00000000
  eigenvalues    EBANDS =     -1417.83783690
  atomic energy  EATOM  =     11953.08265402
  Solvation  Ediel_sol  =         0.00000000
  ---------------------------------------------------
  free energy    TOTEN  =      -324.87897608 eV

  energy without entropy =     -324.87897608  energy(sigma->0) =     -324.87897608


--------------------------------------------------------------------------------------------------------




--------------------------------------- Iteration      1(   4)  ---------------------------------------


     EDDAV:  cpu time   70.7866: real time   70.9184
       DOS:  cpu time    0.0004: real time    0.0004
    --------------------------------------------
      LOOP:  cpu time   70.7870: real time   70.9188

 eigenvalue-minimisations  :  3080
 total energy-change (2. order) :-0.1127795E+02  (-0.1120784E+02)
 number of electron     324.0000000 magnetization 
 augmentation part      324.0000000 magnetization 

 Free energy of the ion-electron system (eV)
  ---------------------------------------------------
  alpha Z        PSCENC =       242.09899334
  Ewald energy   TEWEN  =     64497.71758256
  -Hartree energ DENC   =    -76163.95139323
  -exchange      EXHF   =         0.00000000
  -V(xc)+E(xc)   XCENC  =     -2102.44122737
  PAW double counting   =      7476.04436201    -4809.59211051
  entropy T*S    EENTRO =        -0.00000000
  eigenvalues    EBANDS =     -1429.11579036
  atomic energy  EATOM  =     11953.08265402
  Solvation  Ediel_sol  =         0.00000000
  ---------------------------------------------------
  free energy    TOTEN  =      -336.15692954 eV

  energy without entropy =     -336.15692954  energy(sigma->0) =     -336.15692954


--------------------------------------------------------------------------------------------------------




--------------------------------------- Iteration      1(   5)  ---------------------------------------


     EDDAV:  cpu time   68.4093: real time   68.5657
       DOS:  cpu time    0.0004: real time    0.0004
    CHARGE:  cpu time    1.1615: real time    1.1631
    MIXING:  cpu time    0.0079: real time    0.0081
    --------------------------------------------
      LOOP:  cpu time   69.5791: real time   69.7373

 eigenvalue-minimisations  :  2960
 total energy-change (2. order) :-0.3325415E+00  (-0.3319757E+00)
 number of electron     324.0000010 magnetization 
 augmentation part      -25.7406431 magnetization 

 Broyden mixing:
  rms(total) = 0.19418E+01    rms(broyden)= 0.19418E+01
  rms(prec ) = 0.20527E+01
  weight for this iteration     100.00

 Free energy of the ion-electron system (eV)
  ---------------------------------------------------
  alpha Z        PSCENC =       242.09899334
  Ewald energy   TEWEN  =     64497.71758256
  -Hartree energ DENC   =    -76163.95139323
  -exchange      EXHF   =         0.00000000
  -V(xc)+E(xc)   XCENC  =     -2102.44122737
  PAW double counting   =      7476.04436201    -4809.59211051
  entropy T*S    EENTRO =        -0.00000000
  eigenvalues    EBANDS =     -1429.44833183
  atomic energy  EATOM  =     11953.08265402
  Solvation  Ediel_sol  =         0.00000000
  ---------------------------------------------------
  free energy    TOTEN  =      -336.48947101 eV

  energy without entropy =     -336.48947101  energy(sigma->0) =     -336.48947101


--------------------------------------------------------------------------------------------------------




--------------------------------------- Iteration      1(   6)  ---------------------------------------


    POTLOK:  cpu time    0.3014: real time    0.3016
    SETDIJ:  cpu time    0.0118: real time    0.0119
    EDDIAG:  cpu time    2.5920: real time    2.5954
  RMM-DIIS:  cpu time   42.6328: real time   42.7350
    ORTHCH:  cpu time    0.2146: real time    0.2150
       DOS:  cpu time    0.0004: real time    0.0004
    CHARGE:  cpu time    1.1847: real time    1.1857
    MIXING:  cpu time    0.0106: real time    0.0108
    --------------------------------------------
      LOOP:  cpu time   46.9484: real time   47.0558

 eigenvalue-minimisations  :  2146
 total energy-change (2. order) : 0.9137572E+01  (-0.6057753E+01)
 number of electron     324.0000011 magnetization 
 augmentation part      -19.7432214 magnetization 

 Broyden mixing:
  rms(total) = 0.72261E+00    rms(broyden)= 0.72261E+00
  rms(prec ) = 0.84640E+00
  weight for this iteration     100.00

 eigenvalues of (default mixing * dielectric matrix)
  average eigenvalue GAMMA=   1.0073
  1.0073

 Free energy of the ion-electron system (eV)
  ---------------------------------------------------
  alpha Z        PSCENC =       242.09899334
  Ewald energy   TEWEN  =     64497.71758256
  -Hartree energ DENC   =    -76137.99680643
  -exchange      EXHF   =         0.00000000
  -V(xc)+E(xc)   XCENC  =     -2096.02259764
  PAW double counting   =      7635.60592504    -4979.97931916
  entropy T*S    EENTRO =        -0.00000001
  eigenvalues    EBANDS =     -1441.85833049
  atomic energy  EATOM  =     11953.08265402
  Solvation  Ediel_sol  =         0.00000000
  ---------------------------------------------------
  free energy    TOTEN  =      -327.35189876 eV

  energy without entropy =     -327.35189875  energy(sigma->0) =     -327.35189876


--------------------------------------------------------------------------------------------------------




--------------------------------------- Iteration      1(   7)  ---------------------------------------


    POTLOK:  cpu time    0.3001: real time    0.3004
    SETDIJ:  cpu time    0.0119: real time    0.0119
    EDDIAG:  cpu time    2.6310: real time    2.6461
  RMM-DIIS:  cpu time   40.3595: real time   40.4415
    ORTHCH:  cpu time    0.2124: real time    0.2126
       DOS:  cpu time    0.0004: real time    0.0004
    CHARGE:  cpu time    1.1654: real time    1.1664
    MIXING:  cpu time    0.0073: real time    0.0073
    --------------------------------------------
      LOOP:  cpu time   44.6880: real time   44.7866

 eigenvalue-minimisations  :  2018
 total energy-change (2. order) : 0.3586155E+01  (-0.1186669E+01)
 number of electron     324.0000011 magnetization 
 augmentation part      -21.8613426 magnetization 

 Broyden mixing:
  rms(total) = 0.48433E+00    rms(broyden)= 0.48433E+00
  rms(prec ) = 0.51258E+00
  weight for this iteration     100.00

 eigenvalues of (default mixing * dielectric matrix)
  average eigenvalue GAMMA=   1.4462
  0.7108  2.1817

 Free energy of the ion-electron system (eV)
  ---------------------------------------------------
  alpha Z        PSCENC =       242.09899334
  Ewald energy   TEWEN  =     64497.71758256
  -Hartree energ DENC   =    -76227.72362769
  -exchange      EXHF   =         0.00000000
  -V(xc)+E(xc)   XCENC  =     -2095.04175999
  PAW double counting   =      7900.20546954    -5248.97809987
  entropy T*S    EENTRO =        -0.00000000
  eigenvalues    EBANDS =     -1345.12695610
  atomic energy  EATOM  =     11953.08265402
  Solvation  Ediel_sol  =         0.00000000
  ---------------------------------------------------
  free energy    TOTEN  =      -323.76574419 eV

  energy without entropy =     -323.76574419  energy(sigma->0) =     -323.76574419


--------------------------------------------------------------------------------------------------------




--------------------------------------- Iteration      1(   8)  ---------------------------------------


    POTLOK:  cpu time    0.3050: real time    0.3053
    SETDIJ:  cpu time    0.0120: real time    0.0120
    EDDIAG:  cpu time    2.5812: real time    2.5963
  RMM-DIIS:  cpu time   39.7213: real time   39.8705
    ORTHCH:  cpu time    0.2315: real time    0.2347
       DOS:  cpu time    0.0004: real time    0.0004
    CHARGE:  cpu time    1.1655: real time    1.1664
    MIXING:  cpu time    0.0075: real time    0.0075
    --------------------------------------------
      LOOP:  cpu time   44.0244: real time   44.1931

 eigenvalue-minimisations  :  2014
 total energy-change (2. order) : 0.4772818E+00  (-0.8428559E+00)
 number of electron     324.0000011 magnetization 
 augmentation part      -21.6621334 magnetization 

 Broyden mixing:
  rms(total) = 0.14431E+00    rms(broyden)= 0.14431E+00
  rms(prec ) = 0.16729E+00
  weight for this iteration     100.00

 eigenvalues of (default mixing * dielectric matrix)
  average eigenvalue GAMMA=   1.2379
  2.1217  0.7959  0.7959

 Free energy of the ion-electron system (eV)
  ---------------------------------------------------
  alpha Z        PSCENC =       242.09899334
  Ewald energy   TEWEN  =     64497.71758256
  -Hartree energ DENC   =    -76287.54923764
  -exchange      EXHF   =         0.00000000
  -V(xc)+E(xc)   XCENC  =     -2091.26613730
  PAW double counting   =      8179.58620176    -5534.35998719
  entropy T*S    EENTRO =        -0.00000000
  eigenvalues    EBANDS =     -1282.59853198
  atomic energy  EATOM  =     11953.08265402
  Solvation  Ediel_sol  =         0.00000000
  ---------------------------------------------------
  free energy    TOTEN  =      -323.28846243 eV

  energy without entropy =     -323.28846243  energy(sigma->0) =     -323.28846243


--------------------------------------------------------------------------------------------------------




--------------------------------------- Iteration      1(   9)  ---------------------------------------


    POTLOK:  cpu time    0.3038: real time    0.3041
    SETDIJ:  cpu time    0.0119: real time    0.0120
    EDDIAG:  cpu time    2.5948: real time    2.6015
  RMM-DIIS:  cpu time   44.6482: real time   44.7628
    ORTHCH:  cpu time    0.2172: real time    0.2185
       DOS:  cpu time    0.0004: real time    0.0004
    CHARGE:  cpu time    1.1687: real time    1.1698
    MIXING:  cpu time    0.0076: real time    0.0077
    --------------------------------------------
      LOOP:  cpu time   48.9526: real time   49.0766

 eigenvalue-minimisations  :  2228
 total energy-change (2. order) :-0.3203042E-01  (-0.1524379E+00)
 number of electron     324.0000011 magnetization 
 augmentation part      -21.2333991 magnetization 

 Broyden mixing:
  rms(total) = 0.10207E+00    rms(broyden)= 0.10207E+00
  rms(prec ) = 0.11353E+00
  weight for this iteration     100.00

 eigenvalues of (default mixing * dielectric matrix)
  average eigenvalue GAMMA=   1.1297
  1.9888  1.3678  0.7188  0.4435

 Free energy of the ion-electron system (eV)
  ---------------------------------------------------
  alpha Z        PSCENC =       242.09899334
  Ewald energy   TEWEN  =     64497.71758256
  -Hartree energ DENC   =    -76284.34015331
  -exchange      EXHF   =         0.00000000
  -V(xc)+E(xc)   XCENC  =     -2090.94247632
  PAW double counting   =      8178.17689545    -5533.10567618
  entropy T*S    EENTRO =        -0.00000000
  eigenvalues    EBANDS =     -1286.00831241
  atomic energy  EATOM  =     11953.08265402
  Solvation  Ediel_sol  =         0.00000000
  ---------------------------------------------------
  free energy    TOTEN  =      -323.32049285 eV

  energy without entropy =     -323.32049285  energy(sigma->0) =     -323.32049285


--------------------------------------------------------------------------------------------------------




--------------------------------------- Iteration      1(  10)  ---------------------------------------


    POTLOK:  cpu time    0.3029: real time    0.3074
    SETDIJ:  cpu time    0.0156: real time    0.0156
    EDDIAG:  cpu time    2.5969: real time    2.6081
  RMM-DIIS:  cpu time   47.7290: real time   47.8565
    ORTHCH:  cpu time    0.2200: real time    0.2202
       DOS:  cpu time    0.0004: real time    0.0004
    CHARGE:  cpu time    1.1649: real time    1.1660
    MIXING:  cpu time    0.0077: real time    0.0077
    --------------------------------------------
      LOOP:  cpu time   52.0375: real time   52.1818

 eigenvalue-minimisations  :  2349
 total energy-change (2. order) :-0.5477894E-02  (-0.4670598E-01)
 number of electron     324.0000011 magnetization 
 augmentation part      -21.0144744 magnetization 

 Broyden mixing:
  rms(total) = 0.77020E-01    rms(broyden)= 0.77020E-01
  rms(prec ) = 0.85738E-01
  weight for this iteration     100.00

 eigenvalues of (default mixing * dielectric matrix)
  average eigenvalue GAMMA=   1.2896
  2.4002  1.7791  1.0204  0.8509  0.3975

 Free energy of the ion-electron system (eV)
  ---------------------------------------------------
  alpha Z        PSCENC =       242.09899334
  Ewald energy   TEWEN  =     64497.71758256
  -Hartree energ DENC   =    -76286.14785602
  -exchange      EXHF   =         0.00000000
  -V(xc)+E(xc)   XCENC  =     -2090.73850620
  PAW double counting   =      8190.18700443    -5545.12741062
  entropy T*S    EENTRO =        -0.00000000
  eigenvalues    EBANDS =     -1284.39843225
  atomic energy  EATOM  =     11953.08265402
  Solvation  Ediel_sol  =         0.00000000
  ---------------------------------------------------
  free energy    TOTEN  =      -323.32597075 eV

  energy without entropy =     -323.32597075  energy(sigma->0) =     -323.32597075


--------------------------------------------------------------------------------------------------------




--------------------------------------- Iteration      1(  11)  ---------------------------------------


    POTLOK:  cpu time    0.3113: real time    0.3115
    SETDIJ:  cpu time    0.0120: real time    0.0120
    EDDIAG:  cpu time    2.6064: real time    2.6173
  RMM-DIIS:  cpu time   42.6414: real time   42.7386
    ORTHCH:  cpu time    0.2327: real time    0.2329
       DOS:  cpu time    0.0004: real time    0.0004
    CHARGE:  cpu time    1.1829: real time    1.1840
    MIXING:  cpu time    0.0110: real time    0.0110
    --------------------------------------------
      LOOP:  cpu time   46.9980: real time   47.1077

 eigenvalue-minimisations  :  2134
 total energy-change (2. order) : 0.1198715E-01  (-0.2246844E-01)
 number of electron     324.0000011 magnetization 
 augmentation part      -21.3739350 magnetization 

 Broyden mixing:
  rms(total) = 0.42176E-01    rms(broyden)= 0.42176E-01
  rms(prec ) = 0.47747E-01
  weight for this iteration     100.00

 eigenvalues of (default mixing * dielectric matrix)
  average eigenvalue GAMMA=   1.2547
  2.5390  1.5466  1.5466  0.7511  0.7511  0.3939

 Free energy of the ion-electron system (eV)
  ---------------------------------------------------
  alpha Z        PSCENC =       242.09899334
  Ewald energy   TEWEN  =     64497.71758256
  -Hartree energ DENC   =    -76306.79728213
  -exchange      EXHF   =         0.00000000
  -V(xc)+E(xc)   XCENC  =     -2090.45103054
  PAW double counting   =      8245.00014916    -5600.17834990
  entropy T*S    EENTRO =        -0.00000000
  eigenvalues    EBANDS =     -1263.78670010
  atomic energy  EATOM  =     11953.08265402
  Solvation  Ediel_sol  =         0.00000000
  ---------------------------------------------------
  free energy    TOTEN  =      -323.31398359 eV

  energy without entropy =     -323.31398359  energy(sigma->0) =     -323.31398359


--------------------------------------------------------------------------------------------------------




--------------------------------------- Iteration      1(  12)  ---------------------------------------


    POTLOK:  cpu time    0.3072: real time    0.3075
    SETDIJ:  cpu time    0.0120: real time    0.0120
    EDDIAG:  cpu time    2.6105: real time    2.6130
  RMM-DIIS:  cpu time   47.3936: real time   47.5110
    ORTHCH:  cpu time    0.2250: real time    0.2252
       DOS:  cpu time    0.0004: real time    0.0004
    CHARGE:  cpu time    1.1934: real time    1.1945
    MIXING:  cpu time    0.0107: real time    0.0107
    --------------------------------------------
      LOOP:  cpu time   51.7526: real time   51.8743

 eigenvalue-minimisations  :  2307
 total energy-change (2. order) : 0.3973939E-02  (-0.4321419E-02)
 number of electron     324.0000011 magnetization 
 augmentation part      -21.3021663 magnetization 

 Broyden mixing:
  rms(total) = 0.25002E-01    rms(broyden)= 0.25002E-01
  rms(prec ) = 0.28948E-01
  weight for this iteration     100.00

 eigenvalues of (default mixing * dielectric matrix)
  average eigenvalue GAMMA=   1.1941
  2.5410  1.7207  1.7207  0.8021  0.8021  0.3960  0.3757

 Free energy of the ion-electron system (eV)
  ---------------------------------------------------
  alpha Z        PSCENC =       242.09899334
  Ewald energy   TEWEN  =     64497.71758256
  -Hartree energ DENC   =    -76309.78138692
  -exchange      EXHF   =         0.00000000
  -V(xc)+E(xc)   XCENC  =     -2090.31955151
  PAW double counting   =      8245.24020688    -5600.44131682
  entropy T*S    EENTRO =        -0.00000000
  eigenvalues    EBANDS =     -1260.90719121
  atomic energy  EATOM  =     11953.08265402
  Solvation  Ediel_sol  =         0.00000000
  ---------------------------------------------------
  free energy    TOTEN  =      -323.31000965 eV

  energy without entropy =     -323.31000965  energy(sigma->0) =     -323.31000965


--------------------------------------------------------------------------------------------------------




--------------------------------------- Iteration      1(  13)  ---------------------------------------


    POTLOK:  cpu time    0.3091: real time    0.3094
    SETDIJ:  cpu time    0.0119: real time    0.0120
    EDDIAG:  cpu time    2.5974: real time    2.6042
  RMM-DIIS:  cpu time   52.3773: real time   52.4903
    ORTHCH:  cpu time    0.2174: real time    0.2177
       DOS:  cpu time    0.0004: real time    0.0004
    CHARGE:  cpu time    1.1881: real time    1.1891
    MIXING:  cpu time    0.0125: real time    0.0125
    --------------------------------------------
      LOOP:  cpu time   56.7141: real time   56.8355

 eigenvalue-minimisations  :  2602
 total energy-change (2. order) : 0.1796845E-03  (-0.2670944E-02)
 number of electron     324.0000011 magnetization 
 augmentation part      -21.2105924 magnetization 

 Broyden mixing:
  rms(total) = 0.11273E-01    rms(broyden)= 0.11273E-01
  rms(prec ) = 0.14331E-01
  weight for this iteration     100.00

 eigenvalues of (default mixing * dielectric matrix)
  average eigenvalue GAMMA=   1.2665
  2.4016  2.4016  1.8474  1.1235  0.7936  0.7936  0.3977  0.3733

 Free energy of the ion-electron system (eV)
  ---------------------------------------------------
  alpha Z        PSCENC =       242.09899334
  Ewald energy   TEWEN  =     64497.71758256
  -Hartree energ DENC   =    -76311.78163631
  -exchange      EXHF   =         0.00000000
  -V(xc)+E(xc)   XCENC  =     -2090.25477890
  PAW double counting   =      8242.21625758    -5597.40380080
  entropy T*S    EENTRO =        -0.00000000
  eigenvalues    EBANDS =     -1258.98510147
  atomic energy  EATOM  =     11953.08265402
  Solvation  Ediel_sol  =         0.00000000
  ---------------------------------------------------
  free energy    TOTEN  =      -323.30982997 eV

  energy without entropy =     -323.30982997  energy(sigma->0) =     -323.30982997


--------------------------------------------------------------------------------------------------------




--------------------------------------- Iteration      1(  14)  ---------------------------------------


    POTLOK:  cpu time    0.3020: real time    0.3022
    SETDIJ:  cpu time    0.0120: real time    0.0120
    EDDIAG:  cpu time    2.6007: real time    2.6078
  RMM-DIIS:  cpu time   45.8449: real time   45.9423
    ORTHCH:  cpu time    0.2185: real time    0.2187
       DOS:  cpu time    0.0004: real time    0.0005
    CHARGE:  cpu time    1.1935: real time    1.1950
    MIXING:  cpu time    0.0083: real time    0.0083
    --------------------------------------------
      LOOP:  cpu time   50.1804: real time   50.2869

 eigenvalue-minimisations  :  2273
 total energy-change (2. order) :-0.3501436E-03  (-0.5385257E-03)
 number of electron     324.0000011 magnetization 
 augmentation part      -21.2290893 magnetization 

 Broyden mixing:
  rms(total) = 0.64728E-02    rms(broyden)= 0.64728E-02
  rms(prec ) = 0.85814E-02
  weight for this iteration     100.00

 eigenvalues of (default mixing * dielectric matrix)
  average eigenvalue GAMMA=   1.3265
  3.3468  2.6362  1.5363  1.5363  0.7957  0.7957  0.5224  0.3970  0.3720

 Free energy of the ion-electron system (eV)
  ---------------------------------------------------
  alpha Z        PSCENC =       242.09899334
  Ewald energy   TEWEN  =     64497.71758256
  -Hartree energ DENC   =    -76320.10227644
  -exchange      EXHF   =         0.00000000
  -V(xc)+E(xc)   XCENC  =     -2090.22834306
  PAW double counting   =      8239.48739598    -5594.57578375
  entropy T*S    EENTRO =        -0.00000000
  eigenvalues    EBANDS =     -1250.79040277
  atomic energy  EATOM  =     11953.08265402
  Solvation  Ediel_sol  =         0.00000000
  ---------------------------------------------------
  free energy    TOTEN  =      -323.31018011 eV

  energy without entropy =     -323.31018011  energy(sigma->0) =     -323.31018011


--------------------------------------------------------------------------------------------------------




--------------------------------------- Iteration      1(  15)  ---------------------------------------


    POTLOK:  cpu time    0.3061: real time    0.3064
    SETDIJ:  cpu time    0.0120: real time    0.0120
    EDDIAG:  cpu time    2.5912: real time    2.5938
  RMM-DIIS:  cpu time   46.9131: real time   47.0158
    ORTHCH:  cpu time    0.2259: real time    0.2262
       DOS:  cpu time    0.0004: real time    0.0004
    CHARGE:  cpu time    1.1903: real time    1.1918
    MIXING:  cpu time    0.0082: real time    0.0082
    --------------------------------------------
      LOOP:  cpu time   51.2473: real time   51.3546

 eigenvalue-minimisations  :  2317
 total energy-change (2. order) :-0.6741402E-03  (-0.2181490E-03)
 number of electron     324.0000011 magnetization 
 augmentation part      -21.2394995 magnetization 

 Broyden mixing:
  rms(total) = 0.59105E-02    rms(broyden)= 0.59105E-02
  rms(prec ) = 0.69720E-02
  weight for this iteration     100.00

 eigenvalues of (default mixing * dielectric matrix)
  average eigenvalue GAMMA=   1.2862
  3.4935  2.5265  1.6498  1.6498  0.7892  0.7892  0.7879  0.3654  0.3941  0.4169

 Free energy of the ion-electron system (eV)
  ---------------------------------------------------
  alpha Z        PSCENC =       242.09899334
  Ewald energy   TEWEN  =     64497.71758256
  -Hartree energ DENC   =    -76324.73018026
  -exchange      EXHF   =         0.00000000
  -V(xc)+E(xc)   XCENC  =     -2090.20724492
  PAW double counting   =      8238.94267443    -5594.00117596
  entropy T*S    EENTRO =        -0.00000000
  eigenvalues    EBANDS =     -1246.21415747
  atomic energy  EATOM  =     11953.08265402
  Solvation  Ediel_sol  =         0.00000000
  ---------------------------------------------------
  free energy    TOTEN  =      -323.31085425 eV

  energy without entropy =     -323.31085425  energy(sigma->0) =     -323.31085425


--------------------------------------------------------------------------------------------------------




--------------------------------------- Iteration      1(  16)  ---------------------------------------


    POTLOK:  cpu time    0.3076: real time    0.3079
    SETDIJ:  cpu time    0.0122: real time    0.0122
    EDDIAG:  cpu time    2.5856: real time    2.5881
  RMM-DIIS:  cpu time   54.4701: real time   54.6032
    ORTHCH:  cpu time    0.2375: real time    0.2377
       DOS:  cpu time    0.0004: real time    0.0004
    CHARGE:  cpu time    1.1868: real time    1.1879
    MIXING:  cpu time    0.0085: real time    0.0085
    --------------------------------------------
      LOOP:  cpu time   58.8086: real time   58.9459

 eigenvalue-minimisations  :  2680
 total energy-change (2. order) :-0.6702569E-03  (-0.6894162E-04)
 number of electron     324.0000011 magnetization 
 augmentation part      -21.2368832 magnetization 

 Broyden mixing:
  rms(total) = 0.40528E-02    rms(broyden)= 0.40528E-02
  rms(prec ) = 0.49855E-02
  weight for this iteration     100.00

 eigenvalues of (default mixing * dielectric matrix)
  average eigenvalue GAMMA=   1.3213
  3.6232  2.3735  2.0025  2.0025  1.0861  0.7951  0.7951  0.7012  0.3977  0.3929
  0.3643

 Free energy of the ion-electron system (eV)
  ---------------------------------------------------
  alpha Z        PSCENC =       242.09899334
  Ewald energy   TEWEN  =     64497.71758256
  -Hartree energ DENC   =    -76325.94627896
  -exchange      EXHF   =         0.00000000
  -V(xc)+E(xc)   XCENC  =     -2090.19613956
  PAW double counting   =      8239.05673261    -5594.12924561
  entropy T*S    EENTRO =        -0.00000000
  eigenvalues    EBANDS =     -1244.99582292
  atomic energy  EATOM  =     11953.08265402
  Solvation  Ediel_sol  =         0.00000000
  ---------------------------------------------------
  free energy    TOTEN  =      -323.31152451 eV

  energy without entropy =     -323.31152451  energy(sigma->0) =     -323.31152451


--------------------------------------------------------------------------------------------------------




--------------------------------------- Iteration      1(  17)  ---------------------------------------


    POTLOK:  cpu time    0.3040: real time    0.3043
    SETDIJ:  cpu time    0.0119: real time    0.0119
    EDDIAG:  cpu time    2.5975: real time    2.6004
  RMM-DIIS:  cpu time   43.5600: real time   43.6760
    ORTHCH:  cpu time    0.2250: real time    0.2256
       DOS:  cpu time    0.0004: real time    0.0004
    CHARGE:  cpu time    1.1833: real time    1.1841
    MIXING:  cpu time    0.0087: real time    0.0087
    --------------------------------------------
      LOOP:  cpu time   47.8907: real time   48.0113

 eigenvalue-minimisations  :  2141
 total energy-change (2. order) :-0.1668753E-02  (-0.3422550E-04)
 number of electron     324.0000011 magnetization 
 augmentation part      -21.2308250 magnetization 

 Broyden mixing:
  rms(total) = 0.17288E-02    rms(broyden)= 0.17288E-02
  rms(prec ) = 0.24871E-02
  weight for this iteration     100.00

 eigenvalues of (default mixing * dielectric matrix)
  average eigenvalue GAMMA=   1.3830
  4.4383  2.5839  2.2769  1.4914  1.4914  0.9538  0.7971  0.7971  0.6164  0.3974
  0.3891  0.3633

 Free energy of the ion-electron system (eV)
  ---------------------------------------------------
  alpha Z        PSCENC =       242.09899334
  Ewald energy   TEWEN  =     64497.71758256
  -Hartree energ DENC   =    -76328.80481505
  -exchange      EXHF   =         0.00000000
  -V(xc)+E(xc)   XCENC  =     -2090.17844895
  PAW double counting   =      8238.29372004    -5593.38808902
  entropy T*S    EENTRO =        -0.00000000
  eigenvalues    EBANDS =     -1242.13479020
  atomic energy  EATOM  =     11953.08265402
  Solvation  Ediel_sol  =         0.00000000
  ---------------------------------------------------
  free energy    TOTEN  =      -323.31319326 eV

  energy without entropy =     -323.31319326  energy(sigma->0) =     -323.31319326


--------------------------------------------------------------------------------------------------------




--------------------------------------- Iteration      1(  18)  ---------------------------------------


    POTLOK:  cpu time    0.3108: real time    0.3111
    SETDIJ:  cpu time    0.0123: real time    0.0123
    EDDIAG:  cpu time    2.5807: real time    2.5911
  RMM-DIIS:  cpu time   43.3130: real time   43.4447
    ORTHCH:  cpu time    0.2231: real time    0.2233
       DOS:  cpu time    0.0004: real time    0.0004
    CHARGE:  cpu time    1.1938: real time    1.1949
    MIXING:  cpu time    0.0091: real time    0.0091
    --------------------------------------------
      LOOP:  cpu time   47.6431: real time   47.7868

 eigenvalue-minimisations  :  2140
 total energy-change (2. order) :-0.1033528E-02  (-0.2412881E-04)
 number of electron     324.0000011 magnetization 
 augmentation part      -21.2317205 magnetization 

 Broyden mixing:
  rms(total) = 0.17430E-02    rms(broyden)= 0.17430E-02
  rms(prec ) = 0.21301E-02
  weight for this iteration     100.00

 eigenvalues of (default mixing * dielectric matrix)
  average eigenvalue GAMMA=   1.3991
  5.0770  2.7340  2.2514  1.6516  1.6516  1.0157  0.7993  0.7993  0.6490  0.3629
  0.4117  0.4006  0.3842

 Free energy of the ion-electron system (eV)
  ---------------------------------------------------
  alpha Z        PSCENC =       242.09899334
  Ewald energy   TEWEN  =     64497.71758256
  -Hartree energ DENC   =    -76330.97084065
  -exchange      EXHF   =         0.00000000
  -V(xc)+E(xc)   XCENC  =     -2090.17182482
  PAW double counting   =      8237.78519388    -5592.87456321
  entropy T*S    EENTRO =        -0.00000000
  eigenvalues    EBANDS =     -1239.98142190
  atomic energy  EATOM  =     11953.08265402
  Solvation  Ediel_sol  =         0.00000000
  ---------------------------------------------------
  free energy    TOTEN  =      -323.31422679 eV

  energy without entropy =     -323.31422679  energy(sigma->0) =     -323.31422679


--------------------------------------------------------------------------------------------------------




--------------------------------------- Iteration      1(  19)  ---------------------------------------


    POTLOK:  cpu time    0.3095: real time    0.3108
    SETDIJ:  cpu time    0.0118: real time    0.0118
    EDDIAG:  cpu time    2.5929: real time    2.5957
  RMM-DIIS:  cpu time   45.8819: real time   46.0084
    ORTHCH:  cpu time    0.2186: real time    0.2189
       DOS:  cpu time    0.0005: real time    0.0004
    CHARGE:  cpu time    1.1936: real time    1.1946
    MIXING:  cpu time    0.0125: real time    0.0125
    --------------------------------------------
      LOOP:  cpu time   50.2212: real time   50.3532

 eigenvalue-minimisations  :  2270
 total energy-change (2. order) :-0.5521463E-03  (-0.8682923E-05)
 number of electron     324.0000011 magnetization 
 augmentation part      -21.2317954 magnetization 

 Broyden mixing:
  rms(total) = 0.10770E-02    rms(broyden)= 0.10770E-02
  rms(prec ) = 0.13587E-02
  weight for this iteration     100.00

 eigenvalues of (default mixing * dielectric matrix)
  average eigenvalue GAMMA=   1.5274
  6.3009  3.1172  2.4236  1.8934  1.8934  1.0014  1.0014  0.7943  0.7943  0.6446
  0.3984  0.3907  0.3628  0.3669

 Free energy of the ion-electron system (eV)
  ---------------------------------------------------
  alpha Z        PSCENC =       242.09899334
  Ewald energy   TEWEN  =     64497.71758256
  -Hartree energ DENC   =    -76331.88081050
  -exchange      EXHF   =         0.00000000
  -V(xc)+E(xc)   XCENC  =     -2090.16987358
  PAW double counting   =      8237.80151577    -5592.88771325
  entropy T*S    EENTRO =        -0.00000000
  eigenvalues    EBANDS =     -1239.07712729
  atomic energy  EATOM  =     11953.08265402
  Solvation  Ediel_sol  =         0.00000000
  ---------------------------------------------------
  free energy    TOTEN  =      -323.31477894 eV

  energy without entropy =     -323.31477894  energy(sigma->0) =     -323.31477894


--------------------------------------------------------------------------------------------------------




--------------------------------------- Iteration      1(  20)  ---------------------------------------


    POTLOK:  cpu time    0.3131: real time    0.3134
    SETDIJ:  cpu time    0.0120: real time    0.0120
    EDDIAG:  cpu time    2.5883: real time    2.5908
  RMM-DIIS:  cpu time   43.5170: real time   43.6185
    ORTHCH:  cpu time    0.2339: real time    0.2341
       DOS:  cpu time    0.0004: real time    0.0004
    CHARGE:  cpu time    1.1793: real time    1.1888
    MIXING:  cpu time    0.0091: real time    0.0091
    --------------------------------------------
      LOOP:  cpu time   47.8531: real time   47.9672

 eigenvalue-minimisations  :  2144
 total energy-change (2. order) :-0.7023908E-03  (-0.7446766E-05)
 number of electron     324.0000011 magnetization 
 augmentation part      -21.2298740 magnetization 

 Broyden mixing:
  rms(total) = 0.57194E-03    rms(broyden)= 0.57194E-03
  rms(prec ) = 0.67208E-03
  weight for this iteration     100.00

 eigenvalues of (default mixing * dielectric matrix)
  average eigenvalue GAMMA=   1.5050
  6.6595  3.2208  2.4730  1.8727  1.8727  1.0448  1.0448  0.7966  0.7966  0.6370
  0.6370  0.3984  0.3918  0.3693  0.3597

 Free energy of the ion-electron system (eV)
  ---------------------------------------------------
  alpha Z        PSCENC =       242.09899334
  Ewald energy   TEWEN  =     64497.71758256
  -Hartree energ DENC   =    -76332.70680610
  -exchange      EXHF   =         0.00000000
  -V(xc)+E(xc)   XCENC  =     -2090.16828783
  PAW double counting   =      8238.40984105    -5593.49794019
  entropy T*S    EENTRO =        -0.00000000
  eigenvalues    EBANDS =     -1238.25151818
  atomic energy  EATOM  =     11953.08265402
  Solvation  Ediel_sol  =         0.00000000
  ---------------------------------------------------
  free energy    TOTEN  =      -323.31548133 eV

  energy without entropy =     -323.31548133  energy(sigma->0) =     -323.31548133


--------------------------------------------------------------------------------------------------------




--------------------------------------- Iteration      1(  21)  ---------------------------------------


    POTLOK:  cpu time    0.3107: real time    0.3110
    SETDIJ:  cpu time    0.0121: real time    0.0121
    EDDIAG:  cpu time    2.6124: real time    2.6148
  RMM-DIIS:  cpu time   47.9028: real time   48.0189
    ORTHCH:  cpu time    0.2244: real time    0.2247
       DOS:  cpu time    0.0005: real time    0.0005
    CHARGE:  cpu time    1.1941: real time    1.1952
    MIXING:  cpu time    0.0093: real time    0.0093
    --------------------------------------------
      LOOP:  cpu time   52.2664: real time   52.3865

 eigenvalue-minimisations  :  2297
 total energy-change (2. order) :-0.1071248E-03  (-0.2177785E-05)
 number of electron     324.0000011 magnetization 
 augmentation part      -21.2296428 magnetization 

 Broyden mixing:
  rms(total) = 0.54558E-03    rms(broyden)= 0.54558E-03
  rms(prec ) = 0.63364E-03
  weight for this iteration     100.00

 eigenvalues of (default mixing * dielectric matrix)
  average eigenvalue GAMMA=   1.5624
  7.3376  3.3906  2.5536  1.8977  1.8977  1.7663  1.0473  0.9688  0.7909  0.7909
  0.6570  0.3974  0.3890  0.3890  0.3672  0.3569

 Free energy of the ion-electron system (eV)
  ---------------------------------------------------
  alpha Z        PSCENC =       242.09899334
  Ewald energy   TEWEN  =     64497.71758256
  -Hartree energ DENC   =    -76332.80609796
  -exchange      EXHF   =         0.00000000
  -V(xc)+E(xc)   XCENC  =     -2090.16862892
  PAW double counting   =      8238.48221832    -5593.57078762
  entropy T*S    EENTRO =        -0.00000000
  eigenvalues    EBANDS =     -1238.15152219
  atomic energy  EATOM  =     11953.08265402
  Solvation  Ediel_sol  =         0.00000000
  ---------------------------------------------------
  free energy    TOTEN  =      -323.31558845 eV

  energy without entropy =     -323.31558845  energy(sigma->0) =     -323.31558845


--------------------------------------------------------------------------------------------------------




--------------------------------------- Iteration      1(  22)  ---------------------------------------


    POTLOK:  cpu time    0.3159: real time    0.3162
    SETDIJ:  cpu time    0.0134: real time    0.0134
    EDDIAG:  cpu time    2.5762: real time    2.5787
  RMM-DIIS:  cpu time   34.1310: real time   34.1956
    ORTHCH:  cpu time    0.2213: real time    0.2215
       DOS:  cpu time    0.0004: real time    0.0004
    CHARGE:  cpu time    1.2004: real time    1.2095
    MIXING:  cpu time    0.0093: real time    0.0093
    --------------------------------------------
      LOOP:  cpu time   38.4679: real time   38.5446

 eigenvalue-minimisations  :  1610
 total energy-change (2. order) :-0.1556971E-03  (-0.5953560E-06)
 number of electron     324.0000011 magnetization 
 augmentation part      -21.2307063 magnetization 

 Broyden mixing:
  rms(total) = 0.24686E-03    rms(broyden)= 0.24685E-03
  rms(prec ) = 0.30093E-03
  weight for this iteration     100.00

 eigenvalues of (default mixing * dielectric matrix)
  average eigenvalue GAMMA=   1.6361
  7.7178  3.8614  2.7801  2.4512  1.8690  1.8690  1.0531  1.0531  1.0301  0.7920
  0.7920  0.6497  0.3985  0.3909  0.3843  0.3636  0.3571

[...]
  0.000   0.000   0.000   0.000  -0.000   0.011  -0.000   0.000
  0.000  -0.000   0.000   0.000  -0.000  -0.000   0.011   0.000
 -0.000  -0.000  -0.000  -0.000   0.000   0.000   0.000   0.011
  0.000   0.000   0.001   0.000  -0.001  -0.000  -0.000  -0.000
  0.000  -0.000   0.013  -0.001   0.000   0.000   0.000  -0.000
 -0.009  -0.000   0.000   0.018  -0.000  -0.000   0.000   0.000
  0.000   0.000   0.000   0.001   0.013  -0.000  -0.000   0.000
 -0.001  -0.000  -0.000  -0.000   0.001  -0.000   0.000  -0.000
 total augmentation occupancy for first ion, spin component:           1
  1.937   0.188   0.003  -0.200   0.002   0.009  -0.037  -0.005  -0.001  -0.001   0.008   0.001   0.001
  0.188   1.326  -0.024   0.916   0.008   0.005  -0.358  -0.017   0.005  -0.004  -0.024   0.002  -0.008
  0.003  -0.024   1.335  -0.008   0.006  -0.461   0.012   0.000   0.003   0.114   0.000   0.002   0.045
 -0.200   0.916  -0.008   1.487   0.006   0.012  -0.537  -0.010   0.000  -0.004   0.040   0.005   0.001
  0.002   0.008   0.006   0.006   1.331   0.000  -0.010  -0.462   0.037   0.002   0.003   0.113   0.000
  0.009   0.005  -0.461   0.012   0.000   0.299  -0.005   0.005  -0.002  -0.035   0.000   0.001  -0.008
 -0.037  -0.358   0.012  -0.537  -0.010  -0.005   0.277   0.004  -0.000   0.002  -0.043  -0.002  -0.000
 -0.005  -0.017   0.000  -0.010  -0.462   0.005   0.004   0.287  -0.007   0.001   0.001  -0.036  -0.001
 -0.001   0.005   0.003   0.000   0.037  -0.002  -0.000  -0.007   0.020   0.000  -0.001  -0.001  -0.000
 -0.001  -0.004   0.114  -0.004   0.002  -0.035   0.002   0.001   0.000   0.018  -0.000   0.000   0.000
  0.008  -0.024   0.000   0.040   0.003   0.000  -0.043   0.001  -0.001  -0.000   0.019   0.001   0.001
  0.001   0.002   0.002   0.005   0.113   0.001  -0.002  -0.036  -0.001   0.000   0.001   0.017   0.000
  0.001  -0.008   0.045   0.001   0.000  -0.008  -0.000  -0.001  -0.000   0.000   0.001   0.000   0.019


------------------------ aborting loop because EDIFF is reached ----------------------------------------


    CHARGE:  cpu time    1.1875: real time    1.1886
    FORLOC:  cpu time    0.0792: real time    0.0827
    FORNL :  cpu time   14.0058: real time   14.0382
    STRESS:  cpu time   72.8438: real time   73.0083
    FORCOR:  cpu time    0.3396: real time    0.3399
    FORHAR:  cpu time    0.1404: real time    0.1405
    MIXING:  cpu time    0.0108: real time    0.0108
    OFIELD:  cpu time    0.0000: real time    0.0000

  Number of pair interactions contributing to vdW energy:  266995
  Edisp (eV):  -19.23320
    FORVDW:  cpu time    0.0294: real time    0.0294

  FORCE on cell =-STRESS in cart. coord.  units (eV):
  Direction    XX          YY          ZZ          XY          YZ          ZX
  --------------------------------------------------------------------------------------
  Alpha Z   242.09899   242.09899   242.09899
  Ewald   73603.96559 73741.99426-82791.46339    33.70043    -2.78641    17.27609
  Hartree 75996.60423 76035.17828-75643.65162     7.72014    -0.33225     1.94350
  E(xc)   -1349.00730 -1351.08975 -1367.89135    -0.85523     0.09862    -0.67862
  Local  ************************153386.68011   -40.22978     3.10744   -19.26756
  n-local  3540.16616  3537.54670  3718.81093    -0.68990    -0.71602     4.91870
  augment  -762.11068  -758.97230  -800.43887     1.08035     0.11272    -0.81531
  Kinetic  3270.23214  3305.06936  3230.28245    10.50437    -0.45896     2.71333
  Fock        0.00000     0.00000     0.00000     0.00000     0.00000     0.00000
  vdW       -12.07649   -11.79669    -9.82225    -0.10087     0.02029    -0.25492
  -------------------------------------------------------------------------------------
  Total     -27.12742    11.11753   -35.39499    11.12951    -0.95456     5.83520
  in kB     -14.66188     6.00882   -19.13035     6.01530    -0.51592     3.15382
  external pressure =       -9.26 kB  Pullay stress =        0.00 kB

  kinetic pressure (ideal gas correction) =      0.23 kB
  total pressure  =     -9.04 kB
  Total+kin.   -14.459       6.235     -18.884       5.981      -0.547       3.165

 VOLUME and BASIS-vectors are now :
 -----------------------------------------------------------------------------
  energy-cutoff  :      550.00
  volume of cell :     2964.35
      direct lattice vectors                 reciprocal lattice vectors
    10.777469922  0.000000000  0.000000000     0.092786155  0.058270108  0.000705569
    -5.622362145  8.952744130  0.000000000     0.000000000  0.111697596 -0.000000312
    -0.233675306  0.000085728 30.722496553     0.000000000  0.000000000  0.032549438

  length of vectors
    10.777469922 10.571782420 30.723385208     0.109568125  0.111697596  0.032549438


 FORCES acting on ions
    electron-ion (+dipol)            ewald-force                    non-local-force                 convergence-correction
 -----------------------------------------------------------------------------------------------
   0.264E+01 -.993E+00 0.844E+03   -.255E+01 0.883E+00 -.849E+03   -.343E+00 0.158E+00 0.557E+01   -.957E-05 0.776E-03 0.149E-03
   0.192E+01 -.251E+01 0.845E+03   -.191E+01 0.245E+01 -.850E+03   -.791E-01 0.253E+00 0.556E+01   0.105E-03 -.744E-03 -.167E-03
   0.236E+01 0.452E+00 0.842E+03   -.230E+01 -.513E+00 -.847E+03   -.166E+00 0.982E-01 0.559E+01   0.528E-03 0.307E-03 -.219E-03
   0.431E+00 -.240E+01 0.842E+03   -.385E+00 0.230E+01 -.847E+03   -.119E+00 0.207E+00 0.562E+01   -.360E-03 0.427E-04 0.566E-03
   0.181E+01 -.565E+00 0.843E+03   -.176E+01 0.517E+00 -.849E+03   -.235E+00 -.851E-01 0.575E+01   0.301E-03 -.417E-03 0.225E-03
   0.198E+01 -.912E+00 0.843E+03   -.196E+01 0.869E+00 -.849E+03   -.149E+00 0.935E-01 0.568E+01   0.581E-04 0.549E-03 0.404E-04
   0.147E+01 -.292E+01 0.845E+03   -.143E+01 0.282E+01 -.850E+03   -.214E+00 0.342E+00 0.552E+01   0.418E-03 -.131E-03 0.192E-03
   -.131E+01 -.278E+01 0.841E+03   0.135E+01 0.269E+01 -.847E+03   0.165E+00 0.196E+00 0.563E+01   -.479E-03 -.165E-03 -.103E-03
   -.524E+00 -.236E+01 0.841E+03   0.601E+00 0.233E+01 -.847E+03   -.852E-01 0.246E+00 0.566E+01   -.663E-03 -.146E-03 -.154E-03
   0.176E+01 -.295E+01 -.112E+03   -.170E+01 0.291E+01 0.107E+03   -.215E+00 0.183E+00 0.579E+01   -.950E-03 0.165E-02 0.822E-04
   -.666E+00 -.942E+00 -.114E+03   0.763E+00 0.899E+00 0.109E+03   -.919E-01 -.100E+00 0.594E+01   0.459E-03 -.123E-02 0.560E-03
   0.113E+01 -.134E+01 -.113E+03   -.108E+01 0.128E+01 0.107E+03   -.309E+00 0.231E+00 0.571E+01   0.179E-03 -.717E-03 -.141E-02
   0.278E+01 -.166E+01 -.110E+03   -.268E+01 0.161E+01 0.105E+03   -.438E+00 0.317E+00 0.526E+01   -.824E-03 0.523E-03 -.156E-02
   0.446E+01 -.267E+01 -.111E+03   -.443E+01 0.261E+01 0.106E+03   -.251E+00 0.134E+00 0.565E+01   -.229E-04 0.904E-04 0.358E-03
   -.172E+00 0.110E+01 -.113E+03   0.301E+00 -.115E+01 0.108E+03   -.981E-01 0.572E-01 0.601E+01   0.183E-02 -.188E-04 0.422E-03
   0.934E+00 -.193E+01 -.111E+03   -.809E+00 0.182E+01 0.105E+03   -.375E+00 0.190E+00 0.572E+01   0.186E-02 -.106E-02 0.894E-03
   -.242E+00 -.198E+01 -.110E+03   0.315E+00 0.194E+01 0.105E+03   -.248E+00 0.159E+00 0.555E+01   -.349E-03 0.716E-03 -.856E-03
   0.325E+01 -.207E+01 -.112E+03   -.318E+01 0.207E+01 0.107E+03   -.276E+00 0.101E+00 0.544E+01   -.204E-02 -.227E-04 0.561E-03
   0.580E+01 -.155E+01 0.109E+03   -.584E+01 0.149E+01 -.104E+03   -.305E+00 0.131E+00 -.552E+01   0.259E-03 0.715E-03 0.194E-03
   -.147E+01 -.129E+01 0.112E+03   0.147E+01 0.126E+01 -.107E+03   0.310E+00 0.882E-01 -.543E+01   0.127E-04 -.694E-03 0.157E-03
   0.192E+01 0.902E+00 0.111E+03   -.190E+01 -.939E+00 -.106E+03   0.396E-01 0.211E-01 -.571E+01   0.461E-03 0.463E-03 0.531E-03
   -.249E+01 -.259E+01 0.108E+03   0.257E+01 0.251E+01 -.103E+03   0.158E+00 0.157E+00 -.568E+01   -.513E-03 0.109E-03 0.951E-04
   0.102E+01 -.446E+01 0.112E+03   -.100E+01 0.449E+01 -.107E+03   -.260E-01 0.187E+00 -.549E+01   0.407E-03 -.724E-03 0.600E-05
   0.683E+00 -.176E+00 0.112E+03   -.644E+00 0.936E-01 -.107E+03   -.107E+00 0.139E+00 -.563E+01   0.780E-04 0.650E-03 -.309E-04
   -.501E+00 -.151E+01 0.111E+03   0.523E+00 0.148E+01 -.106E+03   0.767E-01 0.153E+00 -.568E+01   0.299E-03 -.139E-03 -.154E-03
   0.217E+01 -.259E+01 0.111E+03   -.218E+01 0.256E+01 -.106E+03   -.382E-01 0.784E-02 -.577E+01   -.387E-03 -.208E-03 0.398E-03
   -.262E-01 -.591E+00 0.114E+03   0.352E-01 0.557E+00 -.109E+03   0.132E+00 0.712E-01 -.582E+01   -.624E-03 -.550E-04 0.273E-03
   0.718E+00 -.160E+01 -.842E+03   -.770E+00 0.156E+01 0.848E+03   0.124E+00 -.460E-02 -.592E+01   -.102E-02 0.158E-02 -.220E-03
   -.947E+00 -.130E+01 -.841E+03   0.972E+00 0.122E+01 0.846E+03   0.166E+00 0.596E-01 -.582E+01   0.420E-03 -.121E-02 -.590E-03
   -.256E+01 -.395E+01 -.842E+03   0.256E+01 0.395E+01 0.848E+03   0.252E+00 0.296E+00 -.581E+01   -.270E-04 -.700E-03 0.140E-02
   0.406E+00 -.278E+01 -.844E+03   -.347E+00 0.271E+01 0.849E+03   -.247E-01 0.478E+00 -.526E+01   -.920E-03 0.415E-03 0.119E-02
   0.150E+01 -.565E+00 -.844E+03   -.153E+01 0.475E+00 0.849E+03   0.168E+00 -.129E-01 -.564E+01   0.159E-05 0.183E-03 -.444E-03
   0.194E+00 -.147E+01 -.841E+03   -.181E+00 0.146E+01 0.846E+03   0.164E+00 0.131E+00 -.581E+01   0.176E-02 -.734E-04 -.455E-03
   0.220E+01 -.129E+01 -.842E+03   -.217E+01 0.114E+01 0.847E+03   -.174E+00 0.154E+00 -.563E+01   0.195E-02 -.107E-02 -.115E-02
   0.799E+00 0.337E+01 -.843E+03   -.860E+00 -.352E+01 0.848E+03   0.115E-01 -.200E+00 -.551E+01   -.447E-03 0.978E-03 0.642E-03
   0.424E+01 -.455E+01 -.842E+03   -.426E+01 0.457E+01 0.847E+03   -.130E+00 0.294E+00 -.572E+01   -.184E-02 -.122E-03 -.634E-03
   0.139E+01 0.612E+01 0.479E+03   -.135E+01 -.617E+01 -.479E+03   -.155E+00 -.330E+00 0.115E+00   -.738E-04 0.688E-03 0.261E-04
   -.252E+01 0.495E+01 0.478E+03   0.257E+01 -.510E+01 -.478E+03   0.198E+00 -.266E+00 0.885E-01   0.322E-04 -.193E-03 -.101E-03
   0.121E+01 0.161E+01 0.479E+03   -.122E+01 -.167E+01 -.480E+03   -.370E+00 0.120E+00 -.564E-01   0.106E-03 -.269E-03 -.231E-04
   -.362E+01 0.444E+01 0.473E+03   0.368E+01 -.450E+01 -.473E+03   0.184E+00 -.238E+00 -.117E+00   0.200E-03 0.590E-03 -.168E-03
   -.291E+01 0.149E+00 0.475E+03   0.302E+01 -.219E+00 -.475E+03   0.189E+00 0.283E+00 -.384E+00   0.176E-03 0.197E-03 0.142E-04
   -.215E+01 0.222E+01 0.478E+03   0.217E+01 -.227E+01 -.478E+03   -.565E-01 -.170E+00 -.344E-01   0.283E-03 -.258E-03 -.337E-04
   -.324E+01 0.384E+01 0.481E+03   0.328E+01 -.392E+01 -.481E+03   0.915E-01 -.178E+00 0.215E+00   -.635E-04 0.246E-03 0.821E-04
   -.162E+01 0.252E+01 0.475E+03   0.166E+01 -.264E+01 -.475E+03   -.144E+00 -.789E-01 0.367E-01   -.326E-03 -.304E-03 -.726E-04
   -.348E+01 0.122E+01 0.476E+03   0.352E+01 -.129E+01 -.476E+03   0.117E+00 0.943E-01 0.139E+00   -.471E-03 -.334E-03 -.897E-04
   -.406E+01 0.481E+00 -.473E+03   0.419E+01 -.535E+00 0.473E+03   0.412E-02 0.305E+00 0.805E-01   0.108E-03 -.309E-03 0.137E-03
   -.652E+01 0.332E+01 -.479E+03   0.659E+01 -.338E+01 0.479E+03   0.229E+00 -.772E-01 -.221E+00   0.415E-03 -.828E-03 0.499E-04
   -.342E+01 -.101E+01 -.475E+03   0.348E+01 0.103E+01 0.475E+03   0.299E+00 0.855E-01 0.272E+00   -.190E-02 0.623E-03 0.115E-03
   0.259E+01 0.284E+01 -.480E+03   -.258E+01 -.287E+01 0.480E+03   -.844E-01 -.315E+00 -.111E+00   -.118E-02 0.138E-02 -.522E-04
   -.467E-01 0.179E+01 -.479E+03   0.737E-01 -.185E+01 0.479E+03   -.182E+00 0.201E+00 -.290E+00   0.795E-03 -.508E-03 -.553E-04
   -.160E+01 0.915E+01 -.477E+03   0.165E+01 -.936E+01 0.477E+03   -.156E+00 -.653E+00 0.107E+00   0.900E-03 -.354E-03 0.152E-03
   -.650E+01 0.262E+01 -.479E+03   0.660E+01 -.269E+01 0.479E+03   0.590E+00 0.637E-01 0.539E-01   0.933E-03 0.953E-04 -.364E-05
   0.128E+01 0.258E+01 -.473E+03   -.125E+01 -.271E+01 0.473E+03   -.156E+00 0.423E-01 0.203E+00   -.141E-02 0.566E-03 0.174E-03
   -.267E+00 0.520E+01 -.479E+03   0.313E+00 -.527E+01 0.480E+03   -.299E-01 -.457E+00 -.370E-01   0.954E-03 -.213E-03 0.846E-05
 -----------------------------------------------------------------------------------------------
   0.216E+01 -.336E+01 0.144E+00   -.637E-13 0.622E-13 0.682E-12   -.216E+01 0.336E+01 -.146E+00   -.617E-03 0.912E-03 0.937E-03
 
 
 POSITION                                       TOTAL-FORCE (eV/Angst)
 -----------------------------------------------------------------------------------
     -0.11037      1.99679      9.85117        -0.241895      0.057213      0.443402
     -1.99630      4.96414      9.84348        -0.078021      0.189222      0.414103
     -3.86971      7.96177      9.86811        -0.104707      0.044383      0.393705
      3.45633      1.99410      9.86740        -0.072832      0.105582      0.500732
      1.58851      4.97830      9.84412        -0.179762     -0.126709      0.595836
     -0.30364      7.97622      9.84657        -0.138697      0.060490      0.518089
      7.06358      1.98368      9.84507        -0.177209      0.247507      0.399593
      5.15373      4.96771      9.86428         0.190629      0.104875      0.428842
      3.29956      7.94255      9.85720        -0.012793      0.213639      0.438500
      0.78013      0.48778     17.15176        -0.146703      0.147588      0.609685
     -1.12638      3.50596     17.16117         0.003086     -0.130839      0.681084
     -2.97425      6.45072     17.17049        -0.250280      0.173104      0.459445
      4.35838      0.48706     17.17800        -0.330097      0.266154      0.101959
      2.48846      3.48124     17.15883        -0.222462      0.078709      0.493289
      0.59522      6.47179     17.15357         0.031886      0.007198      0.747584
      7.95053      0.50428     17.15392        -0.243377      0.080570      0.505318
      6.07913      3.47080     17.17015        -0.172391      0.112020      0.338801
      4.18835      6.46787     17.18667        -0.206006      0.100888      0.160880
     -0.13281      1.98730     13.55780        -0.330186      0.082006     -0.308899
     -2.04329      4.98036     13.53083         0.297707      0.060905     -0.178036
     -3.90976      7.96645     13.55906         0.056996     -0.010094     -0.443489
      3.42303      2.00132     13.58024         0.227469      0.083965     -0.456028
      1.55946      4.96343     13.53677        -0.013836      0.213887     -0.213092
     -0.29720      7.97159     13.54374        -0.068621      0.068148     -0.381511
      7.03004      1.98886     13.55686         0.091004      0.117012     -0.476709
      5.17208      4.99326     13.55812        -0.044656     -0.011529     -0.486567
      3.26446      7.96657     13.54053         0.130286      0.041315     -0.507926
      0.72433      0.50335     20.89765         0.064554     -0.038061     -0.851716
     -1.16603      3.47741     20.88298         0.180377     -0.019848     -0.661020
     -3.05485      6.45484     20.88780         0.234119      0.288337     -0.684084
      4.30749      0.47010     20.85764         0.026851      0.400782     -0.143914
      2.44798      3.50812     20.89114         0.141645     -0.087676     -0.571275
      0.55458      6.47252     20.87763         0.167550      0.124080     -0.626540
      7.92541      0.52086     20.86683        -0.146533      0.022328     -0.491171
      6.02923      3.51512     20.86455        -0.056310     -0.322681     -0.381548
      4.17899      6.43931     20.87296        -0.144933      0.298865     -0.585316
     -0.07556      0.00897     11.69697        -0.136719     -0.431457      0.090940
     -1.96232      2.98800     11.69439         0.260671     -0.421790      0.110878
     -3.80432      5.95380     11.70321        -0.387543      0.079300     -0.151057
      3.49366      0.01563     11.72510         0.256708     -0.323093     -0.118182
      1.62074      2.95789     11.73281         0.307041      0.241459     -0.536612
     -0.23708      5.97326     11.69517        -0.032164     -0.233381     -0.045370
      7.09055      0.01021     11.68049         0.143805     -0.275313      0.244424
      5.23615      2.97916     11.71099        -0.115171     -0.196406      0.063124
      3.34151      5.94540     11.69679         0.178639      0.044436      0.216918
      9.70723      1.46724     19.00607         0.139411      0.275349      0.078597
      7.81209      4.46813     19.03978         0.319220     -0.143225     -0.266262
      5.94020      7.44271     19.00462         0.383829      0.116072      0.349269
      2.52680      1.50351     19.03254        -0.102497     -0.380544     -0.080999
      0.65822      4.45607     19.04212        -0.160958      0.160256     -0.338001
     -1.23179      7.48505     19.01193        -0.115279     -0.926313      0.165472
      6.06944      1.48091     19.01612         0.728672      0.010804      0.203166
      4.24493      4.46203     19.00170        -0.136287     -0.067157      0.218741
      2.36163      7.48369     19.02541         0.005249     -0.573504      0.012127
 -----------------------------------------------------------------------------------
    total drift:                               -0.001519     -0.001172     -0.000820


--------------------------------------------------------------------------------------------------------



  FREE ENERGIE OF THE ION-ELECTRON SYSTEM (eV)
  ---------------------------------------------------
  free  energy   TOTEN  =      -342.47281972 eV

  energy  without entropy=     -342.47281972  energy(sigma->0) =     -342.47281972
 
 d Force =-0.1041797E-01[-0.127E-01,-0.818E-02]  d Energy =-0.1034409E-01-0.739E-04
 d Force =-0.1510483E+02[-0.151E+02,-0.151E+02]  d Ewald  =-0.1510483E+02-0.206E-05


--------------------------------------------------------------------------------------------------------


    POTLOK:  cpu time    0.3288: real time    0.3290


--------------------------------------------------------------------------------------------------------


           RANDOM_SEED =         157453578              324                0
   IONSTEP:  cpu time    0.0001: real time    0.0001

  ENERGY OF THE ELECTRON-ION-THERMOSTAT SYSTEM (eV)
  ---------------------------------------------------
% ion-electron   TOTEN  =      -342.472820  see above
  kinetic energy EKIN   =         0.622898
  kin. lattice  EKIN_LAT=         0.000000  (temperature   90.92 K)
  nose potential ES     =        -0.022644
  nose kinetic   EPS    =         0.001624
  ---------------------------------------------------
  total energy   ETOTAL =      -341.870943 eV

  maximum distance moved by ions :      0.48E-03


 mean value of Nose-termostat <S>:     0.978 mean value of <T> :    90.923
 mean temperature <T/S>/<1/S>  :    90.923

    WAVPRE:  cpu time    0.1090: real time    0.1111
    FEWALD:  cpu time    0.0009: real time    0.0009
    ORTHCH:  cpu time    8.1600: real time    8.1756
    POTLOK:  cpu time    0.3244: real time    0.3247
    EDDIAG:  cpu time    2.6014: real time    2.6069
     LOOP+:  cpu time  485.1535: real time  486.2817
    4ORBIT:  cpu time    0.0000: real time    0.0000

 total amount of memory used by VASP MPI-rank0   376521. kBytes
=======================================================================

   base      :      30000. kBytes
   nonl-proj :     200171. kBytes
   fftplans  :      19943. kBytes
   grid      :      90496. kBytes
   one-center:        839. kBytes
   wavefun   :      35072. kBytes
 
  
  
 General timing and accounting informations for this job:
 ========================================================
  
                  Total CPU time used (sec):     5769.478
                            User time (sec):     5757.080
                          System time (sec):       12.397
                         Elapsed time (sec):     5783.019
  
                   Maximum memory used (kb):      838540.
                   Average memory used (kb):           0.
  
                          Minor page faults:       391419
                          Major page faults:            0
                 Voluntary context switches:          705
