-3.384094302899999889e+02
-3.384065852699999937e+02
-3.383981649799999900e+02
-3.383843659600000251e+02
-3.383655190700000048e+02
-3.383420747700000106e+02
-3.383145801699999993e+02
-3.382836551199999917e+02
-3.382499717399999781e+02
-3.382142248000000109e+02
-3.377752968899999928e+02
-3.377797724999999787e+02
-3.377816554099999848e+02
-3.377809404100000279e+02
-3.377777046400000245e+02
-3.377720922899999891e+02
-3.377643125600000076e+02
-3.377546363700000143e+02
-3.377433801500000072e+02
-3.377308942299999899e+02
-3.375479684599999928e+02
-3.375529867999999851e+02
-3.375550175999999851e+02
-3.375541598600000270e+02
-3.375506303899999807e+02
-3.375447575599999936e+02
-3.375369702599999755e+02
-3.375277687199999832e+02
-3.375177181099999757e+02
-3.375074199100000101e+02
-3.365950594299999921e+02
-3.366047196299999769e+02
-3.366150809700000082e+02
-3.366261859400000276e+02
-3.366381486899999800e+02
-3.366511468200000081e+02
-3.366653896000000259e+02
-3.366810907000000270e+02
-3.366984388500000023e+02
-3.367175639299999830e+02
-3.378547235400000091e+02
-3.378518287200000145e+02
-3.378455948499999977e+02
-3.378361771200000021e+02
-3.378238368599999717e+02
-3.378089365999999814e+02
-3.377919196099999795e+02
-3.377732880899999941e+02
-3.377535885799999846e+02
-3.377333903699999951e+02
-3.377834439999999745e+02
-3.377795041100000049e+02
-3.377722389300000145e+02
-3.377619117300000084e+02
-3.377488770699999918e+02
-3.377335652799999934e+02
-3.377164645899999869e+02
-3.376981024799999886e+02
-3.376790243099999884e+02
-3.376597782299999722e+02
-3.379118136499999991e+02
-3.379103224799999907e+02
-3.379040092399999935e+02
-3.378931031800000255e+02
-3.378779789700000151e+02
-3.378591375799999810e+02
-3.378371753199999716e+02
-3.378127725800000007e+02
-3.377866571800000202e+02
-3.377595815299999913e+02
-3.372687334299999975e+02
-3.372684887600000252e+02
-3.372669112599999721e+02
-3.372641967000000136e+02
-3.372606096299999763e+02
-3.372564719399999831e+02
-3.372521443599999884e+02
-3.372480040400000121e+02
-3.372444282199999748e+02
-3.372417700999999965e+02
-3.373489009400000214e+02
-3.373365581300000144e+02
-3.373218908299999725e+02
-3.373053181500000051e+02
-3.372873164399999837e+02
-3.372684064399999784e+02
-3.372491211099999759e+02
-3.372299944900000241e+02
-3.372115356900000052e+02
-3.371942091500000060e+02
-3.375225520299999857e+02
-3.375201405500000078e+02
-3.375128924599999891e+02
-3.375010445500000174e+02
-3.374849739100000079e+02
-3.374651787399999989e+02
-3.374422588799999971e+02
-3.374168907399999853e+02
-3.373897997400000008e+02
-3.373617408399999817e+02
-3.381845966299999873e+02
-3.381840037800000118e+02
-3.381773595500000056e+02
-3.381649173100000212e+02
-3.381471246500000234e+02
-3.381246082499999943e+02
-3.380981346899999949e+02
-3.380685697700000105e+02
-3.380368395500000247e+02
-3.380038911699999744e+02
-3.373822253800000226e+02
-3.373757889799999816e+02
-3.373688666699999885e+02
-3.373616339199999743e+02
-3.373543009800000050e+02
-3.373471109700000170e+02
-3.373403345899999977e+02
-3.373342499899999893e+02
-3.373291489100000149e+02
-3.373253241900000035e+02
-3.376215695299999879e+02
-3.376272272799999996e+02
-3.376274324199999910e+02
-3.376222312799999941e+02
-3.376118567899999903e+02
-3.375967194400000153e+02
-3.375773765100000219e+02
-3.375545126100000175e+02
-3.375288887799999884e+02
-3.375013178599999719e+02
-3.379996949599999994e+02
-3.379981908699999735e+02
-3.379926915099999860e+02
-3.379834762599999749e+02
-3.379709654000000114e+02
-3.379556982999999946e+02
-3.379382997899999737e+02
-3.379194605299999807e+02
-3.378998930299999870e+02
-3.378803082499999846e+02
-3.377387865300000271e+02
-3.377518328200000042e+02
-3.377617835099999866e+02
-3.377685729599999718e+02
-3.377722493200000144e+02
-3.377729618100000266e+02
-3.377709594199999970e+02
-3.377665612299999793e+02
-3.377601586000000111e+02
-3.377521709100000180e+02
-3.368598947400000156e+02
-3.368795393699999750e+02
-3.369017773400000237e+02
-3.369262898399999813e+02
-3.369527879799999823e+02
-3.369810161300000004e+02
-3.370107433399999763e+02
-3.370417464299999892e+02
-3.370738102600000161e+02
-3.371067111699999828e+02
-3.376131657799999743e+02
-3.376155164400000217e+02
-3.376150352000000225e+02
-3.376118695200000275e+02
-3.376062690399999724e+02
-3.375985752500000103e+02
-3.375891998999999828e+02
-3.375786155399999870e+02
-3.375673296900000082e+02
-3.375558690999999953e+02
-3.375584976399999846e+02
-3.375638971999999853e+02
-3.375663847600000054e+02
-3.375659930300000156e+02
-3.375628382500000271e+02
-3.375571256100000141e+02
-3.375491288200000213e+02
-3.375391868699999804e+02
-3.375276814399999807e+02
-3.375150368199999775e+02
-3.377520504999999957e+02
-3.377448153500000103e+02
-3.377341747799999894e+02
-3.377202983399999994e+02
-3.377034597300000200e+02
-3.376840396700000042e+02
-3.376624975500000119e+02
-3.376393585299999813e+02
-3.376151902199999881e+02
-3.375905798200000163e+02
-3.375927750999999830e+02
-3.375906567800000175e+02
-3.375873849000000178e+02
-3.375830293800000277e+02
-3.375776981800000272e+02
-3.375715266899999847e+02
-3.375646790999999780e+02
-3.375573464899999863e+02
-3.375497301500000162e+02
-3.375420456699999932e+02
-3.373985530499999754e+02
-3.374082685600000104e+02
-3.374153323200000045e+02
-3.374197289300000193e+02
-3.374215657500000134e+02
-3.374210564599999884e+02
-3.374185235499999749e+02
-3.374143693299999995e+02
-3.374090477299999975e+02
-3.374030457100000149e+02
-3.378640720600000122e+02
-3.378661351900000227e+02
-3.378660363399999937e+02
-3.378639476899999750e+02
-3.378601593700000194e+02
-3.378550604299999804e+02
-3.378491142600000217e+02
-3.378428288000000066e+02
-3.378367242099999999e+02
-3.378313144599999873e+02
-3.374248304999999846e+02
-3.374266546599999970e+02
-3.374250225499999942e+02
-3.374201517999999851e+02
-3.374123726000000261e+02
-3.374021062599999823e+02
-3.373898508500000162e+02
-3.373761601400000245e+02
-3.373616158099999893e+02
-3.373468189100000245e+02
-3.371702958500000022e+02
-3.371648219799999993e+02
-3.371600667299999827e+02
-3.371563845900000160e+02
-3.371542031899999756e+02
-3.371539934499999731e+02
-3.371562369700000090e+02
-3.371613971300000117e+02
-3.371698726100000272e+02
-3.371819720699999721e+02
-3.375218044700000064e+02
-3.375298217900000282e+02
-3.375368144899999834e+02
-3.375427207800000247e+02
-3.375475449900000058e+02
-3.375513465299999893e+02
-3.375542512000000102e+02
-3.375564422900000068e+02
-3.375581523600000082e+02
-3.375596590399999855e+02
-3.368108731400000124e+02
-3.368104816499999856e+02
-3.368108011200000078e+02
-3.368118838799999821e+02
-3.368138241300000004e+02
-3.368167553700000099e+02
-3.368208334299999933e+02
-3.368262341899999797e+02
-3.368331261199999744e+02
-3.368416605300000128e+02
-3.376716866900000014e+02
-3.376595955000000231e+02
-3.376457735199999775e+02
-3.376305735099999765e+02
-3.376144636500000047e+02
-3.375979933099999926e+02
-3.375817736000000195e+02
-3.375664480600000275e+02
-3.375526585200000227e+02
-3.375410148099999788e+02
-3.378523018099999717e+02
-3.378425690799999757e+02
-3.378282901700000025e+02
-3.378099469699999986e+02
-3.377881482700000220e+02
-3.377635928600000170e+02
-3.377370450500000061e+02
-3.377092992699999741e+02
-3.376811465999999768e+02
-3.376533534999999802e+02
-3.377112764999999968e+02
-3.377064829999999915e+02
-3.376981637299999761e+02
-3.376865612600000190e+02
-3.376720315599999935e+02
-3.376550262299999758e+02
-3.376360735000000091e+02
-3.376157558799999947e+02
-3.375946880100000271e+02
-3.375734941200000208e+02
-3.374875222300000246e+02
-3.374858912099999770e+02
-3.374833017500000096e+02
-3.374799276900000109e+02
-3.374760066000000052e+02
-3.374718220500000143e+02
-3.374676839599999880e+02
-3.374639177199999835e+02
-3.374608469799999853e+02
-3.374587774099999820e+02
-3.369216093699999988e+02
-3.369247459100000128e+02
-3.369312315600000147e+02
-3.369410778299999834e+02
-3.369543255899999963e+02
-3.369710305199999993e+02
-3.369912461499999949e+02
-3.370150007999999957e+02
-3.370422643399999743e+02
-3.370729330500000174e+02
-3.377314479099999858e+02
-3.377312304299999823e+02
-3.377275178599999776e+02
-3.377205002800000102e+02
-3.377104817000000025e+02
-3.376978792500000282e+02
-3.376831995200000165e+02
-3.376670171200000254e+02
-3.376499508599999899e+02
-3.376326441599999839e+02
-3.376176491300000180e+02
-3.376185407099999907e+02
-3.376165991899999881e+02
-3.376118416200000070e+02
-3.376043506199999911e+02
-3.375942663800000219e+02
-3.375817809499999953e+02
-3.375671280299999921e+02
-3.375505742199999872e+02
-3.375324142100000131e+02
-3.376611940299999901e+02
-3.376574999900000194e+02
-3.376497511300000269e+02
-3.376381490599999893e+02
-3.376229691500000172e+02
-3.376045637600000191e+02
-3.375833425999999804e+02
-3.375597573599999919e+02
-3.375342892699999879e+02
-3.375074258199999804e+02
-3.372817493200000172e+02
-3.372884082799999987e+02
-3.372927484599999843e+02
-3.372948066600000061e+02
-3.372946980799999892e+02
-3.372926133999999934e+02
-3.372888134300000047e+02
-3.372836140800000067e+02
-3.372773739400000181e+02
-3.372704849200000012e+02
-3.380065712300000200e+02
-3.380042788399999836e+02
-3.379964301100000057e+02
-3.379832731899999771e+02
-3.379652154099999848e+02
-3.379428037900000277e+02
-3.379167033800000013e+02
-3.378876642000000174e+02
-3.378564977999999996e+02
-3.378240436500000214e+02
-3.380110050999999771e+02
-3.380122402900000225e+02
-3.380097650000000158e+02
-3.380036625899999763e+02
-3.379941019299999994e+02
-3.379813313000000221e+02
-3.379656645900000171e+02
-3.379474767199999974e+02
-3.379271784300000263e+02
-3.379052152699999851e+02
-3.376357090100000278e+02
-3.376382717000000184e+02
-3.376372802800000272e+02
-3.376328553399999919e+02
-3.376252560799999856e+02
-3.376148609400000282e+02
-3.376021589999999719e+02
-3.375877277600000070e+02
-3.375722072199999957e+02
-3.375562818500000049e+02
-3.379017115300000000e+02
-3.378986486599999921e+02
-3.378910875899999837e+02
-3.378792548700000111e+02
-3.378634825699999737e+02
-3.378441880400000059e+02
-3.378218627900000115e+02
-3.377970519799999920e+02
-3.377703296500000079e+02
-3.377422851399999786e+02
-3.374882118599999785e+02
-3.374941133500000205e+02
-3.374983518700000218e+02
-3.375009233100000188e+02
-3.375018885399999817e+02
-3.375013713100000246e+02
-3.374995520200000101e+02
-3.374966621699999791e+02
-3.374929747300000145e+02
-3.374887919099999749e+02
-3.376196114100000045e+02
-3.376148840600000085e+02
-3.376073322799999801e+02
-3.375971182900000258e+02
-3.375844751700000188e+02
-3.375696968099999822e+02
-3.375531303899999784e+02
-3.375351642699999957e+02
-3.375162190699999769e+02
-3.374967313299999887e+02
-3.372566320799999744e+02
-3.372514138000000230e+02
-3.372425151099999994e+02
-3.372302328999999759e+02
-3.372150008799999910e+02
-3.371973651199999722e+02
-3.371779595099999938e+02
-3.371574777299999823e+02
-3.371366425100000015e+02
-3.371161784299999908e+02
-3.362945077599999877e+02
-3.363119777900000145e+02
-3.363373577200000000e+02
-3.363702012599999875e+02
-3.364099936999999727e+02
-3.364561429899999894e+02
-3.365079843699999742e+02
-3.365647832399999970e+02
-3.366257434699999749e+02
-3.366900123300000018e+02
-3.374462727100000166e+02
-3.374438246000000277e+02
-3.374373507500000073e+02
-3.374271743400000219e+02
-3.374137344200000257e+02
-3.373975821899999801e+02
-3.373793418999999858e+02
-3.373596936399999890e+02
-3.373393396199999756e+02
-3.373189740099999767e+02
-3.376736867199999779e+02
-3.376817214899999726e+02
-3.376860367599999790e+02
-3.376866711299999793e+02
-3.376837733099999923e+02
-3.376775996499999906e+02
-3.376684949200000005e+02
-3.376568805800000064e+02
-3.376432351000000267e+02
-3.376280792300000257e+02
-3.374786029599999893e+02
-3.374947662999999807e+02
-3.375111517899999853e+02
-3.375275936499999716e+02
-3.375440176000000179e+02
-3.375604394999999727e+02
-3.375769446699999889e+02
-3.375936719000000039e+02
-3.376107827299999826e+02
-3.376284382700000037e+02
-3.382289636699999846e+02
-3.382260379599999851e+02
-3.382180887100000177e+02
-3.382054025099999990e+02
-3.381884097099999735e+02
-3.381676570399999946e+02
-3.381437907299999779e+02
-3.381175202000000013e+02
-3.380895936499999834e+02
-3.380607712899999910e+02
-3.376439839099999745e+02
-3.376509755999999811e+02
-3.376560250100000076e+02
-3.376592033300000253e+02
-3.376606814799999938e+02
-3.376607272200000125e+02
-3.376596870700000181e+02
-3.376579775899999731e+02
-3.376560583899999983e+02
-3.376544200199999750e+02
-3.375620566399999802e+02
-3.375631999899999869e+02
-3.375620592600000123e+02
-3.375588308100000177e+02
-3.375538351299999817e+02
-3.375474955399999999e+02
-3.375403129800000102e+02
-3.375328316900000232e+02
-3.375256184899999994e+02
-3.375192264300000033e+02
-3.374356545200000141e+02
-3.374421084400000268e+02
-3.374486446299999898e+02
-3.374551698199999805e+02
-3.374616187799999807e+02
-3.374679653900000176e+02
-3.374742127000000096e+02
-3.374803934799999752e+02
-3.374865654500000005e+02
-3.374928137300000230e+02
-3.375149342700000261e+02
-3.375174656400000117e+02
-3.375173869100000275e+02
-3.375148119799999904e+02
-3.375099388500000259e+02
-3.375030387900000051e+02
-3.374944451700000059e+02
-3.374845456599999807e+02
-3.374737632100000155e+02
-3.374625410099999954e+02
-3.376903696599999876e+02
-3.376870820600000229e+02
-3.376795242100000110e+02
-3.376679478799999856e+02
-3.376527527900000223e+02
-3.376344671599999856e+02
-3.376137101499999744e+02
-3.375911719900000207e+02
-3.375675750199999925e+02
-3.375436416599999916e+02
-3.381290936199999919e+02
-3.381266435100000081e+02
-3.381204950200000212e+02
-3.381108080100000279e+02
-3.380978512799999862e+02
-3.380819919200000072e+02
-3.380636820299999954e+02
-3.380434420500000101e+02
-3.380218274499999893e+02
-3.379994239399999856e+02
-3.382484253100000160e+02
-3.382447369600000115e+02
-3.382353029500000048e+02
-3.382203382700000134e+02
-3.382001987599999779e+02
-3.381753673599999956e+02
-3.381464330200000177e+02
-3.381140638800000033e+02
-3.380789785900000197e+02
-3.380419248599999946e+02
-3.377442371800000274e+02
-3.377385280699999726e+02
-3.377287877200000139e+02
-3.377153854800000090e+02
-3.376988009500000203e+02
-3.376795939500000259e+02
-3.376583909400000039e+02
-3.376358465700000124e+02
-3.376126226399999837e+02
-3.375893664899999749e+02
-3.377490442899999721e+02
-3.377517656300000226e+02
-3.377523798299999953e+02
-3.377509564800000135e+02
-3.377476404799999727e+02
-3.377426486699999941e+02
-3.377362524100000201e+02
-3.377287619900000095e+02
-3.377205004699999904e+02
-3.377118054399999778e+02
-3.376401872800000206e+02
-3.376448074400000223e+02
-3.376466735899999776e+02
-3.376457756699999777e+02
-3.376422334999999748e+02
-3.376363011000000256e+02
-3.376283331000000203e+02
-3.376187840100000130e+02
-3.376081676800000082e+02
-3.375970340000000078e+02
-3.367445363499999758e+02
-3.367524956999999972e+02
-3.367596936099999994e+02
-3.367661965799999848e+02
-3.367721725299999775e+02
-3.367778852100000222e+02
-3.367836677099999747e+02
-3.367898860299999910e+02
-3.367969186000000263e+02
-3.368051040099999796e+02
-3.372629318400000216e+02
-3.372546953899999949e+02
-3.372463600400000132e+02
-3.372381069400000229e+02
-3.372301381999999990e+02
-3.372226847700000008e+02
-3.372159925799999769e+02
-3.372103251999999998e+02
-3.372059466800000109e+02
-3.372031306299999756e+02
-3.376849151299999789e+02
-3.376800262400000179e+02
-3.376717123199999833e+02
-3.376601112399999920e+02
-3.376454537399999936e+02
-3.376280591999999956e+02
-3.376083209199999828e+02
-3.375866859600000112e+02
-3.375636397499999930e+02
-3.375396843500000159e+02
-3.380196876200000133e+02
-3.380203022700000020e+02
-3.380164715500000057e+02
-3.380083183799999915e+02
-3.379960909600000036e+02
-3.379801543500000207e+02
-3.379609574199999997e+02
-3.379390311799999722e+02
-3.379149477299999944e+02
-3.378892969799999833e+02
-3.376797206300000198e+02
-3.376921505899999829e+02
-3.377028922700000066e+02
-3.377118247399999973e+02
-3.377188894999999889e+02
-3.377240929100000244e+02
-3.377275048199999787e+02
-3.377292547199999717e+02
-3.377295224800000142e+02
-3.377285365700000170e+02
-3.375516410399999927e+02
-3.375452812999999992e+02
-3.375355607199999781e+02
-3.375226567299999942e+02
-3.375068431799999757e+02
-3.374884742099999926e+02
-3.374679643100000135e+02
-3.374457820599999991e+02
-3.374224238200000059e+02
-3.373984026599999879e+02
-3.377631683800000246e+02
-3.377717086900000254e+02
-3.377777879500000040e+02
-3.377813735099999803e+02
-3.377825088999999821e+02
-3.377813189099999818e+02
-3.377779982199999722e+02
-3.377728068299999791e+02
-3.377660481099999856e+02
-3.377580634600000167e+02
-3.377027374300000133e+02
-3.377049017100000015e+02
-3.377030513099999780e+02
-3.376974071899999785e+02
-3.376883434800000146e+02
-3.376763594099999750e+02
-3.376620671700000003e+02
-3.376461504200000263e+02
-3.376293463800000154e+02
-3.376124088799999754e+02
-3.366645213799999965e+02
-3.366668930299999829e+02
-3.366740735299999869e+02
-3.366859958300000244e+02
-3.367026533700000073e+02
-3.367240857400000209e+02
-3.367503467000000228e+02
-3.367814756399999965e+02
-3.368174491500000158e+02
-3.368581477500000005e+02
-3.376166784700000107e+02
-3.376184575999999993e+02
-3.376159375899999873e+02
-3.376092337900000189e+02
-3.375985983400000237e+02
-3.375844082699999831e+02
-3.375671560700000100e+02
-3.375474154799999837e+02
-3.375258267099999898e+02
-3.375030725799999800e+02
-3.373293111500000236e+02
-3.373303251300000056e+02
-3.373258602199999814e+02
-3.373161653899999806e+02
-3.373016636799999901e+02
-3.372829303999999979e+02
-3.372606721799999718e+02
-3.372356886900000177e+02
-3.372088462099999902e+02
-3.371810420699999895e+02
-3.380091456700000094e+02
-3.380117927200000167e+02
-3.380105174999999917e+02
-3.380054673299999877e+02
-3.379968960100000004e+02
-3.379851595200000247e+02
-3.379706994100000088e+02
-3.379540172700000085e+02
-3.379356574799999748e+02
-3.379161815599999841e+02
-3.370820966599999906e+02
-3.370862614499999950e+02
-3.370916948099999786e+02
-3.370983655200000157e+02
-3.371062722899999926e+02
-3.371154432999999813e+02
-3.371259123799999884e+02
-3.371377178299999855e+02
-3.371508784999999762e+02
-3.371653890599999954e+02
-3.377599233299999923e+02
-3.377515054500000247e+02
-3.377378367800000092e+02
-3.377192471299999852e+02
-3.376962427400000024e+02
-3.376694773599999735e+02
-3.376397263000000066e+02
-3.376078495200000020e+02
-3.375747553100000005e+02
-3.375413720899999817e+02
-3.364117723900000101e+02
-3.364151269299999854e+02
-3.364214167100000168e+02
-3.364306090000000040e+02
-3.364426574500000129e+02
-3.364575022199999808e+02
-3.364750739099999919e+02
-3.364952846099999988e+02
-3.365180414700000142e+02
-3.365432342600000197e+02
-3.378692519300000185e+02
-3.378721985899999822e+02
-3.378716277300000002e+02
-3.378676070800000275e+02
-3.378602910399999928e+02
-3.378499210499999776e+02
-3.378368097200000193e+02
-3.378213277799999901e+02
-3.378038940199999729e+02
-3.377849564100000066e+02
-3.370630016200000227e+02
-3.370516876099999877e+02
-3.370437763400000222e+02
-3.370394983300000149e+02
-3.370390479499999969e+02
-3.370425658600000247e+02
-3.370501223200000140e+02
-3.370617080999999757e+02
-3.370772171200000003e+02
-3.370964419300000259e+02
-3.374383621700000049e+02
-3.374275905800000146e+02
-3.374151546699999926e+02
-3.374012753499999917e+02
-3.373862379299999930e+02
-3.373703829899999960e+02
-3.373540948300000082e+02
-3.373377862300000061e+02
-3.373218912599999726e+02
-3.373068517699999802e+02
-3.372973298699999987e+02
-3.372905606699999908e+02
-3.372832638699999848e+02
-3.372757241099999987e+02
-3.372683248000000162e+02
-3.372615166200000090e+02
-3.372557938499999750e+02
-3.372516680100000031e+02
-3.372496294599999942e+02
-3.372501304099999970e+02
-3.377759846199999743e+02
-3.377721250299999838e+02
-3.377634877599999754e+02
-3.377502397200000246e+02
-3.377326718900000060e+02
-3.377111846099999752e+02
-3.376862701200000174e+02
-3.376584883500000274e+02
-3.376284529199999724e+02
-3.375968043500000135e+02
-3.374355253800000014e+02
-3.374300223800000254e+02
-3.374214578099999926e+02
-3.374100732699999980e+02
-3.373962113499999873e+02
-3.373803055600000107e+02
-3.373628539900000192e+02
-3.373444063599999936e+02
-3.373255383599999959e+02
-3.373068278999999734e+02
-3.368066389900000104e+02
-3.368125926199999753e+02
-3.368202623399999993e+02
-3.368295999299999721e+02
-3.368405566199999726e+02
-3.368530921500000090e+02
-3.368671725899999956e+02
-3.368827701000000161e+02
-3.368998585200000093e+02
-3.369184140699999830e+02
-3.372675182099999915e+02
-3.372656783599999812e+02
-3.372596298299999944e+02
-3.372495047200000045e+02
-3.372355592700000102e+02
-3.372181496100000118e+02
-3.371977299000000130e+02
-3.371748211400000059e+02
-3.371500075399999901e+02
-3.371239115100000276e+02
-3.379588541599999871e+02
-3.379565591900000072e+02
-3.379500764800000070e+02
-3.379395349700000111e+02
-3.379251686800000130e+02
-3.379072964299999740e+02
-3.378863109999999779e+02
-3.378626611400000002e+02
-3.378368356299999959e+02
-3.378093443199999797e+02
-3.375434344700000224e+02
-3.375413219299999810e+02
-3.375350381499999912e+02
-3.375247852599999874e+02
-3.375108629599999972e+02
-3.374936490599999956e+02
-3.374735913299999766e+02
-3.374511867599999846e+02
-3.374269656199999758e+02
-3.374014732499999809e+02
-3.380285680599999978e+02
-3.380235827199999790e+02
-3.380146631900000216e+02
-3.380020130899999913e+02
-3.379859298200000239e+02
-3.379667855999999801e+02
-3.379450107100000196e+02
-3.379210821400000100e+02
-3.378955066299999999e+02
-3.378687960400000065e+02
-3.372953145000000177e+02
-3.372988858200000095e+02
-3.373037682699999777e+02
-3.373099687900000276e+02
-3.373175065699999777e+02
-3.373264124699999797e+02
-3.373367250700000000e+02
-3.373484938899999861e+02
-3.373617629799999804e+02
-3.373765736899999865e+02
-3.373407771700000239e+02
-3.373440781400000219e+02
-3.373466336600000091e+02
-3.373486872999999946e+02
-3.373506115299999806e+02
-3.373528683299999784e+02
-3.373559716699999740e+02
-3.373604408499999749e+02
-3.373667640799999958e+02
-3.373753485999999953e+02
-3.372151962600000275e+02
-3.372200523100000282e+02
-3.372219163400000070e+02
-3.372208456600000090e+02
-3.372169971700000133e+02
-3.372106071800000109e+02
-3.372020004999999969e+02
-3.371915622399999961e+02
-3.371797302699999932e+02
-3.371669715300000121e+02
-3.374172021800000039e+02
-3.374209956799999759e+02
-3.374242390699999987e+02
-3.374269421999999850e+02
-3.374291506299999810e+02
-3.374309458999999833e+02
-3.374324445500000138e+02
-3.374337875400000257e+02
-3.374351382699999817e+02
-3.374366744899999730e+02
-3.380623414300000036e+02
-3.380624000099999762e+02
-3.380581182799999738e+02
-3.380496024199999852e+02
-3.380370651800000132e+02
-3.380208175299999880e+02
-3.380012543299999948e+02
-3.379788442999999916e+02
-3.379541039000000069e+02
-3.379275832999999807e+02
-3.365975602600000229e+02
-3.366058640900000114e+02
-3.366184263700000088e+02
-3.366351295000000050e+02
-3.366558427800000004e+02
-3.366804070200000183e+02
-3.367086301800000001e+02
-3.367402742400000193e+02
-3.367750545700000089e+02
-3.368126236900000094e+02
-3.375703122900000039e+02
-3.375764303799999766e+02
-3.375806195600000024e+02
-3.375829538599999751e+02
-3.375836305299999935e+02
-3.375829530400000067e+02
-3.375813144599999873e+02
-3.375791673499999774e+02
-3.375770045200000027e+02
-3.375753153499999826e+02
-3.369024717500000179e+02
-3.369113880900000026e+02
-3.369226764599999910e+02
-3.369361479799999870e+02
-3.369516615300000240e+02
-3.369691215799999782e+02
-3.369884611699999937e+02
-3.370096375699999953e+02
-3.370326042500000199e+02
-3.370573077299999909e+02
-3.378678820599999995e+02
-3.378745281800000271e+02
-3.378788163500000223e+02
-3.378807378800000265e+02
-3.378803615100000002e+02
-3.378778311400000121e+02
-3.378733634899999743e+02
-3.378672368800000072e+02
-3.378597774200000003e+02
-3.378513562300000217e+02
-3.380670063300000265e+02
-3.380639044299999796e+02
-3.380555825199999731e+02
-3.380422217099999784e+02
-3.380241425799999888e+02
-3.380017902199999753e+02
-3.379757099400000016e+02
-3.379465283299999783e+02
-3.379149233499999809e+02
-3.378815983599999981e+02
-3.368686765400000240e+02
-3.368837200599999733e+02
-3.369032430400000067e+02
-3.369270125599999801e+02
-3.369547640999999771e+02
-3.369861953500000027e+02
-3.370209755500000028e+02
-3.370587305399999991e+02
-3.370990498799999955e+02
-3.371414864100000273e+02
-3.376605464300000108e+02
-3.376575513600000136e+02
-3.376503621300000191e+02
-3.376391236900000195e+02
-3.376240781999999854e+02
-3.376055535300000088e+02
-3.375839468600000259e+02
-3.375597077499999727e+02
-3.375333223499999917e+02
-3.375052911099999733e+02
-3.377222991200000024e+02
-3.377225073999999836e+02
-3.377179324900000097e+02
-3.377087801299999796e+02
-3.376953871900000195e+02
-3.376782063200000152e+02
-3.376577829700000279e+02
-3.376347422800000118e+02
-3.376097480700000233e+02
-3.375834958400000119e+02
-3.378921963600000140e+02
-3.378877467300000035e+02
-3.378785218300000111e+02
-3.378647784099999853e+02
-3.378469239300000027e+02
-3.378254840399999921e+02
-3.378010934600000041e+02
-3.377744578100000012e+02
-3.377463253500000064e+02
-3.377174779299999727e+02
-3.370736513400000263e+02
-3.370718995299999960e+02
-3.370710173200000099e+02
-3.370711629799999969e+02
-3.370725414400000091e+02
-3.370754104299999767e+02
-3.370800653499999839e+02
-3.370868107900000155e+02
-3.370959315200000219e+02
-3.371076649500000144e+02
-3.365568353099999968e+02
-3.365667451499999743e+02
-3.365803237100000160e+02
-3.365974153999999885e+02
-3.366178396199999838e+02
-3.366413937099999885e+02
-3.366678493699999990e+02
-3.366969572500000254e+02
-3.367284505000000081e+02
-3.367620501700000091e+02
-3.374300051000000167e+02
-3.374342178300000228e+02
-3.374366640900000220e+02
-3.374373772000000145e+02
-3.374364724600000045e+02
-3.374341363799999840e+02
-3.374306057399999759e+02
-3.374261627999999860e+02
-3.374211042499999849e+02
-3.374157381499999815e+02
-3.377805104000000256e+02
-3.377755030499999975e+02
-3.377664806700000213e+02
-3.377537214100000256e+02
-3.377376072199999726e+02
-3.377185997000000270e+02
-3.376972324100000264e+02
-3.376740819699999747e+02
-3.376497536399999717e+02
-3.376248540899999853e+02
-3.370226531100000216e+02
-3.370254113799999800e+02
-3.370286351799999807e+02
-3.370323445399999969e+02
-3.370365716100000100e+02
-3.370413666499999863e+02
-3.370468005600000083e+02
-3.370529555699999946e+02
-3.370599207099999717e+02
-3.370677945599999816e+02
-3.361913894400000231e+02
-3.361849270499999989e+02
-3.361843475300000250e+02
-3.361897232800000097e+02
-3.362010648400000150e+02
-3.362183178799999723e+02
-3.362413544500000171e+02
-3.362699725200000103e+02
-3.363038877999999841e+02
-3.363427337499999794e+02
-3.378322983799999975e+02
-3.378338054600000078e+02
-3.378302459000000226e+02
-3.378218075300000010e+02
-3.378088403200000016e+02
-3.377918342899999971e+02
-3.377713983300000109e+02
-3.377482287000000269e+02
-3.377230828300000098e+02
-3.376967446900000027e+02
-3.374589250999999877e+02
-3.374546300900000233e+02
-3.374468031299999780e+02
-3.374356157400000029e+02
-3.374213528299999894e+02
-3.374044031199999836e+02
-3.373852376599999729e+02
-3.373643954099999860e+02
-3.373424666500000058e+02
-3.373200641899999823e+02
-3.369225130500000205e+02
-3.369302679300000136e+02
-3.369380741400000261e+02
-3.369458038099999726e+02
-3.369533756100000232e+02
-3.369607702999999788e+02
-3.369680173799999920e+02
-3.369751968099999999e+02
-3.369824262899999781e+02
-3.369898558599999774e+02
-3.379118535900000211e+02
-3.379094197200000167e+02
-3.379033335400000055e+02
-3.378938373199999887e+02
-3.378812908400000197e+02
-3.378661537699999826e+02
-3.378489611399999717e+02
-3.378303048700000204e+02
-3.378107974900000272e+02
-3.377910628500000030e+02
-3.351202841799999987e+02
-3.351330700199999910e+02
-3.351577603200000226e+02
-3.351941106900000023e+02
-3.352417174999999929e+02
-3.352999847199999977e+02
-3.353681010999999899e+02
-3.354450035599999751e+02
-3.355293807699999888e+02
-3.356196826500000157e+02
-3.370124679499999729e+02
-3.370147356599999853e+02
-3.370136330400000020e+02
-3.370093264899999781e+02
-3.370021121199999925e+02
-3.369924098700000172e+02
-3.369807392399999912e+02
-3.369676968800000054e+02
-3.369539328100000262e+02
-3.369401282399999786e+02
-3.370713336700000013e+02
-3.370791100600000050e+02
-3.370846842400000014e+02
-3.370881274399999938e+02
-3.370896454599999856e+02
-3.370895564900000068e+02
-3.370882656599999905e+02
-3.370862387700000227e+02
-3.370839659900000242e+02
-3.370819250399999873e+02
-3.371786478500000044e+02
-3.371785654999999906e+02
-3.371791217599999868e+02
-3.371803972700000145e+02
-3.371824902000000179e+02
-3.371855117599999971e+02
-3.371895855700000197e+02
-3.371948422599999731e+02
-3.372014125300000273e+02
-3.372094272499999761e+02
-3.379153258700000038e+02
-3.379203862300000196e+02
-3.379222960000000171e+02
-3.379211376100000166e+02
-3.379171041000000173e+02
-3.379104959800000074e+02
-3.379017084800000248e+02
-3.378912100800000076e+02
-3.378795273299999735e+02
-3.378672297599999865e+02
-3.381223530699999742e+02
-3.381213769899999875e+02
-3.381161318499999879e+02
-3.381067464999999856e+02
-3.380934506699999815e+02
-3.380765617800000200e+02
-3.380564764800000148e+02
-3.380336472500000013e+02
-3.380085677199999736e+02
-3.379817586699999765e+02
-3.378490879099999802e+02
-3.378519893399999887e+02
-3.378518984899999964e+02
-3.378489340799999923e+02
-3.378433262799999852e+02
-3.378353970100000083e+02
-3.378255607300000065e+02
-3.378142994699999804e+02
-3.378021416899999849e+02
-3.377896526900000254e+02
-3.376542076999999722e+02
-3.376570258099999933e+02
-3.376546389100000169e+02
-3.376472989800000164e+02
-3.376354389699999956e+02
-3.376196510500000159e+02
-3.376006599599999731e+02
-3.375792884200000117e+02
-3.375564257799999837e+02
-3.375329902400000037e+02
-3.377346905800000059e+02
-3.377350736399999960e+02
-3.377329019200000175e+02