 vasp.6.1.1 19Jun20 (build Dec 21 2021 08:45:49) complex                        
  
 executed on             LinuxIFC date 2023.10.08  12:18:30
 running on   40 total cores
 distrk:  each k-point on   40 cores,    1 groups
 distr:  one band on NCORE=   1 cores,   40 groups


--------------------------------------------------------------------------------------------------------


 INCAR:
 POTCAR:   PAW_PBE Te 08Apr2002                   
 POTCAR:   PAW_PBE Mo 08Apr2002                   
 -----------------------------------------------------------------------------
|                                                                             |
|           W    W    AA    RRRRR   N    N  II  N    N   GGGG   !!!           |
|           W    W   A  A   R    R  NN   N  II  NN   N  G    G  !!!           |
|           W    W  A    A  R    R  N N  N  II  N N  N  G       !!!           |
|           W WW W  AAAAAA  RRRRR   N  N N  II  N  N N  G  GGG   !            |
|           WW  WW  A    A  R   R   N   NN  II  N   NN  G    G                |
|           W    W  A    A  R    R  N    N  II  N    N   GGGG   !!!           |
|                                                                             |
|     For optimal performance we recommend to set                             |
|       NCORE = 4 - approx SQRT(number of cores).                             |
|     NCORE specifies how many cores store one orbital (NPAR=cpu/NCORE).      |
|     This setting can greatly improve the performance of VASP for DFT.       |
|     The default, NCORE=1 might be grossly inefficient on modern             |
|     multi-core architectures or massively parallel machines. Do your        |
|     own testing!!!!                                                         |
|     Unfortunately you need to use the default for GW and RPA                |
|     calculations (for HF NCORE is supported but not extensively tested      |
|     yet).                                                                   |
|                                                                             |
 -----------------------------------------------------------------------------

 POTCAR:   PAW_PBE Te 08Apr2002                   
   VRHFIN =Te: s2p4                                                                                 
   LEXCH  = PE                                                                                      
   EATOM  =   223.2721 eV,   16.4100 Ry                                                             
                                                                                                    
   TITEL  = PAW_PBE Te 08Apr2002                                                                    
   LULTRA =        F    use ultrasoft PP ?                                                          
   IUNSCR =        1    unscreen: 0-lin 1-nonlin 2-no                                               
   RPACOR =    2.200    partial core radius                                                         
   POMASS =  127.600; ZVAL   =    6.000    mass and valenz                                          
   RCORE  =    2.300    outmost cutoff radius                                                       
   RWIGS  =    2.900; RWIGS  =    1.535    wigner-seitz radius (au A)                               
   ENMAX  =  174.982; ENMIN  =  131.236 eV                                                          
   ICORE  =        3    local potential                                                             
   LCOR   =        T    correct aug charges                                                         
   LPAW   =        T    paw PP                                                                      
   EAUG   =  368.792                                                                                
   DEXC   =    -.169                                                                                
   RMAX   =    3.486    core radius for proj-oper                                                   
   RAUG   =    1.300    factor for augmentation sphere                                              
   RDEP   =    2.397    radius for radial grids                                                     
   QCUT   =   -3.586; QGAM   =    7.172    optimization parameters                                  
                                                                                                    
   Description                                                                                      
     l     E      TYP  RCUT    TYP  RCUT                                                            
     0   .000     23  2.300                                                                         
     0   .000     23  2.300                                                                         
     1   .000     23  2.300                                                                         
     1   .000     23  2.300                                                                         
     2   .000     23  2.300                                                                         
     3  -.100     23  2.300                                                                         
  local pseudopotential read in
  partial core-charges read in
  atomic valenz-charges read in
  non local Contribution for L=           0  read in
    real space projection operators read in
  non local Contribution for L=           0  read in
    real space projection operators read in
  non local Contribution for L=           1  read in
    real space projection operators read in
  non local Contribution for L=           1  read in
    real space projection operators read in
  non local Contribution for L=           2  read in
    real space projection operators read in
    PAW grid and wavefunctions read in
 
   number of l-projection  operators is LMAX  =           5
   number of lm-projection operators is LMMAX =          13
 
 POTCAR:   PAW_PBE Mo 08Apr2002                   
   VRHFIN =Mo: 4p5s4d                                                                               
   LEXCH  = PE                                                                                      
   EATOM  =   217.5180 eV,   15.9871 Ry                                                             
                                                                                                    
   TITEL  = PAW_PBE Mo 08Apr2002                                                                    
   LULTRA =        F    use ultrasoft PP ?                                                          
   IUNSCR =        1    unscreen: 0-lin 1-nonlin 2-no                                               
   RPACOR =    2.200    partial core radius                                                         
   POMASS =   95.940; ZVAL   =    6.000    mass and valenz                                          
   RCORE  =    2.750    outmost cutoff radius                                                       
   RWIGS  =    2.750; RWIGS  =    1.455    wigner-seitz radius (au A)                               
   ENMAX  =  224.584; ENMIN  =  168.438 eV                                                          
   RCLOC  =    2.111    cutoff for local pot                                                        
   LCOR   =        T    correct aug charges                                                         
   LPAW   =        T    paw PP                                                                      
   EAUG   =  345.278                                                                                
   DEXC   =    -.088                                                                                
   RMAX   =    3.077    core radius for proj-oper                                                   
   RAUG   =    1.300    factor for augmentation sphere                                              
   RDEP   =    2.815    radius for radial grids                                                     
   QCUT   =   -4.063; QGAM   =    8.126    optimization parameters                                  
                                                                                                    
   Description                                                                                      
     l     E      TYP  RCUT    TYP  RCUT                                                            
     2   .000     23  2.500                                                                         
     2   .000     23  2.500                                                                         
     0   .000     23  2.600                                                                         
     0  1.000     23  2.600                                                                         
     1   .400     23  2.750                                                                         
     1  2.000     23  2.750                                                                         
     3   .000      7   .000                                                                         
  local pseudopotential read in
  partial core-charges read in
  atomic valenz-charges read in
  non local Contribution for L=           2  read in
    real space projection operators read in
  non local Contribution for L=           2  read in
    real space projection operators read in
  non local Contribution for L=           0  read in
    real space projection operators read in
  non local Contribution for L=           0  read in
    real space projection operators read in
  non local Contribution for L=           1  read in
    real space projection operators read in
  non local Contribution for L=           1  read in
    real space projection operators read in
    PAW grid and wavefunctions read in
 
   number of l-projection  operators is LMAX  =           6
   number of lm-projection operators is LMMAX =          18
 
 -----------------------------------------------------------------------------
|                                                                             |
|               ----> ADVICE to this user running VASP <----                  |
|                                                                             |
|     You have a (more or less) 'large supercell' and for larger cells it     |
|     might be more efficient to use real-space projection operators.         |
|     Therefore, try LREAL= Auto in the INCAR file.                           |
|     Mind: If you want to do very accurate calculations, keep the            |
|     reciprocal projection scheme (i.e. LREAL=.FALSE.).                      |
|                                                                             |
 -----------------------------------------------------------------------------

 PAW_PBE Te 08Apr2002                   :
 energy of atom  1       EATOM= -223.2721
 kinetic energy error for atom=    0.0006 (will be added to EATOM!!)
 PAW_PBE Mo 08Apr2002                   :
 energy of atom  2       EATOM= -217.5180
 kinetic energy error for atom=    0.0009 (will be added to EATOM!!)
 
 
 POSCAR: Te Mo
  positions in cartesian coordinates
  No initial velocities read in
 exchange correlation table for  LEXCH =        8
   RHO(1)=    0.500       N(1)  =     2000
   RHO(2)=  100.500       N(2)  =     4000
 


--------------------------------------------------------------------------------------------------------


 ion  position               nearest neighbor table
   1  0.112  0.222  0.313-  37 2.73  38 2.77  41 2.77   4 3.52   7 3.53   5 3.53   9 3.53   3 3.60
                             2 3.60
   2  0.111  0.556  0.313-  38 2.72  39 2.77  42 2.77   5 3.52   8 3.52   7 3.53   6 3.53   3 3.59
                             1 3.60
   3  0.112  0.889  0.313-  39 2.73  37 2.77  40 2.78   6 3.52   4 3.53   9 3.53   8 3.53   2 3.59
                             1 3.60
   4  0.444  0.222  0.313-  40 2.73  41 2.77  44 2.77   1 3.52   7 3.53   3 3.53   8 3.53   6 3.59
                             5 3.60  22 3.68
   5  0.445  0.556  0.313-  41 2.73  42 2.76  45 2.77   2 3.52   8 3.53   1 3.53   9 3.53   6 3.59
                             4 3.60
   6  0.445  0.889  0.313-  42 2.73  40 2.76  43 2.77   3 3.52   9 3.52   7 3.53   2 3.53   4 3.59
                             5 3.59  24 3.68
   7  0.778  0.223  0.313-  43 2.73  38 2.77  44 2.77   1 3.53   2 3.53   4 3.53   6 3.53   9 3.59
                             8 3.59
   8  0.778  0.556  0.313-  44 2.73  45 2.77  39 2.77   2 3.52   5 3.53   4 3.53   3 3.53   7 3.59
                             9 3.60
   9  0.778  0.890  0.313-  45 2.73  43 2.76  37 2.77   6 3.52   1 3.53   3 3.53   5 3.53   7 3.59
                             8 3.60  27 3.68
  10  0.111  0.278  0.566-  46 2.73  47 2.76  50 2.77  16 3.52  13 3.52  18 3.53  14 3.53  11 3.59
                            12 3.59  28 3.68
  11  0.111  0.611  0.566-  47 2.72  48 2.77  51 2.77  17 3.52  14 3.52  16 3.53  15 3.53  10 3.59
                            12 3.60  29 3.68
  12  0.111  0.944  0.566-  48 2.72  46 2.76  49 2.77  18 3.51  17 3.53  15 3.53  13 3.53  10 3.59
                            11 3.60  30 3.68
  13  0.444  0.278  0.566-  49 2.72  50 2.77  53 2.77  10 3.52  16 3.53  12 3.53  17 3.53  15 3.59
                            14 3.60  31 3.68
  14  0.444  0.611  0.566-  50 2.72  51 2.77  54 2.77  11 3.52  17 3.53  10 3.53  18 3.54  15 3.60
                            13 3.60  32 3.68
  15  0.444  0.945  0.566-  51 2.73  52 2.77  49 2.77  12 3.53  16 3.53  18 3.53  11 3.53  13 3.59
                            14 3.60  33 3.68
  16  0.778  0.277  0.566-  52 2.72  47 2.77  53 2.77  10 3.52  13 3.53  15 3.53  11 3.53  18 3.59
                            17 3.60  34 3.68
  17  0.778  0.611  0.566-  53 2.73  54 2.77  48 2.77  11 3.52  14 3.53  12 3.53  13 3.53  18 3.59
                            16 3.60
  18  0.778  0.945  0.566-  54 2.73  46 2.76  52 2.77  12 3.51  10 3.53  15 3.53  14 3.54  16 3.59
                            17 3.59  36 3.68
  19  0.111  0.222  0.434-  41 2.70  38 2.77  37 2.81  22 3.52  25 3.52  27 3.53  23 3.54  21 3.59
                            20 3.60
  20  0.111  0.556  0.434-  42 2.70  39 2.76  38 2.81  23 3.52  26 3.52  24 3.53  25 3.53  21 3.60
                            19 3.60
  21  0.111  0.889  0.434-  40 2.70  37 2.76  39 2.81  24 3.52  27 3.52  22 3.53  26 3.53  19 3.59
                            20 3.60
  22  0.444  0.222  0.434-  44 2.70  41 2.76  40 2.80  19 3.52  25 3.53  21 3.53  26 3.53  24 3.59
                            23 3.61   4 3.68
  23  0.444  0.556  0.434-  45 2.71  42 2.75  41 2.81  20 3.52  27 3.53  26 3.53  19 3.54  24 3.58
                            22 3.61
  24  0.444  0.889  0.433-  43 2.70  40 2.75  42 2.80  21 3.52  20 3.53  27 3.53  25 3.54  23 3.58
                            22 3.59   6 3.68
  25  0.778  0.222  0.434-  38 2.71  44 2.76  43 2.81  19 3.52  22 3.53  20 3.53  24 3.54  27 3.59
                            26 3.60
  26  0.778  0.556  0.434-  39 2.70  45 2.76  44 2.81  20 3.52  23 3.53  22 3.53  21 3.53  27 3.59
                            25 3.60
  27  0.778  0.889  0.434-  37 2.70  43 2.76  45 2.81  21 3.52  23 3.53  19 3.53  24 3.53  26 3.59
                            25 3.59   9 3.68
  28  0.110  0.277  0.687-  50 2.71  47 2.75  46 2.80  34 3.52  36 3.52  31 3.53  32 3.54  29 3.59
                            30 3.59  10 3.68
  29  0.112  0.611  0.687-  51 2.70  48 2.76  47 2.81  32 3.51  33 3.53  34 3.53  35 3.53  28 3.59
                            30 3.60  11 3.68
  30  0.111  0.944  0.687-  49 2.70  46 2.76  48 2.81  36 3.52  33 3.52  35 3.53  31 3.53  28 3.59
                            29 3.60  12 3.68
  31  0.445  0.278  0.687-  53 2.70  50 2.76  49 2.81  34 3.52  35 3.53  28 3.53  30 3.53  33 3.59
                            32 3.60  13 3.68
  32  0.444  0.611  0.687-  54 2.70  51 2.75  50 2.80  29 3.51  35 3.53  36 3.53  28 3.54  33 3.59
                            31 3.60  14 3.68
  33  0.444  0.944  0.687-  52 2.70  49 2.76  51 2.80  30 3.52  29 3.53  36 3.53  34 3.54  32 3.59
                            31 3.59  15 3.68
  34  0.778  0.278  0.687-  47 2.70  53 2.75  52 2.80  28 3.52  31 3.52  29 3.53  33 3.54  35 3.59
                            36 3.60  16 3.68
  35  0.778  0.611  0.687-  48 2.70  54 2.76  53 2.80  32 3.53  29 3.53  31 3.53  30 3.53  34 3.59
                            36 3.59
  36  0.778  0.944  0.687-  46 2.70  52 2.77  54 2.80  30 3.52  28 3.52  33 3.53  32 3.53  35 3.59
                            34 3.60  18 3.68
  37  0.000  1.000  0.373-  27 2.70   1 2.73  21 2.76   9 2.77   3 2.77  19 2.81
  38  0.000  0.334  0.373-  25 2.71   2 2.72   7 2.77  19 2.77   1 2.77  20 2.81
  39  1.000  0.667  0.373-  26 2.70   3 2.73  20 2.76   2 2.77   8 2.77  21 2.81
  40  0.334  1.000  0.373-  21 2.70   4 2.73  24 2.75   6 2.76   3 2.78  22 2.80
  41  0.333  0.334  0.373-  19 2.70   5 2.73  22 2.76   4 2.77   1 2.77  23 2.81
  42  0.333  0.666  0.373-  20 2.70   6 2.73  23 2.75   5 2.76   2 2.77  24 2.80
  43  0.667  0.000  0.373-  24 2.70   7 2.73   9 2.76  27 2.76   6 2.77  25 2.81
  44  0.667  0.333  0.373-  22 2.70   8 2.73  25 2.76   7 2.77   4 2.77  26 2.81
  45  0.667  0.666  0.373-  23 2.71   9 2.73  26 2.76   8 2.77   5 2.77  27 2.81
  46  1.000  0.055  0.627-  36 2.70  10 2.73  30 2.76  18 2.76  12 2.76  28 2.80
  47  0.000  0.389  0.627-  34 2.70  11 2.72  28 2.75  10 2.76  16 2.77  29 2.81
  48  1.000  0.722  0.627-  35 2.70  12 2.72  29 2.76  11 2.77  17 2.77  30 2.81
  49  0.333  0.056  0.627-  30 2.70  13 2.72  33 2.76  15 2.77  12 2.77  31 2.81
  50  0.334  0.389  0.627-  28 2.71  14 2.72  31 2.76  13 2.77  10 2.77  32 2.80
  51  0.333  0.722  0.627-  29 2.70  15 2.73  32 2.75  14 2.77  11 2.77  33 2.80
  52  0.666  0.056  0.627-  33 2.70  16 2.72  36 2.77  15 2.77  18 2.77  34 2.80
  53  0.667  0.389  0.627-  31 2.70  17 2.73  34 2.75  13 2.77  16 2.77  35 2.80
  54  0.666  0.722  0.627-  32 2.70  18 2.73  35 2.76  14 2.77  17 2.77  36 2.80
 

IMPORTANT INFORMATION: All symmetrisations will be switched off!
NOSYMM: (Re-)initialisation of all symmetry stuff for point group C_1.


----------------------------------------------------------------------------------------

                                     Primitive cell                                     

  volume of cell :    2990.2326

  direct lattice vectors                    reciprocal lattice vectors
    10.572097287  0.000000000  0.000000000     0.094588611  0.055793217 -0.002849823
    -5.478623533  9.288143302  0.000000000     0.000000000  0.107664144 -0.003165041
     0.389435704  0.895206408 30.451936079     0.000000000  0.000000000  0.032838635

  length of vectors
    10.572097287 10.783548665 30.467580567     0.109854494  0.107710656  0.032838635

  position of ions in fractional coordinates (direct lattice)
     0.111723100  0.222399322  0.312560691
     0.111137934  0.555569451  0.312769798
     0.111569478  0.888908734  0.312591806
     0.444474586  0.222159877  0.312772444
     0.444506653  0.555838710  0.312882792
     0.444608363  0.889257465  0.312791854
     0.778340484  0.222625999  0.312727136
     0.777900297  0.555586518  0.312737263
     0.777796414  0.889592731  0.312920284
     0.111047536  0.277704671  0.566366128
     0.110931590  0.610916388  0.566327071
     0.110613007  0.944158241  0.566446420
     0.444313845  0.277521014  0.566373206
     0.444450378  0.611182316  0.566340599
     0.444423320  0.944585532  0.566333443
     0.777854430  0.277462219  0.566269880
     0.777948334  0.611229010  0.566279421
     0.778455551  0.944680852  0.566428360
     0.111198427  0.221679506  0.433763064
     0.111205634  0.555524964  0.433887107
     0.111308697  0.889082330  0.433632951
     0.444457557  0.221931093  0.433636193
     0.444318387  0.556326904  0.433804437
     0.443855186  0.888501022  0.433454677
     0.778019130  0.221955961  0.433821278
     0.777816130  0.555517418  0.433662862
     0.777909262  0.888695157  0.433736769
     0.110239357  0.277183302  0.687063145
     0.111572515  0.611071012  0.687183775
     0.111119937  0.944346904  0.687255733
     0.444545443  0.277749243  0.687264029
     0.443953781  0.611176880  0.687072694
     0.444292984  0.944421928  0.687192999
     0.778125406  0.278251012  0.687004093
     0.777730761  0.611085601  0.687213865
     0.777999449  0.944330076  0.687215748
     0.000026981  0.999923894  0.373188983
     0.000371643  0.333649203  0.373040094
     0.999949016  0.666560097  0.373342443
     0.333674554  0.999894224  0.373276677
     0.333390207  0.333563712  0.373306425
     0.333268924  0.666494498  0.373257697
     0.666672780  0.000206301  0.373167728
     0.666734665  0.332890652  0.373351015
     0.666682394  0.666317371  0.373142757
     0.999659223  0.055239011  0.626725644
     0.000357361  0.388726919  0.626651898
     0.999970096  0.722111611  0.626820006
     0.333173434  0.055750861  0.626786170
     0.333555433  0.389158320  0.626685683
     0.333396781  0.722377185  0.626846574
     0.666413771  0.055956665  0.626733216
     0.666731050  0.388982316  0.626805764
     0.666477674  0.722025852  0.626878542

  ion indices of the primitive-cell ions
   primitive index   ion index
                 1           1
                 2           2
                 3           3
                 4           4
                 5           5
                 6           6
                 7           7
                 8           8
                 9           9
                10          10
                11          11
                12          12
                13          13
                14          14
                15          15
                16          16
                17          17
                18          18
                19          19
                20          20
                21          21
                22          22
                23          23
                24          24
                25          25
                26          26
                27          27
                28          28
                29          29
                30          30
                31          31
                32          32
                33          33
                34          34
                35          35
                36          36
                37          37
                38          38
                39          39
                40          40
                41          41
                42          42
                43          43
                44          44
                45          45
                46          46
                47          47
                48          48
                49          49
                50          50
                51          51
                52          52
                53          53
                54          54

----------------------------------------------------------------------------------------

 
 

Automatic generation of k-mesh.
 generate k-points for:    3    3    1
Space group operators:
 irot       det(A)        alpha          n_x          n_y          n_z        tau_x        tau_y        tau_z
    1     1.000000     0.000000     1.000000     0.000000     0.000000     0.000000     0.000000     0.000000
 
 Subroutine IBZKPT returns following result:
 ===========================================
 
 Found      5 irreducible k-points:
 
 Following reciprocal coordinates:
            Coordinates               Weight
  0.000000  0.000000  0.000000      1.000000
  0.333333 -0.000000 -0.000000      2.000000
  0.000000  0.333333  0.000000      2.000000
  0.333333  0.333333 -0.000000      2.000000
 -0.333333  0.333333  0.000000      2.000000
 
 Following cartesian coordinates:
            Coordinates               Weight
  0.000000  0.000000  0.000000      1.000000
  0.031530  0.018598 -0.000950      2.000000
  0.000000  0.035888 -0.001055      2.000000
  0.031530  0.054486 -0.002005      2.000000
 -0.031530  0.017290 -0.000105      2.000000
 


--------------------------------------------------------------------------------------------------------




 Dimension of arrays:
   k-points           NKPTS =      5   k-points in BZ     NKDIM =      5   number of bands    NBANDS=    200
   number of dos      NEDOS =    301   number of ions     NIONS =     54
   non local maximal  LDIM  =      6   non local SUM 2l+1 LMDIM =     18
   total plane-waves  NPLWV = ******
   max r-space proj   IRMAX =      1   max aug-charges    IRDMAX=  36556
   dimension x,y,z NGX =    84 NGY =   84 NGZ =  240
   dimension x,y,z NGXF=   168 NGYF=  168 NGZF=  480
   support grid    NGXF=   168 NGYF=  168 NGZF=  480
   ions per type =              36  18
   NGX,Y,Z   is equivalent  to a cutoff of  13.21, 12.95, 13.10 a.u.
   NGXF,Y,Z  is equivalent  to a cutoff of  26.42, 25.90, 26.19 a.u.

 SYSTEM =  dpgen_md                                
 POSCAR =  Te Mo                                   

 Startparameter for this run:
   NWRITE =      2    write-flag & timer
   PREC   = a         normal or accurate (medium, high low for compatibility)
   ISTART =      0    job   : 0-new  1-cont  2-samecut
   ICHARG =      2    charge: 1-file 2-atom 10-const
   ISPIN  =      1    spin polarized calculation?
   LNONCOLLINEAR =      F non collinear calculations
   LSORBIT =      F    spin-orbit coupling
   INIWAV =      1    electr: 0-lowe 1-rand  2-diag
   LASPH  =      F    aspherical Exc in radial PAW
   METAGGA=      F    non-selfconsistent MetaGGA calc.

 Electronic Relaxation 1
   ENCUT  =  550.0 eV  40.42 Ry    6.36 a.u.  20.22 20.62 58.26*2*pi/ulx,y,z
   ENINI  =  550.0     initial cutoff
   ENAUG  =  368.8 eV  augmentation charge cutoff
   NELM   =    100;   NELMIN=  6; NELMDL= -5     # of ELM steps 
   EDIFF  = 0.1E-05   stopping-criterion for ELM
   LREAL  =      F    real-space projection
   NLSPLINE    = F    spline interpolate recip. space projectors
   LCOMPAT=      F    compatible to vasp.4.4
   GGA_COMPAT  = T    GGA compatible to vasp.4.4-vasp.4.6
   LMAXPAW     = -100 max onsite density
   LMAXMIX     =    2 max onsite mixed and CHGCAR
   VOSKOWN=      0    Vosko Wilk Nusair interpolation
   ROPT   =    0.00000   0.00000
 Ionic relaxation
   EDIFFG = 0.1E-04   stopping-criterion for IOM
   NSW    =     10    number of steps for IOM
   NBLOCK =      1;   KBLOCK =      1    inner block; outer block 
   IBRION =      0    ionic relax: 0-MD 1-quasi-New 2-CG
   NFREE  =      0    steps in history (QN), initial steepest desc. (CG)
   ISIF   =      2    stress and relaxation
   IWAVPR =     11    prediction:  0-non 1-charg 2-wave 3-comb
   ISYM   =      0    0-nonsym 1-usesym 2-fastsym
   LCORR  =      T    Harris-Foulkes like correction to forces

   POTIM  = 2.0000    time-step for ionic-motion
   TEIN   =  100.0    initial temperature
   TEBEG  =  100.0;   TEEND  = 100.0 temperature during run
   SMASS  =   0.04    Nose mass-parameter (am)
   estimated Nose-frequenzy (Omega)   =  0.79E+14 period in steps = 0.40E+02 mass=   0.327E-28a.u.
   SCALEE = 1.0000    scale energy and forces
   NPACO  =    256;   APACO  = 16.0  distance and # of slots for P.C.
   PSTRESS=    0.0 pullay stress

  Mass of Ions in am
   POMASS = 127.60 95.94
  Ionic Valenz
   ZVAL   =   6.00  6.00
  Atomic Wigner-Seitz radii
   RWIGS  =  -1.00 -1.00
  virtual crystal weights 
   VCA    =   1.00  1.00
   NELECT =     324.0000    total number of electrons
   NUPDOWN=      -1.0000    fix difference up-down

 DOS related values:
   EMIN   =  10.00;   EMAX   =-10.00  energy-range for DOS
   EFERMI =   0.00
   ISMEAR =     0;   SIGMA  =   0.10  broadening in eV -4-tet -1-fermi 0-gaus

 Electronic relaxation 2 (details)
   IALGO  =     68    algorithm
   LDIAG  =      T    sub-space diagonalisation (order eigenvalues)
   LSUBROT=      F    optimize rotation matrix (better conditioning)
   TURBO    =      0    0=normal 1=particle mesh
   IRESTART =      0    0=no restart 2=restart with 2 vectors
   NREBOOT  =      0    no. of reboots
   NMIN     =      0    reboot dimension
   EREF     =   0.00    reference energy to select bands
   IMIX   =      4    mixing-type and parameters
     AMIX     =   0.40;   BMIX     =  1.00
     AMIX_MAG =   1.60;   BMIX_MAG =  1.00
     AMIN     =   0.10
     WC   =   100.;   INIMIX=   1;  MIXPRE=   1;  MAXMIX= -45

 Intra band minimization:
   WEIMIN = 0.0010     energy-eigenvalue tresh-hold
   EBREAK =  0.13E-08  absolut break condition
   DEPER  =   0.30     relativ break condition  

   TIME   =   0.40     timestep for ELM

  volume/ion in A,a.u.               =      55.37       373.69
  Fermi-wavevector in a.u.,A,eV,Ry     =   0.780468  1.474870  8.287711  0.609130
  Thomas-Fermi vector in A             =   1.883785
 
 Write flags
   LWAVE        =      F    write WAVECAR
   LDOWNSAMPLE  =      F    k-point downsampling of WAVECAR
   LCHARG       =      F    write CHGCAR
   LVTOT        =      F    write LOCPOT, total local potential
   LVHAR        =      F    write LOCPOT, Hartree potential only
   LELF         =      F    write electronic localiz. function (ELF)
   LORBIT       =      0    0 simple, 1 ext, 2 COOP (PROOUT), +10 PAW based schemes


 Dipole corrections
   LMONO  =      F    monopole corrections only (constant potential shift)
   LDIPOL =      F    correct potential (dipole corrections)
   IDIPOL =      0    1-x, 2-y, 3-z, 4-all directions 
   EPSILON=  1.0000000 bulk dielectric constant

 Exchange correlation treatment:
   GGA     =    --    GGA type
   LEXCH   =     8    internal setting for exchange type
   VOSKOWN=      0    Vosko Wilk Nusair interpolation
   LHFCALC =     F    Hartree Fock is set to
   LHFONE  =     F    Hartree Fock one center treatment
   AEXX    =    0.0000 exact exchange contribution

 Linear response parameters
   LEPSILON=     F    determine dielectric tensor
   LRPA    =     F    only Hartree local field effects (RPA)
   LNABLA  =     F    use nabla operator in PAW spheres
   LVEL    =     F    velocity operator in full k-point grid
   LINTERFAST=   F  fast interpolation
   KINTER  =     0    interpolate to denser k-point grid
   CSHIFT  =0.1000    complex shift for real part using Kramers Kronig
   OMEGAMAX=  -1.0    maximum frequency
   DEG_THRESHOLD= 0.2000000E-02 threshold for treating states as degnerate
   RTIME   =   -0.100 relaxation time in fs
  (WPLASMAI=    0.000 imaginary part of plasma frequency in eV, 0.658/RTIME)
   DFIELD  = 0.0000000 0.0000000 0.0000000 field for delta impulse in time
 
 Orbital magnetization related:
   ORBITALMAG=     F  switch on orbital magnetization
   LCHIMAG   =     F  perturbation theory with respect to B field
   DQ        =  0.001000  dq finite difference perturbation B field
   LLRAUG    =     F  two centre corrections for induced B field



--------------------------------------------------------------------------------------------------------


 molecular dynamics for ions
   using nose mass (canonical ensemble)
 charge density and potential will be updated during run
 non-spin polarized calculation
 RMM-DIIS sequential band-by-band and
  variant of blocked Davidson during initial phase
 perform sub-space diagonalisation
    before iterative eigenvector-optimisation
 modified Broyden-mixing scheme, WC =      100.0
 initial mixing is a Kerker type mixing with AMIX =  0.4000 and BMIX =      1.0000
 Hartree-type preconditioning will be used
 using additional bands           38
 reciprocal scheme for non local part
 use partial core corrections
 calculate Harris-corrections to forces 
   (improved forces if not selfconsistent)
 use gradient corrections 
 use of overlap-Matrix (Vanderbilt PP)
 Gauss-broadening in eV      SIGMA  =   0.10


--------------------------------------------------------------------------------------------------------


  energy-cutoff  :      550.00
  volume of cell :     2990.23
      direct lattice vectors                 reciprocal lattice vectors
    10.572097287  0.000000000  0.000000000     0.094588611  0.055793217 -0.002849823
    -5.478623533  9.288143302  0.000000000     0.000000000  0.107664144 -0.003165041
     0.389435704  0.895206408 30.451936079     0.000000000  0.000000000  0.032838635

  length of vectors
    10.572097287 10.783548665 30.467580567     0.109854494  0.107710656  0.032838635


 
 k-points in units of 2pi/SCALE and weight: read from INCAR                         
   0.00000000  0.00000000  0.00000000       0.111
   0.03152954  0.01859774 -0.00094994       0.222
   0.00000000  0.03588805 -0.00105501       0.222
   0.03152954  0.05448579 -0.00200495       0.222
  -0.03152954  0.01729031 -0.00010507       0.222
 
 k-points in reciprocal lattice and weights: read from INCAR                         
   0.00000000  0.00000000  0.00000000       0.111
   0.33333333 -0.00000000 -0.00000000       0.222
   0.00000000  0.33333333  0.00000000       0.222
   0.33333333  0.33333333 -0.00000000       0.222
  -0.33333333  0.33333333  0.00000000       0.222
 
 position of ions in fractional coordinates (direct lattice) 
   0.11172310  0.22239932  0.31256069
   0.11113793  0.55556945  0.31276980
   0.11156948  0.88890873  0.31259181
   0.44447459  0.22215988  0.31277244
   0.44450665  0.55583871  0.31288279
   0.44460836  0.88925747  0.31279185
   0.77834048  0.22262600  0.31272714
   0.77790030  0.55558652  0.31273726
   0.77779641  0.88959273  0.31292028
   0.11104754  0.27770467  0.56636613
   0.11093159  0.61091639  0.56632707
   0.11061301  0.94415824  0.56644642
   0.44431384  0.27752101  0.56637321
   0.44445038  0.61118232  0.56634060
   0.44442332  0.94458553  0.56633344
   0.77785443  0.27746222  0.56626988
   0.77794833  0.61122901  0.56627942
   0.77845555  0.94468085  0.56642836
   0.11119843  0.22167951  0.43376306
   0.11120563  0.55552496  0.43388711
   0.11130870  0.88908233  0.43363295
   0.44445756  0.22193109  0.43363619
   0.44431839  0.55632690  0.43380444
   0.44385519  0.88850102  0.43345468
   0.77801913  0.22195596  0.43382128
   0.77781613  0.55551742  0.43366286
   0.77790926  0.88869516  0.43373677
   0.11023936  0.27718330  0.68706314
   0.11157251  0.61107101  0.68718377
   0.11111994  0.94434690  0.68725573
   0.44454544  0.27774924  0.68726403
   0.44395378  0.61117688  0.68707269
   0.44429298  0.94442193  0.68719300
   0.77812541  0.27825101  0.68700409
   0.77773076  0.61108560  0.68721387
   0.77799945  0.94433008  0.68721575
   0.00002698  0.99992389  0.37318898
   0.00037164  0.33364920  0.37304009
   0.99994902  0.66656010  0.37334244
   0.33367455  0.99989422  0.37327668
   0.33339021  0.33356371  0.37330643
   0.33326892  0.66649450  0.37325770
   0.66667278  0.00020630  0.37316773
   0.66673467  0.33289065  0.37335101
   0.66668239  0.66631737  0.37314276
   0.99965922  0.05523901  0.62672564
   0.00035736  0.38872692  0.62665190
   0.99997010  0.72211161  0.62682001
   0.33317343  0.05575086  0.62678617
   0.33355543  0.38915832  0.62668568
   0.33339678  0.72237719  0.62684657
   0.66641377  0.05595667  0.62673322
   0.66673105  0.38898232  0.62680576
   0.66647767  0.72202585  0.62687854
 
 position of ions in cartesian coordinates  (Angst):
   0.08442762  2.34548311  9.51807818
  -1.74699110  5.44020221  9.52444589
  -3.56873853  8.53614589  9.51902568
   3.60370299  2.34344867  9.52452646
   1.77598428  5.44280427  9.52788679
  -0.04965169  8.53956404  9.52511754
   7.13079440  2.34773752  9.52314675
   5.30197930  5.44033160  9.52345516
   3.47105801  8.54279301  9.52902849
  -0.12687080  3.08637536 17.24694512
  -1.95365336  6.18125858 17.24575578
  -3.78268162  9.27656351 17.24939019
   3.39746198  3.08467587 17.24716068
   1.57088806  6.18374067 17.24616773
  -0.25599149  9.28043111 17.24594980
   6.92396738  3.08403728 17.24401418
   5.09638125  6.18411960 17.24430473
   3.27494450  9.28140142 17.24884020
   0.13002486  2.44729849 13.20892511
  -1.69886423  5.54821399 13.21270244
  -3.52530885  8.64611509 13.20496290
   3.65184504  2.44952169 13.20506164
   1.81841048  5.55558852 13.21018499
  -0.00647967  8.64055622 13.19953411
   7.17822628  2.44991836 13.21069782
   5.34856080  5.54794316 13.20587374
   3.52421878  8.64261191 13.20812436
  -0.08555483  3.18958156 20.92240297
  -1.90065865  6.29088644 20.92607638
  -3.73130847  9.38646511 20.92826765
   3.44573929  3.19501793 20.92852027
   1.61268516  6.29177032 20.92269377
  -0.20940606  9.38710578 20.92635727
   6.96952887  3.19944574 20.92060472
   5.14196293  6.29104888 20.92699270
   3.31908324  9.38627301 20.92705003
  -5.33258821  9.62151759 11.36432706
  -1.67873420  3.43292949 11.35979309
   7.06511932  6.52532425 11.36900022
  -1.80503691  9.62132051 11.36699750
   1.84254255  3.43237386 11.36790340
   0.01723892  6.52463909 11.36641953
   7.19232409  0.33597829 11.36367981
   5.37039740  3.42616230 11.36926123
   3.54304421  6.52289102 11.36291938
  10.50993015  1.07411667 19.08500926
  -1.88186977  4.17153413 19.08276354
   6.85970956  7.26820941 19.08788275
   3.46099689  1.07892499 19.08685239
   1.63838234  4.17557129 19.08379235
  -0.18881300  7.27069988 19.08869180
   6.98289801  1.08078912 19.08523983
   5.16175840  4.17404403 19.08744906
   3.33448787  7.26746527 19.08966528
 


--------------------------------------------------------------------------------------------------------


 k-point   1 :   0.0000 0.0000 0.0000  plane waves:   87623
 k-point   2 :   0.3333-0.0000-0.0000  plane waves:   87576
 k-point   3 :   0.0000 0.3333 0.0000  plane waves:   87563
 k-point   4 :   0.3333 0.3333-0.0000  plane waves:   87589
 k-point   5 :  -0.3333 0.3333 0.0000  plane waves:   87585

 maximum and minimum number of plane-waves per node :     87623    87563

 maximum number of plane-waves:     87623
 maximum index in each direction: 
   IXMAX=   20   IYMAX=   20   IZMAX=   58
   IXMIN=  -20   IYMIN=  -20   IZMIN=  -58


 serial   3D FFT for wavefunctions
 parallel 3D FFT for charge:
    minimum data exchange during FFTs selected (reduces bandwidth)


 total amount of memory used by VASP MPI-rank0   378576. kBytes
=======================================================================

   base      :      30000. kBytes
   nonl-proj :     201922. kBytes
   fftplans  :      19943. kBytes
   grid      :      90496. kBytes
   one-center:        839. kBytes
   wavefun   :      35376. kBytes
 
     INWAV:  cpu time    0.0001: real time    0.0001
 Broyden mixing: mesh for mixing (old mesh)
   NGX = 41   NGY = 41   NGZ =117
  (NGX  =168   NGY  =168   NGZ  =480)
  gives a total of 196677 points

 initial charge density was supplied:
 charge density of overlapping atoms calculated
 number of electron     324.0000000 magnetization 
 keeping initial charge density in first step


--------------------------------------------------------------------------------------------------------


 Maximum index for augmentation-charges         2189 (set IRDMAX)


--------------------------------------------------------------------------------------------------------


 First call to EWALD:  gamma=   0.123
 Maximum number of real-space cells 4x 4x 2
 Maximum number of reciprocal cells 2x 2x 5

    FEWALD:  cpu time    0.0021: real time    0.0022


--------------------------------------- Iteration      1(   1)  ---------------------------------------


    POTLOK:  cpu time    0.3375: real time    0.3381
    SETDIJ:  cpu time    0.0125: real time    0.0125
     EDDAV:  cpu time   48.3219: real time   48.3887
       DOS:  cpu time    0.0009: real time    0.0010
    --------------------------------------------
      LOOP:  cpu time   48.6727: real time   48.7403

 eigenvalue-minimisations  :  2000
 total energy-change (2. order) : 0.2081507E+04  (-0.1143147E+05)
 number of electron     324.0000000 magnetization 
 augmentation part      324.0000000 magnetization 

 Free energy of the ion-electron system (eV)
  ---------------------------------------------------
  alpha Z        PSCENC =       240.00346515
  Ewald energy   TEWEN  =     56758.50004348
  -Hartree energ DENC   =    -68417.29214610
  -exchange      EXHF   =         0.00000000
  -V(xc)+E(xc)   XCENC  =     -2104.66464925
  PAW double counting   =      7476.04436201    -4809.59211051
  entropy T*S    EENTRO =        -0.12601580
  eigenvalues    EBANDS =       985.55136363
  atomic energy  EATOM  =     11953.08265402
  Solvation  Ediel_sol  =         0.00000000
  ---------------------------------------------------
  free energy    TOTEN  =      2081.50696664 eV

  energy without entropy =     2081.63298244  energy(sigma->0) =     2081.56997454


--------------------------------------------------------------------------------------------------------




--------------------------------------- Iteration      1(   2)  ---------------------------------------


     EDDAV:  cpu time   66.8919: real time   66.9808
       DOS:  cpu time    0.0006: real time    0.0006
    --------------------------------------------
      LOOP:  cpu time   66.8925: real time   66.9813

 eigenvalue-minimisations  :  3000
 total energy-change (2. order) :-0.2178777E+04  (-0.2117421E+04)
 number of electron     324.0000000 magnetization 
 augmentation part      324.0000000 magnetization 

 Free energy of the ion-electron system (eV)
  ---------------------------------------------------
  alpha Z        PSCENC =       240.00346515
  Ewald energy   TEWEN  =     56758.50004348
  -Hartree energ DENC   =    -68417.29214610
  -exchange      EXHF   =         0.00000000
  -V(xc)+E(xc)   XCENC  =     -2104.66464925
  PAW double counting   =      7476.04436201    -4809.59211051
  entropy T*S    EENTRO =        -0.02217802
  eigenvalues    EBANDS =     -1193.32950849
  atomic energy  EATOM  =     11953.08265402
  Solvation  Ediel_sol  =         0.00000000
  ---------------------------------------------------
  free energy    TOTEN  =       -97.27006770 eV

  energy without entropy =      -97.24788968  energy(sigma->0) =      -97.25897869


--------------------------------------------------------------------------------------------------------




--------------------------------------- Iteration      1(   3)  ---------------------------------------


     EDDAV:  cpu time   58.7540: real time   58.8315
       DOS:  cpu time    0.0004: real time    0.0004
    --------------------------------------------
      LOOP:  cpu time   58.7543: real time   58.8319

 eigenvalue-minimisations  :  2560
 total energy-change (2. order) :-0.2285239E+03  (-0.2254018E+03)
 number of electron     324.0000000 magnetization 
 augmentation part      324.0000000 magnetization 

 Free energy of the ion-electron system (eV)
  ---------------------------------------------------
  alpha Z        PSCENC =       240.00346515
  Ewald energy   TEWEN  =     56758.50004348
  -Hartree energ DENC   =    -68417.29214610
  -exchange      EXHF   =         0.00000000
  -V(xc)+E(xc)   XCENC  =     -2104.66464925
  PAW double counting   =      7476.04436201    -4809.59211051
  entropy T*S    EENTRO =        -0.00000000
  eigenvalues    EBANDS =     -1421.87554133
  atomic energy  EATOM  =     11953.08265402
  Solvation  Ediel_sol  =         0.00000000
  ---------------------------------------------------
  free energy    TOTEN  =      -325.79392252 eV

  energy without entropy =     -325.79392252  energy(sigma->0) =     -325.79392252


--------------------------------------------------------------------------------------------------------




--------------------------------------- Iteration      1(   4)  ---------------------------------------


     EDDAV:  cpu time   68.2923: real time   68.3857
       DOS:  cpu time    0.0004: real time    0.0004
    --------------------------------------------
      LOOP:  cpu time   68.2927: real time   68.3861

 eigenvalue-minimisations  :  3080
 total energy-change (2. order) :-0.1081510E+02  (-0.1073574E+02)
 number of electron     324.0000000 magnetization 
 augmentation part      324.0000000 magnetization 

 Free energy of the ion-electron system (eV)
  ---------------------------------------------------
  alpha Z        PSCENC =       240.00346515
  Ewald energy   TEWEN  =     56758.50004348
  -Hartree energ DENC   =    -68417.29214610
  -exchange      EXHF   =         0.00000000
  -V(xc)+E(xc)   XCENC  =     -2104.66464925
  PAW double counting   =      7476.04436201    -4809.59211051
  entropy T*S    EENTRO =        -0.00000000
  eigenvalues    EBANDS =     -1432.69063800
  atomic energy  EATOM  =     11953.08265402
  Solvation  Ediel_sol  =         0.00000000
  ---------------------------------------------------
  free energy    TOTEN  =      -336.60901919 eV

  energy without entropy =     -336.60901919  energy(sigma->0) =     -336.60901919


--------------------------------------------------------------------------------------------------------




--------------------------------------- Iteration      1(   5)  ---------------------------------------


     EDDAV:  cpu time   65.2866: real time   65.3760
       DOS:  cpu time    0.0004: real time    0.0004
    CHARGE:  cpu time    1.1398: real time    1.1409
    MIXING:  cpu time    0.0074: real time    0.0078
    --------------------------------------------
      LOOP:  cpu time   66.4342: real time   66.5250

 eigenvalue-minimisations  :  2920
 total energy-change (2. order) :-0.3362985E+00  (-0.3355346E+00)
 number of electron     324.0000010 magnetization 
 augmentation part      -25.9681560 magnetization 

 Broyden mixing:
  rms(total) = 0.19756E+01    rms(broyden)= 0.19756E+01
  rms(prec ) = 0.20920E+01
  weight for this iteration     100.00

 Free energy of the ion-electron system (eV)
  ---------------------------------------------------
  alpha Z        PSCENC =       240.00346515
  Ewald energy   TEWEN  =     56758.50004348
  -Hartree energ DENC   =    -68417.29214610
  -exchange      EXHF   =         0.00000000
  -V(xc)+E(xc)   XCENC  =     -2104.66464925
  PAW double counting   =      7476.04436201    -4809.59211051
  entropy T*S    EENTRO =        -0.00000000
  eigenvalues    EBANDS =     -1433.02693651
  atomic energy  EATOM  =     11953.08265402
  Solvation  Ediel_sol  =         0.00000000
  ---------------------------------------------------
  free energy    TOTEN  =      -336.94531770 eV

  energy without entropy =     -336.94531770  energy(sigma->0) =     -336.94531770


--------------------------------------------------------------------------------------------------------




--------------------------------------- Iteration      1(   6)  ---------------------------------------


    POTLOK:  cpu time    0.2915: real time    0.2918
    SETDIJ:  cpu time    0.0116: real time    0.0116
    EDDIAG:  cpu time    2.4592: real time    2.4623
  RMM-DIIS:  cpu time   41.5976: real time   41.6542
    ORTHCH:  cpu time    0.2063: real time    0.2065
       DOS:  cpu time    0.0004: real time    0.0004
    CHARGE:  cpu time    1.1474: real time    1.1485
    MIXING:  cpu time    0.0071: real time    0.0072
    --------------------------------------------
      LOOP:  cpu time   45.7213: real time   45.7825

 eigenvalue-minimisations  :  2152
 total energy-change (2. order) : 0.9043462E+01  (-0.6797706E+01)
 number of electron     324.0000010 magnetization 
 augmentation part      -19.5321583 magnetization 

 Broyden mixing:
  rms(total) = 0.74334E+00    rms(broyden)= 0.74333E+00
  rms(prec ) = 0.87585E+00
  weight for this iteration     100.00

 eigenvalues of (default mixing * dielectric matrix)
  average eigenvalue GAMMA=   0.9711
  0.9711

 Free energy of the ion-electron system (eV)
  ---------------------------------------------------
  alpha Z        PSCENC =       240.00346515
  Ewald energy   TEWEN  =     56758.50004348
  -Hartree energ DENC   =    -68383.37005963
  -exchange      EXHF   =         0.00000000
  -V(xc)+E(xc)   XCENC  =     -2098.04992912
  PAW double counting   =      7622.26997093    -4966.61670447
  entropy T*S    EENTRO =        -0.00000000
  eigenvalues    EBANDS =     -1453.72129589
  atomic energy  EATOM  =     11953.08265402
  Solvation  Ediel_sol  =         0.00000000
  ---------------------------------------------------
  free energy    TOTEN  =      -327.90185553 eV

  energy without entropy =     -327.90185553  energy(sigma->0) =     -327.90185553


--------------------------------------------------------------------------------------------------------




--------------------------------------- Iteration      1(   7)  ---------------------------------------


    POTLOK:  cpu time    0.2907: real time    0.2910
    SETDIJ:  cpu time    0.0115: real time    0.0115
    EDDIAG:  cpu time    2.4572: real time    2.4597
  RMM-DIIS:  cpu time   39.5978: real time   39.6523
    ORTHCH:  cpu time    0.2085: real time    0.2087
       DOS:  cpu time    0.0004: real time    0.0004
    CHARGE:  cpu time    1.1443: real time    1.1458
    MIXING:  cpu time    0.0071: real time    0.0071
    --------------------------------------------
      LOOP:  cpu time   43.7175: real time   43.7765

 eigenvalue-minimisations  :  2028
 total energy-change (2. order) : 0.3831959E+01  (-0.1233027E+01)
 number of electron     324.0000010 magnetization 
 augmentation part      -21.7913034 magnetization 

 Broyden mixing:
  rms(total) = 0.49086E+00    rms(broyden)= 0.49086E+00
  rms(prec ) = 0.52200E+00
  weight for this iteration     100.00

 eigenvalues of (default mixing * dielectric matrix)
  average eigenvalue GAMMA=   1.4608
  0.7073  2.2144

 Free energy of the ion-electron system (eV)
  ---------------------------------------------------
  alpha Z        PSCENC =       240.00346515
  Ewald energy   TEWEN  =     56758.50004348
  -Hartree energ DENC   =    -68470.64794428
  -exchange      EXHF   =         0.00000000
  -V(xc)+E(xc)   XCENC  =     -2097.27243682
  PAW double counting   =      7882.14046288    -5230.60647944
  entropy T*S    EENTRO =        -0.00000000
  eigenvalues    EBANDS =     -1359.26966128
  atomic energy  EATOM  =     11953.08265402
  Solvation  Ediel_sol  =         0.00000000
  ---------------------------------------------------
  free energy    TOTEN  =      -324.06989629 eV

  energy without entropy =     -324.06989629  energy(sigma->0) =     -324.06989629


--------------------------------------------------------------------------------------------------------




--------------------------------------- Iteration      1(   8)  ---------------------------------------


    POTLOK:  cpu time    0.2918: real time    0.2921
    SETDIJ:  cpu time    0.0116: real time    0.0116
    EDDIAG:  cpu time    2.4620: real time    2.4647
  RMM-DIIS:  cpu time   39.0094: real time   39.0665
    ORTHCH:  cpu time    0.2061: real time    0.2062
       DOS:  cpu time    0.0004: real time    0.0004
    CHARGE:  cpu time    1.1483: real time    1.1498
    MIXING:  cpu time    0.0072: real time    0.0072
    --------------------------------------------
      LOOP:  cpu time   43.1368: real time   43.1987

 eigenvalue-minimisations  :  2020
 total energy-change (2. order) : 0.4944658E+00  (-0.9448866E+00)
 number of electron     324.0000010 magnetization 
 augmentation part      -21.7457390 magnetization 

 Broyden mixing:
  rms(total) = 0.16699E+00    rms(broyden)= 0.16699E+00
  rms(prec ) = 0.19376E+00
  weight for this iteration     100.00

 eigenvalues of (default mixing * dielectric matrix)
  average eigenvalue GAMMA=   1.2141
  2.1491  0.7466  0.7466

 Free energy of the ion-electron system (eV)
  ---------------------------------------------------
  alpha Z        PSCENC =       240.00346515
  Ewald energy   TEWEN  =     56758.50004348
  -Hartree energ DENC   =    -68535.21648911
  -exchange      EXHF   =         0.00000000
  -V(xc)+E(xc)   XCENC  =     -2093.32082713
  PAW double counting   =      8177.13364097    -5531.83015502
  entropy T*S    EENTRO =        -0.00000000
  eigenvalues    EBANDS =     -1291.92776284
  atomic energy  EATOM  =     11953.08265402
  Solvation  Ediel_sol  =         0.00000000
  ---------------------------------------------------
  free energy    TOTEN  =      -323.57543047 eV

  energy without entropy =     -323.57543047  energy(sigma->0) =     -323.57543047


--------------------------------------------------------------------------------------------------------




--------------------------------------- Iteration      1(   9)  ---------------------------------------


    POTLOK:  cpu time    0.2908: real time    0.2911
    SETDIJ:  cpu time    0.0116: real time    0.0116
    EDDIAG:  cpu time    2.4611: real time    2.4642
  RMM-DIIS:  cpu time   43.5469: real time   43.5991
    ORTHCH:  cpu time    0.2066: real time    0.2081
       DOS:  cpu time    0.0004: real time    0.0004
    CHARGE:  cpu time    1.1472: real time    1.1483
    MIXING:  cpu time    0.0072: real time    0.0072
    --------------------------------------------
      LOOP:  cpu time   47.6719: real time   47.7301

 eigenvalue-minimisations  :  2218
 total energy-change (2. order) :-0.5360110E-03  (-0.1518261E+00)
 number of electron     324.0000010 magnetization 
 augmentation part      -21.3373111 magnetization 

 Broyden mixing:
  rms(total) = 0.10832E+00    rms(broyden)= 0.10832E+00
  rms(prec ) = 0.12150E+00
  weight for this iteration     100.00

 eigenvalues of (default mixing * dielectric matrix)
  average eigenvalue GAMMA=   1.0966
  2.0237  1.2046  0.7408  0.4173

 Free energy of the ion-electron system (eV)
  ---------------------------------------------------
  alpha Z        PSCENC =       240.00346515
  Ewald energy   TEWEN  =     56758.50004348
  -Hartree energ DENC   =    -68530.56840803
  -exchange      EXHF   =         0.00000000
  -V(xc)+E(xc)   XCENC  =     -2093.01998306
  PAW double counting   =      8168.70230988    -5523.45090038
  entropy T*S    EENTRO =        -0.00000000
  eigenvalues    EBANDS =     -1296.82514754
  atomic energy  EATOM  =     11953.08265402
  Solvation  Ediel_sol  =         0.00000000
  ---------------------------------------------------
  free energy    TOTEN  =      -323.57596648 eV

  energy without entropy =     -323.57596648  energy(sigma->0) =     -323.57596648


--------------------------------------------------------------------------------------------------------




--------------------------------------- Iteration      1(  10)  ---------------------------------------


    POTLOK:  cpu time    0.2921: real time    0.2923
    SETDIJ:  cpu time    0.0117: real time    0.0117
    EDDIAG:  cpu time    2.4770: real time    2.4795
  RMM-DIIS:  cpu time   45.0182: real time   45.0837
    ORTHCH:  cpu time    0.2063: real time    0.2065
       DOS:  cpu time    0.0005: real time    0.0005
    CHARGE:  cpu time    1.1442: real time    1.1452
    MIXING:  cpu time    0.0073: real time    0.0074
    --------------------------------------------
      LOOP:  cpu time   49.1573: real time   49.2267

 eigenvalue-minimisations  :  2317
 total energy-change (2. order) :-0.4791585E-02  (-0.5437245E-01)
 number of electron     324.0000010 magnetization 
 augmentation part      -21.0397223 magnetization 

 Broyden mixing:
  rms(total) = 0.77177E-01    rms(broyden)= 0.77177E-01
  rms(prec ) = 0.85596E-01
  weight for this iteration     100.00

 eigenvalues of (default mixing * dielectric matrix)
  average eigenvalue GAMMA=   1.2493
  2.3346  1.6601  0.9882  0.8822  0.3815

 Free energy of the ion-electron system (eV)
  ---------------------------------------------------
  alpha Z        PSCENC =       240.00346515
  Ewald energy   TEWEN  =     56758.50004348
  -Hartree energ DENC   =    -68530.43492356
  -exchange      EXHF   =         0.00000000
  -V(xc)+E(xc)   XCENC  =     -2092.79313312
  PAW double counting   =      8173.37430607    -5528.08068876
  entropy T*S    EENTRO =        -0.00000000
  eigenvalues    EBANDS =     -1297.23248136
  atomic energy  EATOM  =     11953.08265402
  Solvation  Ediel_sol  =         0.00000000
  ---------------------------------------------------
  free energy    TOTEN  =      -323.58075807 eV

  energy without entropy =     -323.58075807  energy(sigma->0) =     -323.58075807


--------------------------------------------------------------------------------------------------------




--------------------------------------- Iteration      1(  11)  ---------------------------------------


    POTLOK:  cpu time    0.2921: real time    0.2925
    SETDIJ:  cpu time    0.0117: real time    0.0117
    EDDIAG:  cpu time    2.4538: real time    2.4568
  RMM-DIIS:  cpu time   41.9041: real time   41.9582
    ORTHCH:  cpu time    0.2060: real time    0.2062
       DOS:  cpu time    0.0004: real time    0.0004
    CHARGE:  cpu time    1.1416: real time    1.1434
    MIXING:  cpu time    0.0075: real time    0.0075
    --------------------------------------------
      LOOP:  cpu time   46.0171: real time   46.0766

 eigenvalue-minimisations  :  2152
 total energy-change (2. order) : 0.9715520E-02  (-0.1938218E-01)
 number of electron     324.0000010 magnetization 
 augmentation part      -21.3341077 magnetization 

 Broyden mixing:
  rms(total) = 0.44973E-01    rms(broyden)= 0.44973E-01
  rms(prec ) = 0.51375E-01
  weight for this iteration     100.00

 eigenvalues of (default mixing * dielectric matrix)
  average eigenvalue GAMMA=   1.1880
  2.5556  1.6512  1.2459  0.7641  0.5360  0.3752

 Free energy of the ion-electron system (eV)
  ---------------------------------------------------
  alpha Z        PSCENC =       240.00346515
  Ewald energy   TEWEN  =     56758.50004348
  -Hartree energ DENC   =    -68549.84834935
  -exchange      EXHF   =         0.00000000
  -V(xc)+E(xc)   XCENC  =     -2092.45284877
  PAW double counting   =      8224.02964637    -5578.98554336
  entropy T*S    EENTRO =        -0.00000000
  eigenvalues    EBANDS =     -1277.90011010
  atomic energy  EATOM  =     11953.08265402
  Solvation  Ediel_sol  =         0.00000000
  ---------------------------------------------------
  free energy    TOTEN  =      -323.57104255 eV

  energy without entropy =     -323.57104255  energy(sigma->0) =     -323.57104255


--------------------------------------------------------------------------------------------------------




--------------------------------------- Iteration      1(  12)  ---------------------------------------


    POTLOK:  cpu time    0.2929: real time    0.2932
    SETDIJ:  cpu time    0.0116: real time    0.0116
    EDDIAG:  cpu time    2.4516: real time    2.4545
  RMM-DIIS:  cpu time   49.7393: real time   49.8023
    ORTHCH:  cpu time    0.2060: real time    0.2064
       DOS:  cpu time    0.0004: real time    0.0004
    CHARGE:  cpu time    1.1412: real time    1.1422
    MIXING:  cpu time    0.0076: real time    0.0076
    --------------------------------------------
      LOOP:  cpu time   53.8507: real time   53.9184

 eigenvalue-minimisations  :  2494
 total energy-change (2. order) :-0.6686616E-03  (-0.5910463E-02)
 number of electron     324.0000010 magnetization 
 augmentation part      -21.3522702 magnetization 

 Broyden mixing:
  rms(total) = 0.33730E-01    rms(broyden)= 0.33730E-01
  rms(prec ) = 0.38503E-01
  weight for this iteration     100.00

 eigenvalues of (default mixing * dielectric matrix)
  average eigenvalue GAMMA=   1.1634
  2.5342  1.6321  1.6321  0.7963  0.7963  0.3944  0.3580

 Free energy of the ion-electron system (eV)
  ---------------------------------------------------
  alpha Z        PSCENC =       240.00346515
  Ewald energy   TEWEN  =     56758.50004348
  -Hartree energ DENC   =    -68554.60279436
  -exchange      EXHF   =         0.00000000
  -V(xc)+E(xc)   XCENC  =     -2092.31936943
  PAW double counting   =      8231.27111303    -5586.27466083
  entropy T*S    EENTRO =        -0.00000000
  eigenvalues    EBANDS =     -1273.23216228
  atomic energy  EATOM  =     11953.08265402
  Solvation  Ediel_sol  =         0.00000000
  ---------------------------------------------------
  free energy    TOTEN  =      -323.57171121 eV

  energy without entropy =     -323.57171121  energy(sigma->0) =     -323.57171121


--------------------------------------------------------------------------------------------------------




--------------------------------------- Iteration      1(  13)  ---------------------------------------


    POTLOK:  cpu time    0.2927: real time    0.2930
    SETDIJ:  cpu time    0.0117: real time    0.0117
    EDDIAG:  cpu time    2.4695: real time    2.4721
  RMM-DIIS:  cpu time   46.5993: real time   46.6621
    ORTHCH:  cpu time    0.2061: real time    0.2064
       DOS:  cpu time    0.0004: real time    0.0004
    CHARGE:  cpu time    1.1411: real time    1.1430
    MIXING:  cpu time    0.0077: real time    0.0077
    --------------------------------------------
      LOOP:  cpu time   50.7285: real time   50.7964

 eigenvalue-minimisations  :  2388
 total energy-change (2. order) : 0.2765657E-02  (-0.3273438E-02)
 number of electron     324.0000010 magnetization 
 augmentation part      -21.2246677 magnetization 

 Broyden mixing:
  rms(total) = 0.95707E-02    rms(broyden)= 0.95706E-02
  rms(prec ) = 0.13148E-01
  weight for this iteration     100.00

 eigenvalues of (default mixing * dielectric matrix)
  average eigenvalue GAMMA=   1.2477
  2.2946  2.2946  1.9460  1.1010  0.7959  0.7959  0.3955  0.3580

 Free energy of the ion-electron system (eV)
  ---------------------------------------------------
  alpha Z        PSCENC =       240.00346515
  Ewald energy   TEWEN  =     56758.50004348
  -Hartree energ DENC   =    -68556.26742650
  -exchange      EXHF   =         0.00000000
  -V(xc)+E(xc)   XCENC  =     -2092.22608796
  PAW double counting   =      8225.69002558    -5580.67258211
  entropy T*S    EENTRO =        -0.00000000
  eigenvalues    EBANDS =     -1271.67903722
  atomic energy  EATOM  =     11953.08265402
  Solvation  Ediel_sol  =         0.00000000
  ---------------------------------------------------
  free energy    TOTEN  =      -323.56894555 eV

  energy without entropy =     -323.56894555  energy(sigma->0) =     -323.56894555


--------------------------------------------------------------------------------------------------------




--------------------------------------- Iteration      1(  14)  ---------------------------------------


    POTLOK:  cpu time    0.2938: real time    0.2941
    SETDIJ:  cpu time    0.0116: real time    0.0117
    EDDIAG:  cpu time    2.4524: real time    2.4549
  RMM-DIIS:  cpu time   49.3058: real time   49.3708
    ORTHCH:  cpu time    0.2071: real time    0.2072
       DOS:  cpu time    0.0004: real time    0.0004
    CHARGE:  cpu time    1.1464: real time    1.1474
    MIXING:  cpu time    0.0078: real time    0.0078
    --------------------------------------------
      LOOP:  cpu time   53.4254: real time   53.4944

 eigenvalue-minimisations  :  2476
 total energy-change (2. order) :-0.1177071E-02  (-0.1020653E-02)
 number of electron     324.0000010 magnetization 
 augmentation part      -21.2125576 magnetization 

 Broyden mixing:
  rms(total) = 0.82742E-02    rms(broyden)= 0.82742E-02
  rms(prec ) = 0.10648E-01
  weight for this iteration     100.00

 eigenvalues of (default mixing * dielectric matrix)
  average eigenvalue GAMMA=   1.2955
  3.2233  2.5491  1.4958  1.4958  0.7959  0.7959  0.5508  0.3949  0.3582

 Free energy of the ion-electron system (eV)
  ---------------------------------------------------
  alpha Z        PSCENC =       240.00346515
  Ewald energy   TEWEN  =     56758.50004348
  -Hartree energ DENC   =    -68563.96038891
  -exchange      EXHF   =         0.00000000
  -V(xc)+E(xc)   XCENC  =     -2092.16999057
  PAW double counting   =      8222.27348822    -5577.18109677
  entropy T*S    EENTRO =        -0.00000000
  eigenvalues    EBANDS =     -1264.11829725
  atomic energy  EATOM  =     11953.08265402
  Solvation  Ediel_sol  =         0.00000000
  ---------------------------------------------------
  free energy    TOTEN  =      -323.57012262 eV

  energy without entropy =     -323.57012262  energy(sigma->0) =     -323.57012262


--------------------------------------------------------------------------------------------------------




--------------------------------------- Iteration      1(  15)  ---------------------------------------


    POTLOK:  cpu time    0.2945: real time    0.2948
    SETDIJ:  cpu time    0.0118: real time    0.0118
    EDDIAG:  cpu time    2.4555: real time    2.4580
  RMM-DIIS:  cpu time   45.7754: real time   45.8366
    ORTHCH:  cpu time    0.2049: real time    0.2051
       DOS:  cpu time    0.0004: real time    0.0004
    CHARGE:  cpu time    1.1433: real time    1.1444
    MIXING:  cpu time    0.0098: real time    0.0098
    --------------------------------------------
      LOOP:  cpu time   49.8957: real time   49.9610

 eigenvalue-minimisations  :  2342
 total energy-change (2. order) :-0.4503373E-03  (-0.2316733E-03)
 number of electron     324.0000010 magnetization 
 augmentation part      -21.2250832 magnetization 

 Broyden mixing:
  rms(total) = 0.51148E-02    rms(broyden)= 0.51148E-02
  rms(prec ) = 0.65914E-02
  weight for this iteration     100.00

 eigenvalues of (default mixing * dielectric matrix)
  average eigenvalue GAMMA=   1.2729
  3.6152  2.4842  1.5765  1.5765  0.7948  0.7948  0.7332  0.3574  0.4051  0.3915

 Free energy of the ion-electron system (eV)
  ---------------------------------------------------
  alpha Z        PSCENC =       240.00346515
  Ewald energy   TEWEN  =     56758.50004348
  -Hartree energ DENC   =    -68569.06674812
  -exchange      EXHF   =         0.00000000
  -V(xc)+E(xc)   XCENC  =     -2092.13766947
  PAW double counting   =      8221.93452574    -5576.80551735
  entropy T*S    EENTRO =        -0.00000000
  eigenvalues    EBANDS =     -1259.08132642
  atomic energy  EATOM  =     11953.08265402
  Solvation  Ediel_sol  =         0.00000000
  ---------------------------------------------------
  free energy    TOTEN  =      -323.57057296 eV

  energy without entropy =     -323.57057296  energy(sigma->0) =     -323.57057296


--------------------------------------------------------------------------------------------------------




--------------------------------------- Iteration      1(  16)  ---------------------------------------


    POTLOK:  cpu time    0.3372: real time    0.3376
    SETDIJ:  cpu time    0.0171: real time    0.0171
    EDDIAG:  cpu time    2.4661: real time    2.4689
  RMM-DIIS:  cpu time   48.1656: real time   48.2292
    ORTHCH:  cpu time    0.2072: real time    0.2073
       DOS:  cpu time    0.0005: real time    0.0004
    CHARGE:  cpu time    1.1441: real time    1.1451
    MIXING:  cpu time    0.0081: real time    0.0081
    --------------------------------------------
      LOOP:  cpu time   52.3458: real time   52.4139

 eigenvalue-minimisations  :  2468
 total energy-change (2. order) :-0.6959717E-03  (-0.8613239E-04)
 number of electron     324.0000010 magnetization 
 augmentation part      -21.2329347 magnetization 

 Broyden mixing:
  rms(total) = 0.35602E-02    rms(broyden)= 0.35602E-02
  rms(prec ) = 0.46014E-02
  weight for this iteration     100.00

 eigenvalues of (default mixing * dielectric matrix)
  average eigenvalue GAMMA=   1.3020
  3.7503  2.4394  1.8703  1.8703  1.0013  0.8062  0.8062  0.6478  0.3569  0.3954
  0.3775

 Free energy of the ion-electron system (eV)
  ---------------------------------------------------
  alpha Z        PSCENC =       240.00346515
  Ewald energy   TEWEN  =     56758.50004348
  -Hartree energ DENC   =    -68571.17236761
  -exchange      EXHF   =         0.00000000
  -V(xc)+E(xc)   XCENC  =     -2092.12569375
  PAW double counting   =      8222.05099539    -5576.91590745
  entropy T*S    EENTRO =        -0.00000000
  eigenvalues    EBANDS =     -1256.99445816
  atomic energy  EATOM  =     11953.08265402
  Solvation  Ediel_sol  =         0.00000000
  ---------------------------------------------------
  free energy    TOTEN  =      -323.57126893 eV

  energy without entropy =     -323.57126893  energy(sigma->0) =     -323.57126893


--------------------------------------------------------------------------------------------------------




--------------------------------------- Iteration      1(  17)  ---------------------------------------


    POTLOK:  cpu time    0.2954: real time    0.2958
    SETDIJ:  cpu time    0.0116: real time    0.0116
    EDDIAG:  cpu time    2.4548: real time    2.4581
  RMM-DIIS:  cpu time   43.4634: real time   43.5179
    ORTHCH:  cpu time    0.2066: real time    0.2068
       DOS:  cpu time    0.0005: real time    0.0005
    CHARGE:  cpu time    1.1464: real time    1.1473
    MIXING:  cpu time    0.0082: real time    0.0082
    --------------------------------------------
      LOOP:  cpu time   47.5868: real time   47.6462

 eigenvalue-minimisations  :  2217
 total energy-change (2. order) :-0.1427096E-02  (-0.2848054E-04)
 number of electron     324.0000010 magnetization 
 augmentation part      -21.2316023 magnetization 

 Broyden mixing:
  rms(total) = 0.21935E-02    rms(broyden)= 0.21935E-02
  rms(prec ) = 0.29845E-02
  weight for this iteration     100.00

 eigenvalues of (default mixing * dielectric matrix)
  average eigenvalue GAMMA=   1.3377
  4.1610  2.5227  2.2597  1.6435  1.3042  0.8036  0.8036  0.8434  0.5854  0.3956
  0.3572  0.3731

 Free energy of the ion-electron system (eV)
  ---------------------------------------------------
  alpha Z        PSCENC =       240.00346515
  Ewald energy   TEWEN  =     56758.50004348
  -Hartree energ DENC   =    -68573.47396371
  -exchange      EXHF   =         0.00000000
  -V(xc)+E(xc)   XCENC  =     -2092.11397382
  PAW double counting   =      8221.43028524    -5576.29981954
  entropy T*S    EENTRO =        -0.00000000
  eigenvalues    EBANDS =     -1254.70138685
  atomic energy  EATOM  =     11953.08265402
  Solvation  Ediel_sol  =         0.00000000
  ---------------------------------------------------
  free energy    TOTEN  =      -323.57269603 eV

  energy without entropy =     -323.57269603  energy(sigma->0) =     -323.57269603


--------------------------------------------------------------------------------------------------------




--------------------------------------- Iteration      1(  18)  ---------------------------------------


    POTLOK:  cpu time    0.2955: real time    0.2958
    SETDIJ:  cpu time    0.0116: real time    0.0116
    EDDIAG:  cpu time    2.4562: real time    2.4586
  RMM-DIIS:  cpu time   41.8663: real time   41.9200
    ORTHCH:  cpu time    0.2074: real time    0.2075
       DOS:  cpu time    0.0004: real time    0.0004
    CHARGE:  cpu time    1.1490: real time    1.1500
    MIXING:  cpu time    0.0084: real time    0.0084
    --------------------------------------------
      LOOP:  cpu time   45.9947: real time   46.0523

 eigenvalue-minimisations  :  2125
 total energy-change (2. order) :-0.1166089E-02  (-0.3048391E-04)
 number of electron     324.0000010 magnetization 
 augmentation part      -21.2328699 magnetization 

 Broyden mixing:
  rms(total) = 0.21174E-02    rms(broyden)= 0.21174E-02
  rms(prec ) = 0.25699E-02
  weight for this iteration     100.00

 eigenvalues of (default mixing * dielectric matrix)
  average eigenvalue GAMMA=   1.3946
  4.9997  2.9081  2.3547  1.5868  1.5868  0.9421  0.8131  0.8131  0.6207  0.3939
  0.3939  0.3578  0.3596

 Free energy of the ion-electron system (eV)
  ---------------------------------------------------
  alpha Z        PSCENC =       240.00346515
  Ewald energy   TEWEN  =     56758.50004348
  -Hartree energ DENC   =    -68575.61316567
  -exchange      EXHF   =         0.00000000
  -V(xc)+E(xc)   XCENC  =     -2092.10610783
  PAW double counting   =      8220.85352392    -5575.72584348
  entropy T*S    EENTRO =        -0.00000000
  eigenvalues    EBANDS =     -1252.56843171
  atomic energy  EATOM  =     11953.08265402
  Solvation  Ediel_sol  =         0.00000000
  ---------------------------------------------------
  free energy    TOTEN  =      -323.57386212 eV

  energy without entropy =     -323.57386212  energy(sigma->0) =     -323.57386212


--------------------------------------------------------------------------------------------------------




--------------------------------------- Iteration      1(  19)  ---------------------------------------


    POTLOK:  cpu time    0.2962: real time    0.2987
    SETDIJ:  cpu time    0.0119: real time    0.0119
    EDDIAG:  cpu time    2.4755: real time    2.4790
  RMM-DIIS:  cpu time   40.5624: real time   40.6198
    ORTHCH:  cpu time    0.2073: real time    0.2075
       DOS:  cpu time    0.0004: real time    0.0004
    CHARGE:  cpu time    1.1441: real time    1.1452
    MIXING:  cpu time    0.0085: real time    0.0085
    --------------------------------------------
      LOOP:  cpu time   44.7062: real time   44.7710

 eigenvalue-minimisations  :  2076
 total energy-change (2. order) :-0.7739960E-03  (-0.1738386E-04)
 number of electron     324.0000010 magnetization 
 augmentation part      -21.2335126 magnetization 

 Broyden mixing:
  rms(total) = 0.13866E-02    rms(broyden)= 0.13866E-02
  rms(prec ) = 0.17098E-02
  weight for this iteration     100.00

 eigenvalues of (default mixing * dielectric matrix)
  average eigenvalue GAMMA=   1.5193
  6.2119  3.1965  2.3787  1.8465  1.8465  1.0302  1.0302  0.8017  0.8017  0.6283
  0.3963  0.3855  0.3557  0.3602

 Free energy of the ion-electron system (eV)
  ---------------------------------------------------
  alpha Z        PSCENC =       240.00346515
  Ewald energy   TEWEN  =     56758.50004348
  -Hartree energ DENC   =    -68577.07570063
  -exchange      EXHF   =         0.00000000
  -V(xc)+E(xc)   XCENC  =     -2092.10202404
  PAW double counting   =      8220.61476790    -5575.48818881
  entropy T*S    EENTRO =        -0.00000000
  eigenvalues    EBANDS =     -1251.10965319
  atomic energy  EATOM  =     11953.08265402
  Solvation  Ediel_sol  =         0.00000000
  ---------------------------------------------------
  free energy    TOTEN  =      -323.57463611 eV

  energy without entropy =     -323.57463611  energy(sigma->0) =     -323.57463611


--------------------------------------------------------------------------------------------------------




--------------------------------------- Iteration      1(  20)  ---------------------------------------


    POTLOK:  cpu time    0.2977: real time    0.2980
    SETDIJ:  cpu time    0.0115: real time    0.0115
    EDDIAG:  cpu time    2.4572: real time    2.4597
  RMM-DIIS:  cpu time   41.0900: real time   41.1452
    ORTHCH:  cpu time    0.2054: real time    0.2056
       DOS:  cpu time    0.0004: real time    0.0004
    CHARGE:  cpu time    1.1353: real time    1.1368
    MIXING:  cpu time    0.0087: real time    0.0087
    --------------------------------------------
      LOOP:  cpu time   45.2062: real time   45.2658

 eigenvalue-minimisations  :  2099
 total energy-change (2. order) :-0.5729580E-03  (-0.1172158E-04)
 number of electron     324.0000010 magnetization 
 augmentation part      -21.2296266 magnetization 

 Broyden mixing:
  rms(total) = 0.59368E-03    rms(broyden)= 0.59368E-03
  rms(prec ) = 0.68856E-03
  weight for this iteration     100.00

 eigenvalues of (default mixing * dielectric matrix)
  average eigenvalue GAMMA=   1.5307
  6.6762  3.2808  2.4647  1.8044  1.8044  1.1637  1.1637  0.7996  0.7996  0.8670
  0.6371  0.3964  0.3866  0.3605  0.3556

 Free energy of the ion-electron system (eV)
  ---------------------------------------------------
  alpha Z        PSCENC =       240.00346515
  Ewald energy   TEWEN  =     56758.50004348
  -Hartree energ DENC   =    -68577.60213078
  -exchange      EXHF   =         0.00000000
  -V(xc)+E(xc)   XCENC  =     -2092.10321694
  PAW double counting   =      8221.13913419    -5576.01250586
  entropy T*S    EENTRO =        -0.00000000
  eigenvalues    EBANDS =     -1250.58265233
  atomic energy  EATOM  =     11953.08265402
  Solvation  Ediel_sol  =         0.00000000
  ---------------------------------------------------
  free energy    TOTEN  =      -323.57520907 eV

  energy without entropy =     -323.57520907  energy(sigma->0) =     -323.57520907


--------------------------------------------------------------------------------------------------------




--------------------------------------- Iteration      1(  21)  ---------------------------------------


    POTLOK:  cpu time    0.2963: real time    0.2966
    SETDIJ:  cpu time    0.0116: real time    0.0116
    EDDIAG:  cpu time    2.4650: real time    2.4680
  RMM-DIIS:  cpu time   45.4626: real time   45.5232
    ORTHCH:  cpu time    0.2075: real time    0.2077
       DOS:  cpu time    0.0005: real time    0.0005
    CHARGE:  cpu time    1.1512: real time    1.1522
    MIXING:  cpu time    0.0090: real time    0.0090
    --------------------------------------------
      LOOP:  cpu time   49.6034: real time   49.6687

 eigenvalue-minimisations  :  2310
 total energy-change (2. order) :-0.1360349E-03  (-0.3334150E-05)
 number of electron     324.0000010 magnetization 
 augmentation part      -21.2300791 magnetization 

 Broyden mixing:
  rms(total) = 0.45383E-03    rms(broyden)= 0.45383E-03
  rms(prec ) = 0.54619E-03
  weight for this iteration     100.00

 eigenvalues of (default mixing * dielectric matrix)
  average eigenvalue GAMMA=   1.5379
  7.0824  3.3455  2.5671  1.9015  1.7578  1.7578  1.0244  1.0244  0.7990  0.7990
  0.6341  0.3554  0.3601  0.3870  0.3974  0.4134

 Free energy of the ion-electron system (eV)
  ---------------------------------------------------
  alpha Z        PSCENC =       240.00346515
  Ewald energy   TEWEN  =     56758.50004348
  -Hartree energ DENC   =    -68577.74259012
  -exchange      EXHF   =         0.00000000
  -V(xc)+E(xc)   XCENC  =     -2092.10401488
  PAW double counting   =      8221.31128907    -5576.18490592
  entropy T*S    EENTRO =        -0.00000000
  eigenvalues    EBANDS =     -1250.44128592
  atomic energy  EATOM  =     11953.08265402
  Solvation  Ediel_sol  =         0.00000000
  ---------------------------------------------------
  free energy    TOTEN  =      -323.57534511 eV

  energy without entropy =     -323.57534511  energy(sigma->0) =     -323.57534511


--------------------------------------------------------------------------------------------------------




--------------------------------------- Iteration      1(  22)  ---------------------------------------


    POTLOK:  cpu time    0.2985: real time    0.2987
    SETDIJ:  cpu time    0.0116: real time    0.0116
    EDDIAG:  cpu time    2.4568: real time    2.4600
  RMM-DIIS:  cpu time   39.1786: real time   39.2293
    ORTHCH:  cpu time    0.2074: real time    0.2076
       DOS:  cpu time    0.0004: real time    0.0004
    CHARGE:  cpu time    1.1484: real time    1.1496
    MIXING:  cpu time    0.0089: real time    0.0089
    --------------------------------------------
      LOOP:  cpu time   43.3106: real time   43.3662

 eigenvalue-minimisations  :  1882
 total energy-change (2. order) :-0.9725480E-04  (-0.1027537E-05)
 number of electron     324.0000010 magnetization 
 augmentation part      -21.2312193 magnetization 

 Broyden mixing:
  rms(total) = 0.24850E-03    rms(broyden)= 0.24849E-03
  rms(prec ) = 0.29963E-03
  weight for this iteration     100.00

 eigenvalues of (default mixing * dielectric matrix)
  average eigenvalue GAMMA=   1.5864
  7.4787  3.5168  2.5757  2.4753  1.8391  1.8391  1.0650  1.0650  1.0032  0.7993
  0.7993  0.6342  0.3552  0.3597  0.3965  0.3888  0.3781

 Free energy of the ion-electron system (eV)
  ---------------------------------------------------
  alpha Z        PSCENC =       240.00346515
[...]
  0.000   0.000   0.000   0.000   0.000   0.011  -0.000   0.000
  0.000  -0.000   0.000   0.000   0.000  -0.000   0.011  -0.000
  0.000   0.000   0.000   0.000   0.000   0.000  -0.000   0.011
  0.000  -0.000  -0.000  -0.000  -0.001  -0.000   0.000  -0.000
  0.000  -0.000   0.014  -0.000  -0.000   0.000   0.000   0.000
 -0.009  -0.000   0.000   0.018   0.000  -0.000   0.000   0.000
  0.000  -0.000  -0.000  -0.000   0.014   0.000  -0.000   0.000
  0.001  -0.000  -0.000  -0.000  -0.000  -0.000   0.000   0.000
 total augmentation occupancy for first ion, spin component:           1
  1.934   0.200  -0.003  -0.200  -0.002   0.004  -0.038  -0.000  -0.001  -0.001   0.006   0.000  -0.001
  0.200   1.303   0.001   0.929   0.002  -0.008  -0.359   0.001   0.001   0.000  -0.022   0.000   0.003
 -0.003   0.001   1.342  -0.009  -0.002  -0.475   0.000   0.005   0.003   0.117  -0.000  -0.001   0.043
 -0.200   0.929  -0.009   1.495  -0.003   0.000  -0.533  -0.003  -0.003  -0.000   0.038   0.000  -0.003
 -0.002   0.002  -0.002  -0.003   1.322   0.005  -0.003  -0.467   0.044  -0.001   0.001   0.114  -0.002
  0.004  -0.008  -0.475   0.000   0.005   0.287  -0.000  -0.001   0.000  -0.038   0.000   0.001  -0.008
 -0.038  -0.359   0.000  -0.533  -0.003  -0.000   0.277   0.001   0.000   0.000  -0.043  -0.000  -0.000
 -0.000   0.001   0.005  -0.003  -0.467  -0.001   0.001   0.292  -0.007   0.001  -0.000  -0.037   0.001
 -0.001   0.001   0.003  -0.003   0.044   0.000   0.000  -0.007   0.019   0.000  -0.000  -0.001  -0.000
 -0.001   0.000   0.117  -0.000  -0.001  -0.038   0.000   0.001   0.000   0.018  -0.000   0.000  -0.000
  0.006  -0.022  -0.000   0.038   0.001   0.000  -0.043  -0.000  -0.000  -0.000   0.019   0.000  -0.000
  0.000   0.000  -0.001   0.000   0.114   0.001  -0.000  -0.037  -0.001   0.000   0.000   0.018  -0.000
 -0.001   0.003   0.043  -0.003  -0.002  -0.008  -0.000   0.001  -0.000  -0.000  -0.000  -0.000   0.020


------------------------ aborting loop because EDIFF is reached ----------------------------------------


    CHARGE:  cpu time    1.1232: real time    1.1248
    FORLOC:  cpu time    0.0781: real time    0.0781
    FORNL :  cpu time   13.3650: real time   13.3774
    STRESS:  cpu time   70.8677: real time   70.9589
    FORCOR:  cpu time    0.3522: real time    0.3525
    FORHAR:  cpu time    0.1409: real time    0.1410
    MIXING:  cpu time    0.0075: real time    0.0075
    OFIELD:  cpu time    0.0000: real time    0.0000

  Number of pair interactions contributing to vdW energy:  264131
  Edisp (eV):  -18.34869
    FORVDW:  cpu time    0.0296: real time    0.0296

  FORCE on cell =-STRESS in cart. coord.  units (eV):
  Direction    XX          YY          ZZ          XY          YZ          ZX
  --------------------------------------------------------------------------------------
  Alpha Z   240.00347   240.00347   240.00347
  Ewald   65885.07008 65863.99240-74935.09684    41.78628   -44.99324   -23.04003
  Hartree 68242.77129 68235.64080-67848.30079    10.45733    -2.57262    -3.41984
  E(xc)   -1348.34032 -1347.84046 -1366.84645    -0.74287     2.18989     0.77562
  Local  ************************137733.29304   -50.59947    47.59180    25.95289
  n-local  3535.12162  3538.22046  3716.22466     0.83186   -15.71389    -5.39384
  augment  -759.78162  -760.97631  -800.29702     0.60606     2.70571     0.84241
  Kinetic  3279.72979  3266.52438  3241.65342     7.15026    -6.67954    -3.68720
  Fock        0.00000     0.00000     0.00000     0.00000     0.00000     0.00000
  vdW       -11.59455   -11.53547    -8.59353    -0.00318     0.85046     0.22641
  -------------------------------------------------------------------------------------
  Total     -13.67428   -24.21157   -27.96005     9.48628   -16.62143    -7.74359
  in kB      -7.32673   -12.97265   -14.98109     5.08278    -8.90582    -4.14904
  external pressure =      -11.76 kB  Pullay stress =        0.00 kB

  kinetic pressure (ideal gas correction) =      0.24 kB
  total pressure  =    -11.52 kB
  Total+kin.    -7.109     -12.707     -14.750       5.121      -8.851      -4.117

 VOLUME and BASIS-vectors are now :
 -----------------------------------------------------------------------------
  energy-cutoff  :      550.00
  volume of cell :     2990.23
      direct lattice vectors                 reciprocal lattice vectors
    10.572097287  0.000000000  0.000000000     0.094588611  0.055793217 -0.002849823
    -5.478623533  9.288143302  0.000000000     0.000000000  0.107664144 -0.003165041
     0.389435704  0.895206408 30.451936079     0.000000000  0.000000000  0.032838635

  length of vectors
    10.572097287 10.783548665 30.467580567     0.109854494  0.107710656  0.032838635


 FORCES acting on ions
    electron-ion (+dipol)            ewald-force                    non-local-force                 convergence-correction
 -----------------------------------------------------------------------------------------------
   -.122E+01 0.441E-01 0.799E+03   0.126E+01 -.113E+00 -.805E+03   0.645E-01 0.197E+00 0.553E+01   0.435E-03 0.164E-02 0.264E-03
   -.110E+01 -.310E+01 0.799E+03   0.112E+01 0.307E+01 -.804E+03   0.136E+00 0.573E+00 0.585E+01   -.638E-03 0.307E-03 0.109E-02
   0.222E+01 0.124E+01 0.798E+03   -.228E+01 -.133E+01 -.804E+03   0.299E-01 0.219E+00 0.575E+01   0.839E-03 -.158E-02 -.767E-04
   0.419E+00 -.416E+01 0.799E+03   -.363E+00 0.415E+01 -.805E+03   0.387E-01 0.549E+00 0.578E+01   -.979E-03 0.335E-03 -.334E-04
   0.139E+01 0.137E+01 0.798E+03   -.134E+01 -.143E+01 -.804E+03   -.219E+00 0.237E+00 0.580E+01   -.476E-03 -.878E-03 0.755E-03
   -.686E+00 0.193E+01 0.802E+03   0.693E+00 -.202E+01 -.808E+03   0.197E+00 0.234E+00 0.571E+01   0.114E-02 0.367E-03 0.519E-03
   0.418E+01 -.125E+01 0.799E+03   -.421E+01 0.114E+01 -.804E+03   -.287E+00 0.413E+00 0.556E+01   0.612E-03 -.133E-02 0.761E-03
   0.246E+01 0.449E+00 0.798E+03   -.242E+01 -.556E+00 -.804E+03   -.243E+00 0.339E+00 0.588E+01   0.121E-02 0.698E-03 0.318E-03
   -.909E+00 -.288E+00 0.799E+03   0.927E+00 0.171E+00 -.805E+03   0.687E-01 0.530E+00 0.560E+01   -.189E-02 0.510E-03 0.508E-04
   0.147E+01 -.178E+00 -.841E+02   -.143E+01 0.778E-01 0.787E+02   -.905E-01 0.386E+00 0.561E+01   0.278E-03 0.388E-03 -.370E-03
   0.171E+01 -.362E+01 -.843E+02   -.177E+01 0.358E+01 0.789E+02   0.933E-01 0.591E+00 0.569E+01   0.242E-03 0.721E-03 0.628E-03
   0.689E+00 0.214E+01 -.847E+02   -.710E+00 -.223E+01 0.793E+02   0.159E+00 0.323E+00 0.581E+01   -.168E-03 -.785E-03 0.101E-03
   0.307E+00 -.143E+01 -.824E+02   -.294E+00 0.138E+01 0.771E+02   -.212E-01 0.479E+00 0.567E+01   0.245E-03 0.673E-03 -.312E-03
   0.123E+01 -.176E+01 -.830E+02   -.126E+01 0.172E+01 0.777E+02   0.600E-01 0.396E+00 0.595E+01   -.313E-03 0.392E-03 0.377E-03
   0.405E+00 0.195E+01 -.823E+02   -.418E+00 -.202E+01 0.770E+02   0.799E-01 0.181E+00 0.597E+01   0.765E-03 -.651E-03 0.148E-03
   0.164E+01 -.194E+01 -.838E+02   -.164E+01 0.185E+01 0.784E+02   -.179E+00 0.511E+00 0.564E+01   -.382E-03 -.141E-03 0.193E-03
   -.170E+01 -.168E+01 -.838E+02   0.175E+01 0.162E+01 0.785E+02   0.120E+00 0.411E+00 0.610E+01   0.452E-04 -.100E-03 0.640E-03
   0.686E+00 -.211E+00 -.850E+02   -.703E+00 0.131E+00 0.796E+02   0.252E-01 0.473E+00 0.592E+01   -.642E-03 -.245E-03 0.221E-03
   -.146E+00 0.211E+01 0.817E+02   0.246E+00 -.206E+01 -.764E+02   -.223E+00 -.360E+00 -.588E+01   0.476E-03 0.151E-02 -.290E-03
   0.272E+01 0.246E+01 0.852E+02   -.268E+01 -.239E+01 -.798E+02   -.328E+00 -.390E+00 -.576E+01   -.612E-03 0.330E-03 -.105E-02
   0.170E+01 -.362E+00 0.854E+02   -.162E+01 0.461E+00 -.800E+02   -.307E+00 -.231E+00 -.582E+01   0.742E-03 -.171E-02 0.400E-04
   0.265E+01 0.386E+01 0.841E+02   -.252E+01 -.379E+01 -.788E+02   -.463E+00 -.665E+00 -.556E+01   -.112E-02 0.548E-03 0.136E-03
   0.111E+01 0.387E+01 0.842E+02   -.102E+01 -.379E+01 -.789E+02   -.284E+00 -.473E+00 -.580E+01   -.525E-03 -.862E-03 -.324E-03
   0.179E+01 -.541E+00 0.807E+02   -.175E+01 0.650E+00 -.754E+02   -.172E+00 -.229E+00 -.583E+01   0.132E-02 0.190E-03 -.426E-03
   0.291E+01 0.170E+00 0.836E+02   -.283E+01 -.899E-01 -.782E+02   -.484E+00 -.379E+00 -.570E+01   0.506E-03 -.129E-02 -.552E-03
   -.772E+00 0.232E+01 0.841E+02   0.884E+00 -.222E+01 -.787E+02   -.158E+00 -.496E+00 -.585E+01   0.965E-03 0.635E-03 -.123E-03
   -.451E+00 0.558E+00 0.848E+02   0.536E+00 -.486E+00 -.795E+02   -.260E+00 -.302E+00 -.574E+01   -.202E-02 0.387E-03 0.463E-04
   0.134E+01 -.296E+01 -.801E+03   -.128E+01 0.307E+01 0.807E+03   -.132E+00 -.307E-01 -.584E+01   0.137E-03 0.252E-04 0.258E-03
   0.182E+00 0.307E+01 -.799E+03   -.122E+00 -.302E+01 0.804E+03   -.122E+00 -.474E+00 -.547E+01   0.452E-04 0.735E-03 -.910E-03
   0.129E+01 0.240E+01 -.800E+03   -.114E+01 -.229E+01 0.805E+03   -.410E+00 -.376E+00 -.556E+01   -.298E-03 -.853E-03 0.796E-04
   0.446E+00 0.106E+01 -.801E+03   -.351E+00 -.949E+00 0.806E+03   -.240E+00 -.462E+00 -.554E+01   0.152E-03 0.650E-03 -.567E-04
   0.239E+01 0.123E+01 -.798E+03   -.235E+01 -.110E+01 0.804E+03   -.263E+00 -.406E+00 -.560E+01   -.280E-03 0.315E-03 -.901E-03
   0.119E+01 0.299E+01 -.799E+03   -.109E+01 -.290E+01 0.805E+03   -.397E+00 -.440E+00 -.557E+01   0.702E-03 -.656E-03 -.579E-03
   0.179E+01 -.233E+01 -.799E+03   -.175E+01 0.243E+01 0.804E+03   -.367E+00 -.879E-01 -.559E+01   -.409E-03 -.226E-03 -.373E-03
   0.926E-01 0.179E+01 -.800E+03   -.174E-01 -.173E+01 0.805E+03   -.142E+00 -.326E+00 -.576E+01   0.135E-03 -.425E-04 -.758E-03
   0.331E+01 0.397E+01 -.799E+03   -.324E+01 -.395E+01 0.804E+03   -.513E+00 -.371E+00 -.577E+01   -.328E-03 -.137E-03 -.288E-03
   -.352E+01 -.286E+00 0.443E+03   0.360E+01 0.290E+00 -.443E+03   0.421E-01 -.437E-01 0.199E+00   -.530E-03 0.311E-03 0.479E-05
   -.271E+01 -.352E+01 0.442E+03   0.283E+01 0.355E+01 -.442E+03   0.247E+00 0.143E+00 0.249E+00   0.155E-04 0.345E-03 -.906E-04
   -.135E+01 -.244E+00 0.441E+03   0.141E+01 0.241E+00 -.441E+03   0.147E+00 0.339E-02 -.119E+00   0.856E-03 -.343E-03 -.372E-04
   -.485E+00 -.194E+01 0.440E+03   0.590E+00 0.194E+01 -.440E+03   -.128E+00 0.616E-01 0.181E+00   0.609E-03 -.523E-03 -.998E-04
   -.266E+01 -.217E+01 0.440E+03   0.273E+01 0.222E+01 -.440E+03   0.148E+00 0.128E+00 -.770E-01   -.465E-03 0.583E-03 -.291E-04
   -.449E+00 0.842E+00 0.443E+03   0.498E+00 -.769E+00 -.443E+03   0.911E-01 -.243E+00 -.250E+00   -.111E-03 -.138E-03 0.402E-04
   -.966E-01 -.820E-01 0.441E+03   0.514E-01 0.728E-02 -.441E+03   0.854E-01 -.157E+00 0.711E-01   -.270E-03 -.453E-04 -.559E-05
   -.229E+01 -.268E+01 0.440E+03   0.243E+01 0.274E+01 -.440E+03   0.377E+00 0.119E+00 -.346E+00   0.553E-03 -.162E-03 -.131E-04
   -.394E+01 0.166E+01 0.443E+03   0.404E+01 -.168E+01 -.443E+03   0.385E+00 -.184E+00 -.203E-01   -.572E-03 -.137E-03 -.490E-05
   -.593E+00 0.138E+01 -.441E+03   0.686E+00 -.140E+01 0.441E+03   0.194E-01 -.234E+00 -.470E-01   -.292E-03 -.540E-03 0.942E-04
   -.247E+01 -.193E+01 -.440E+03   0.257E+01 0.189E+01 0.441E+03   0.201E+00 -.205E+00 0.324E+00   -.287E-03 0.328E-03 -.199E-04
   0.120E+01 0.750E+00 -.445E+03   -.125E+01 -.778E+00 0.445E+03   -.150E+00 0.109E-01 -.509E+00   0.137E-03 -.278E-03 -.469E-04
   -.259E+01 0.134E+01 -.441E+03   0.268E+01 -.136E+01 0.441E+03   0.169E+00 0.454E-01 -.108E-01   0.429E-03 -.258E-03 0.121E-04
   -.457E+00 -.349E+01 -.442E+03   0.502E+00 0.350E+01 0.442E+03   -.650E-01 0.685E-01 0.472E-01   0.145E-03 0.700E-03 -.682E-04
   -.241E+01 -.186E+01 -.439E+03   0.250E+01 0.192E+01 0.439E+03   -.285E-01 0.264E-01 -.224E+00   0.141E-03 -.583E-05 0.443E-05
   -.292E+01 0.323E+01 -.442E+03   0.302E+01 -.333E+01 0.442E+03   0.328E+00 -.292E+00 -.176E+00   -.160E-03 -.584E-03 -.509E-04
   -.368E+01 -.388E+01 -.441E+03   0.376E+01 0.391E+01 0.441E+03   0.322E+00 0.583E-01 -.784E-01   0.178E-03 0.388E-03 -.139E-04
   -.247E+01 -.206E+01 -.440E+03   0.251E+01 0.207E+01 0.440E+03   0.191E+00 -.388E-01 -.508E-01   -.286E-03 -.192E-03 0.457E-04
 -----------------------------------------------------------------------------------------------
   0.285E+01 0.196E+00 -.366E+00   -.324E-13 0.235E-13 -.193E-11   -.285E+01 -.190E+00 0.364E+00   -.653E-05 -.670E-03 -.108E-02
 
 
 POSITION                                       TOTAL-FORCE (eV/Angst)
 -----------------------------------------------------------------------------------
      0.08402      2.36585      9.53799         0.097882      0.123154      0.227918
     -1.75477      5.41445      9.51928         0.147186      0.521463      0.539808
     -3.54757      8.54424      9.53019        -0.032317      0.121254      0.427533
      3.59970      2.31753      9.52263         0.081009      0.510684      0.519539
      1.79678      5.45567      9.53200        -0.162411      0.167282      0.489325
     -0.04995      8.55328      9.50601         0.196308      0.129901      0.520515
      7.15570      2.34436      9.54366        -0.307911      0.288982      0.260125
      5.32401      5.43902      9.52466        -0.203058      0.221599      0.579706
      3.47776      8.53463      9.53992         0.075558      0.397319      0.250259
     -0.10704      3.10166     17.26743        -0.049711      0.281645      0.169019
     -1.94969      6.18605     17.26122         0.023952      0.539746      0.251333
     -3.79871      9.27289     17.26653         0.122110      0.221427      0.352731
      3.40385      3.06409     17.25598        -0.014966      0.416166      0.246049
      1.57814      6.17579     17.23092         0.023607      0.344863      0.541984
     -0.25344      9.31335     17.22949         0.061533      0.115973      0.582898
      6.94527      3.09439     17.26623        -0.182084      0.409913      0.165356
      5.08215      6.17608     17.22976         0.151425      0.340100      0.702929
      3.27036      9.28973     17.25087        -0.000256      0.381545      0.467382
      0.11410      2.43828     13.21831        -0.124036     -0.309602     -0.470437
     -1.69607      5.53182     13.19348        -0.278313     -0.315015     -0.326233
     -3.50941      8.61486     13.18724        -0.217365     -0.133274     -0.335084
      3.64839      2.46464     13.19368        -0.326975     -0.586824     -0.131516
      1.80798      5.55821     13.20675        -0.190204     -0.382759     -0.378973
      0.00093      8.62501     13.22556        -0.121852     -0.118882     -0.487947
      7.18942      2.44402     13.19386        -0.388197     -0.291530     -0.231088
      5.31023      5.56151     13.20769        -0.052336     -0.389228     -0.393240
      3.52500      8.64271     13.18716        -0.171525     -0.222329     -0.282127
     -0.09873      3.16292     20.93946        -0.076978      0.082218     -0.548618
     -1.90699      6.30512     20.90507        -0.057807     -0.409351     -0.123505
     -3.72928      9.37850     20.91835        -0.251694     -0.249037     -0.212102
      3.42718      3.18160     20.91741        -0.146266     -0.337484     -0.247950
      1.61710      6.28115     20.91025        -0.217362     -0.268352     -0.306444
     -0.20038      9.39510     20.91479        -0.288239     -0.337395     -0.277728
      6.97788      3.17655     20.90486        -0.312714      0.014852     -0.234712
      5.10621      6.27556     20.93327        -0.074198     -0.258516     -0.449983
      3.33795      9.39523     20.92960        -0.429138     -0.342163     -0.461373
      0.15881      0.34323     11.34989         0.116023     -0.048802      0.200037
      8.88832      3.41712     11.35081         0.372172      0.188715      0.308381
      7.05748      6.51680     11.37046         0.212083      0.007666     -0.150238
     -1.77852      9.61342     11.35423        -0.051293      0.064923      0.266389
      1.83159      3.42609     11.37430         0.226235      0.189693     -0.121471
      0.01240      6.55300     11.37565         0.134080     -0.191404     -0.394126
      7.19173      0.34379     11.36227         0.057957     -0.225185      0.090416
      5.34442      3.42801     11.38665         0.535987      0.184035     -0.500128
      3.51819      6.54540     11.36560         0.488515     -0.213316     -0.049532
     -0.05782      1.10216     19.09517         0.100080     -0.262433     -0.118881
     -1.88650      4.19860     19.06876         0.299510     -0.247961      0.421565
      6.86019      7.26677     19.12401        -0.198465     -0.009760     -0.618830
      3.45409      1.07275     19.08461         0.264383      0.028908     -0.028157
      1.64504      4.16671     19.08605        -0.027574      0.096806      0.071115
     -0.17343      7.28474     19.08743         0.057522      0.088361     -0.323128
      6.97690      1.11008     19.09641         0.434511     -0.395996     -0.237794
      5.13743      4.16850     19.08904         0.421881      0.099775     -0.119587
      3.32576      7.27971     19.08188         0.253514     -0.026814     -0.094736
 -----------------------------------------------------------------------------------
    total drift:                               -0.000223      0.005557     -0.003354


--------------------------------------------------------------------------------------------------------



  FREE ENERGIE OF THE ION-ELECTRON SYSTEM (eV)
  ---------------------------------------------------
  free  energy   TOTEN  =      -341.90662746 eV

  energy  without entropy=     -341.90662746  energy(sigma->0) =     -341.90662746
 
 d Force =-0.2693495E-02[-0.463E-02,-0.755E-03]  d Energy =-0.2630527E-02-0.630E-04
 d Force =-0.1314272E+02[-0.132E+02,-0.131E+02]  d Ewald  =-0.1314271E+02-0.347E-05


--------------------------------------------------------------------------------------------------------


    POTLOK:  cpu time    0.3197: real time    0.3199


--------------------------------------------------------------------------------------------------------


           RANDOM_SEED =         251670688              324                0
   IONSTEP:  cpu time    0.0001: real time    0.0001

  ENERGY OF THE ELECTRON-ION-THERMOSTAT SYSTEM (eV)
  ---------------------------------------------------
% ion-electron   TOTEN  =      -341.906627  see above
  kinetic energy EKIN   =         0.666890
  kin. lattice  EKIN_LAT=         0.000000  (temperature   97.34 K)
  nose potential ES     =        -0.005268
  nose kinetic   EPS    =         0.000113
  ---------------------------------------------------
  total energy   ETOTAL =      -341.244892 eV

  maximum distance moved by ions :      0.56E-03


 mean value of Nose-termostat <S>:     0.995 mean value of <T> :    97.345
 mean temperature <T/S>/<1/S>  :    97.345

    WAVPRE:  cpu time    0.1076: real time    0.1104
    FEWALD:  cpu time    0.0012: real time    0.0012
    ORTHCH:  cpu time    7.9347: real time    7.9442
    POTLOK:  cpu time    0.3122: real time    0.3125
    EDDIAG:  cpu time    2.4608: real time    2.4637
     LOOP+:  cpu time  469.8900: real time  470.5082
    4ORBIT:  cpu time    0.0000: real time    0.0000

 total amount of memory used by VASP MPI-rank0   378576. kBytes
=======================================================================

   base      :      30000. kBytes
   nonl-proj :     201922. kBytes
   fftplans  :      19943. kBytes
   grid      :      90496. kBytes
   one-center:        839. kBytes
   wavefun   :      35376. kBytes
 
  
  
 General timing and accounting informations for this job:
 ========================================================
  
                  Total CPU time used (sec):     5589.864
                            User time (sec):     5577.752
                          System time (sec):       12.112
                         Elapsed time (sec):     5597.187
  
                   Maximum memory used (kb):      842596.
                   Average memory used (kb):           0.
  
                          Minor page faults:       442848
                          Major page faults:            0
                 Voluntary context switches:          775
