-3.428009706700000265e+02
-3.427984758100000136e+02
-3.427901864599999726e+02
-3.427763544599999932e+02
-3.427573612400000229e+02
-3.427337053200000128e+02
-3.427059729599999969e+02
-3.426748137399999905e+02
-3.426409165499999858e+02
-3.426049821400000042e+02
-3.421314920600000278e+02
-3.421226250700000264e+02
-3.421120548299999768e+02
-3.421000238899999886e+02
-3.420868505199999845e+02
-3.420729100500000186e+02
-3.420586253800000236e+02
-3.420444410000000062e+02
-3.420308055699999841e+02
-3.420181583400000136e+02
-3.421408824200000254e+02
-3.421275466199999755e+02
-3.421110145000000102e+02
-3.420916387199999917e+02
-3.420698632500000258e+02
-3.420461887899999738e+02
-3.420211727600000131e+02
-3.419953970600000162e+02
-3.419694598899999960e+02
-3.419439630400000283e+02
-3.418356066200000214e+02
-3.418388137900000174e+02
-3.418420634799999789e+02
-3.418453775300000075e+02
-3.418487992099999815e+02
-3.418523892000000046e+02
-3.418562283300000217e+02
-3.418604177700000264e+02
-3.418650629800000047e+02
-3.418702832899999748e+02
-3.411083356999999978e+02
-3.411015193800000134e+02
-3.410913869500000146e+02
-3.410782013300000131e+02
-3.410623262799999793e+02
-3.410442064000000073e+02
-3.410243529499999795e+02
-3.410033188300000120e+02
-3.409816803699999923e+02
-3.409600207899999873e+02
-3.418381370800000241e+02
-3.418468759200000022e+02
-3.418536661599999888e+02
-3.418584683000000268e+02
-3.418613420500000188e+02
-3.418624352699999918e+02
-3.418619688399999745e+02
-3.418602248199999849e+02
-3.418575139499999977e+02
-3.418541691600000263e+02
-3.419878686900000275e+02
-3.419910371000000282e+02
-3.419913062599999876e+02
-3.419888235500000064e+02
-3.419838700999999901e+02
-3.419768373800000063e+02
-3.419682153200000130e+02
-3.419585523700000067e+02
-3.419484395200000222e+02
-3.419384716100000219e+02
-3.418649718199999938e+02
-3.418665899800000147e+02
-3.418678581699999768e+02
-3.418687953500000276e+02
-3.418694594699999811e+02
-3.418699410099999909e+02
-3.418703564599999822e+02
-3.418708533600000123e+02
-3.418715951600000267e+02
-3.418727584399999841e+02
-3.421250877599999853e+02
-3.421203520600000161e+02
-3.421105562399999940e+02
-3.420960940699999924e+02
-3.420775350399999866e+02
-3.420555936900000233e+02
-3.420310900900000206e+02
-3.420049118599999929e+02
-3.419779721400000199e+02
-3.419511744399999884e+02
-3.416016490700000077e+02
-3.416047275299999910e+02
-3.416079204200000277e+02
-3.416112241199999744e+02
-3.416146715200000017e+02
-3.416183239599999979e+02
-3.416222854900000243e+02
-3.416266784800000096e+02
-3.416316437599999745e+02
-3.416373412799999869e+02
-3.421141297500000178e+02
-3.421123986499999887e+02
-3.421076906299999791e+02
-3.421001579200000151e+02
-3.420900597699999821e+02
-3.420777413399999887e+02
-3.420636210100000199e+02
-3.420481651900000202e+02
-3.420318672299999889e+02
-3.420152194500000178e+02
-3.420866666900000155e+02
-3.420868611000000215e+02
-3.420846395699999789e+02
-3.420800693099999989e+02
-3.420733014099999991e+02
-3.420645573400000217e+02
-3.420541270200000099e+02
-3.420423550900000009e+02
-3.420296238399999993e+02
-3.420163522700000271e+02
-3.422794055900000103e+02
-3.422784204999999815e+02
-3.422733462400000235e+02
-3.422643391899999870e+02
-3.422516655399999763e+02
-3.422356937900000275e+02
-3.422168695600000206e+02
-3.421957097900000235e+02
-3.421727602999999931e+02
-3.421485888500000101e+02
-3.424474560099999962e+02
-3.424516241399999785e+02
-3.424518618700000161e+02
-3.424482219099999725e+02
-3.424408946799999853e+02
-3.424301943799999890e+02
-3.424165374300000053e+02
-3.424004193299999770e+02
-3.423823912999999948e+02
-3.423630345400000010e+02
-3.418009555699999851e+02
-3.418088721400000054e+02
-3.418132781900000055e+02
-3.418142731099999878e+02
-3.418120801300000267e+02
-3.418070460899999716e+02
-3.417996194599999740e+02
-3.417903398299999935e+02
-3.417798119500000098e+02
-3.417686805499999991e+02
-3.418078791500000193e+02
-3.418207941499999833e+02
-3.418332966799999895e+02
-3.418452259900000172e+02
-3.418565168499999913e+02
-3.418672000700000240e+02
-3.418773880800000029e+02
-3.418872562899999821e+02
-3.418970262899999852e+02
-3.419069334999999796e+02
-3.419717739499999993e+02
-3.419690758699999833e+02
-3.419630107099999918e+02
-3.419537524599999756e+02
-3.419416046499999879e+02
-3.419269817699999976e+02
-3.419103891099999828e+02
-3.418924037599999792e+02
-3.418736505800000032e+02
-3.418547833100000162e+02
-3.418240169700000024e+02
-3.418202627000000007e+02
-3.418157591400000115e+02
-3.418107054199999766e+02
-3.418053769499999817e+02
-3.418001165200000173e+02
-3.417953011299999844e+02
-3.417913319900000033e+02
-3.417885995899999898e+02
-3.417874783799999818e+02
-3.416508613799999807e+02
-3.416535310900000013e+02
-3.416523102200000039e+02
-3.416473528600000122e+02
-3.416389594799999827e+02
-3.416275589699999955e+02
-3.416136834299999805e+02
-3.415979409700000247e+02
-3.415809828800000219e+02
-3.415634820199999808e+02
-3.425680801699999734e+02
-3.425673479100000236e+02
-3.425612326699999812e+02
-3.425499367900000038e+02
-3.425337968700000033e+02
-3.425132776500000205e+02
-3.424889423500000021e+02
-3.424614293199999793e+02
-3.424314241199999742e+02
-3.423996320300000207e+02
-3.416038677399999983e+02
-3.416172362400000111e+02
-3.416298057800000265e+02
-3.416414798299999802e+02
-3.416522602900000152e+02
-3.416622424600000159e+02
-3.416715936599999850e+02
-3.416805388500000049e+02
-3.416893450499999858e+02
-3.416982831600000168e+02
-3.418601765299999897e+02
-3.418524276499999814e+02
-3.418425799799999822e+02
-3.418308428700000263e+02
-3.418174877999999808e+02
-3.418028355199999737e+02
-3.417872496400000273e+02
-3.417711176799999748e+02
-3.417548357900000155e+02
-3.417387978099999941e+02
-3.421714281600000049e+02
-3.421739578799999890e+02
-3.421720038000000272e+02
-3.421656263400000171e+02
-3.421550210799999832e+02
-3.421404988499999718e+02
-3.421224907700000131e+02
-3.421015087499999936e+02
-3.420781437800000049e+02
-3.420530258900000149e+02
-3.417986497499999814e+02
-3.418092831000000160e+02
-3.418179511000000161e+02
-3.418245526100000120e+02
-3.418290679200000000e+02
-3.418315517799999839e+02
-3.418321373800000060e+02
-3.418310226599999737e+02
-3.418284692199999881e+02
-3.418247840799999722e+02
-3.421799700099999768e+02
-3.421750318300000231e+02
-3.421660492899999895e+02
-3.421532576100000256e+02
-3.421370182300000238e+02
-3.421177967200000012e+02
-3.420961420099999941e+02
-3.420726585400000204e+02
-3.420479775700000005e+02
-3.420227450900000008e+02
-3.419438719500000161e+02
-3.419414459500000021e+02
-3.419358452100000250e+02
-3.419272661100000050e+02
-3.419159955299999751e+02
-3.419023861300000249e+02
-3.418868559499999833e+02
-3.418698551499999780e+02
-3.418518606599999998e+02
-3.418333507899999972e+02
-3.412990882700000270e+02
-3.413053104100000041e+02
-3.413127236799999764e+02
-3.413212806000000228e+02
-3.413309902799999804e+02
-3.413419055200000116e+02
-3.413541103800000087e+02
-3.413677083100000118e+02
-3.413828073199999835e+02
-3.413994940800000109e+02
-3.422854648699999984e+02
-3.422877627899999879e+02
-3.422864490399999795e+02
-3.422816410099999871e+02
-3.422735594800000172e+02
-3.422625083300000028e+02
-3.422488696199999936e+02
-3.422330817499999966e+02
-3.422156279700000141e+02
-3.421970100600000251e+02
-3.418468020899999829e+02
-3.418470192999999995e+02
-3.418445019100000195e+02
-3.418393631100000221e+02
-3.418318138199999794e+02
-3.418221340700000042e+02
-3.418106725399999846e+02
-3.417978235100000006e+02
-3.417840057700000216e+02
-3.417696549199999936e+02
-3.409824492000000191e+02
-3.409781391199999803e+02
-3.409789545900000007e+02
-3.409849491300000182e+02
-3.409961661400000139e+02
-3.410126260700000103e+02
-3.410343103800000222e+02
-3.410611336700000038e+02
-3.410929290000000265e+02
-3.411294153399999800e+02
-3.423713744199999951e+02
-3.423766670200000135e+02
-3.423780616700000223e+02
-3.423756925800000204e+02
-3.423698318799999925e+02
-3.423608907199999862e+02
-3.423493815499999755e+02
-3.423358916099999760e+02
-3.423210517599999889e+02
-3.423055004199999871e+02
-3.421857802299999776e+02
-3.421775196400000141e+02
-3.421655908700000168e+02
-3.421502196800000206e+02
-3.421317201800000021e+02
-3.421104838200000131e+02
-3.420869619299999727e+02
-3.420616464700000279e+02
-3.420350606700000071e+02
-3.420077284299999860e+02
-3.415748086500000227e+02
-3.415745410999999763e+02
-3.415732854799999814e+02
-3.415711186699999757e+02
-3.415681679699999904e+02
-3.415646111099999871e+02
-3.415606717699999990e+02
-3.415566011399999979e+02
-3.415526701200000161e+02
-3.415491671099999849e+02
-3.410481767599999898e+02
-3.410458766400000172e+02
-3.410475926899999877e+02
-3.410534096399999839e+02
-3.410633451300000161e+02
-3.410773379400000067e+02
-3.410952492299999790e+02
-3.411168562799999791e+02
-3.411418477500000108e+02
-3.411698278999999729e+02
-3.417171468500000060e+02
-3.417142255399999726e+02
-3.417091131799999744e+02
-3.417020554900000207e+02
-3.416933923700000264e+02
-3.416835391899999763e+02
-3.416729682700000126e+02
-3.416621852200000262e+02
-3.416517061900000272e+02
-3.416420398500000033e+02
-3.419352987600000233e+02
-3.419434621400000083e+02
-3.419467034799999965e+02
-3.419450942299999952e+02
-3.419388919599999781e+02
-3.419285281100000020e+02
-3.419145852600000239e+02
-3.418977562700000021e+02
-3.418788125300000047e+02
-3.418585609900000009e+02
-3.416884795700000268e+02
-3.416958737499999756e+02
-3.417015580400000090e+02
-3.417057140599999912e+02
-3.417086276499999826e+02
-3.417106718599999908e+02
-3.417122871099999770e+02
-3.417139500700000099e+02
-3.417161455199999978e+02
-3.417193472399999905e+02
-3.420880948899999794e+02
-3.420995067499999891e+02
-3.421079037399999834e+02
-3.421132069299999898e+02
-3.421154452499999934e+02
-3.421147315200000207e+02
-3.421112747799999738e+02
-3.421053698599999962e+02
-3.420973775400000250e+02
-3.420877199999999903e+02
-3.422075272800000221e+02
-3.422149374699999953e+02
-3.422202839199999858e+02
-3.422235119000000054e+02
-3.422246382899999730e+02
-3.422237410299999851e+02
-3.422209683899999959e+02
-3.422165211399999976e+02
-3.422106520899999964e+02
-3.422036484500000029e+02
-3.412161852799999906e+02
-3.412159572799999978e+02
-3.412136752999999771e+02
-3.412095251200000234e+02
-3.412038110899999879e+02
-3.411969306799999799e+02
-3.411893523599999867e+02
-3.411815911499999743e+02
-3.411741735699999936e+02
-3.411676158600000122e+02
-3.408389664900000184e+02
-3.408506903200000124e+02
-3.408659974000000261e+02
-3.408847296100000221e+02
-3.409067519700000162e+02
-3.409319422799999870e+02
-3.409601713000000132e+02
-3.409912948099999994e+02
-3.410251215600000023e+02
-3.410614087100000233e+02
-3.413671711399999822e+02
-3.413744839299999967e+02
-3.413830363499999976e+02
-3.413928467299999738e+02
-3.414039498800000274e+02
-3.414164109199999757e+02
-3.414303027799999768e+02
-3.414457161899999846e+02
-3.414627498699999819e+02
-3.414815001900000198e+02
-3.423256011099999796e+02
-3.423235323100000187e+02
-3.423167138900000168e+02
-3.423053388899999732e+02
-3.422896981999999753e+02
-3.422701785900000004e+02
-3.422472427100000232e+02
-3.422214048999999818e+02
-3.421932220799999982e+02
-3.421632644700000014e+02
-3.413951994500000069e+02
-3.413898966200000018e+02
-3.413841321900000025e+02
-3.413780298400000106e+02
-3.413717435799999862e+02
-3.413654537599999799e+02
-3.413593672499999911e+02
-3.413537086399999794e+02
-3.413487096599999973e+02
-3.413446124800000234e+02
-3.421572044100000198e+02
-3.421440716700000166e+02
-3.421278251200000113e+02
-3.421088326600000187e+02
-3.420875756300000035e+02
-3.420646247500000072e+02
-3.420406102200000191e+02
-3.420161979000000088e+02
-3.419920677000000069e+02
-3.419688859400000069e+02
-3.426398103299999889e+02
-3.426375431800000229e+02
-3.426300249899999812e+02
-3.426174888300000134e+02
-3.426003098799999975e+02
-3.425789830599999846e+02
-3.425541023700000096e+02
-3.425263381199999912e+02
-3.424963969600000269e+02
-3.424650086500000157e+02
-3.419632434000000103e+02
-3.419583141200000114e+02
-3.419485619499999984e+02
-3.419342902099999719e+02
-3.419159363100000064e+02
-3.418940653000000225e+02
-3.418693374599999970e+02
-3.418424761399999738e+02
-3.418142439900000227e+02
-3.417854123899999763e+02
-3.419597262099999853e+02
-3.419543852200000060e+02
-3.419452574700000014e+02
-3.419325514799999723e+02
-3.419166424900000152e+02
-3.418980448199999955e+02
-3.418773822800000062e+02
-3.418553707099999883e+02
-3.418327777000000083e+02
-3.418103872300000035e+02
-3.412919507999999951e+02
-3.413026155399999766e+02
-3.413137791199999924e+02
-3.413253109500000164e+02
-3.413371029300000146e+02
-3.413490747100000249e+02
-3.413611788900000192e+02
-3.413733929900000135e+02
-3.413857254900000271e+02
-3.413982079300000123e+02
-3.418230220199999962e+02
-3.418285103900000195e+02
-3.418305702999999767e+02
-3.418293140399999857e+02
-3.418249932400000262e+02
-3.418179825799999776e+02
-3.418087633200000255e+02
-3.417978982800000267e+02
-3.417860109200000238e+02
-3.417737536600000112e+02
-3.416325277099999767e+02
-3.416235237899999788e+02
-3.416129472399999827e+02
-3.416009682399999861e+02
-3.415878137199999856e+02
-3.415737535100000173e+02
-3.415590967699999965e+02
-3.415441780799999947e+02
-3.415293460199999913e+02
-3.415149646300000086e+02
-3.404372468999999910e+02
-3.404422844000000055e+02
-3.404558605799999782e+02
-3.404777730299999803e+02
-3.405077149699999950e+02
-3.405452662600000053e+02
-3.405898748000000182e+02
-3.406408543200000167e+02
-3.406973703500000283e+02
-3.407584544100000130e+02
-3.407639111400000047e+02
-3.407900333000000046e+02
-3.408220899500000201e+02
-3.408597083299999895e+02
-3.409025141899999767e+02
-3.409501167099999748e+02
-3.410020897300000229e+02
-3.410579496099999801e+02
-3.411171374300000139e+02
-3.411790101899999854e+02
-3.402342404899999906e+02
-3.402498191700000234e+02
-3.402735777600000233e+02
-3.403052170600000181e+02
-3.403443935600000145e+02
-3.403907242700000211e+02
-3.404437425699999835e+02
-3.405028876700000069e+02
-3.405674764899999900e+02
-3.406366898399999741e+02
-3.414135816599999771e+02
-3.414170748099999741e+02
-3.414175832500000070e+02
-3.414151577900000234e+02
-3.414099477699999738e+02
-3.414021949899999981e+02
-3.413922181400000113e+02
-3.413804097400000046e+02
-3.413672116999999844e+02
-3.413531052700000146e+02
-3.420389486000000261e+02
-3.420374154699999849e+02
-3.420330817999999908e+02
-3.420261661700000104e+02
-3.420169867299999851e+02
-3.420059513300000162e+02
-3.419935391999999865e+02
-3.419802866399999743e+02
-3.419667646600000239e+02
-3.419535601800000109e+02
-3.424396625100000051e+02
-3.424363229900000078e+02
-3.424284799199999725e+02
-3.424163574400000130e+02
-3.424003031199999896e+02
-3.423807765999999901e+02
-3.423583257000000231e+02
-3.423335730100000092e+02
-3.423071861099999751e+02
-3.422798613900000078e+02
-3.403536893899999995e+02
-3.403663248899999871e+02
-3.403833481400000096e+02
-3.404045140499999889e+02
-3.404296214400000054e+02
-3.404584951200000091e+02
-3.404909765200000038e+02
-3.405268911599999910e+02
-3.405660436000000004e+02
-3.406081733400000076e+02
-3.422503922299999886e+02
-3.422455386299999986e+02
-3.422362338600000271e+02
-3.422226906000000213e+02
-3.422052342299999736e+02
-3.421842871900000205e+02
-3.421603421300000036e+02
-3.421339571099999830e+02
-3.421057234200000039e+02
-3.420762509300000147e+02
-3.418887696699999879e+02
-3.418738864599999943e+02
-3.418583870300000171e+02
-3.418425233899999967e+02
-3.418265738200000214e+02
-3.418108445299999971e+02
-3.417956543299999908e+02
-3.417813353099999745e+02
-3.417682163999999716e+02
-3.417566240900000025e+02
-3.416285003599999754e+02
-3.416354392800000142e+02
-3.416409041399999751e+02
-3.416448968500000092e+02
-3.416474825600000145e+02
-3.416487846100000070e+02
-3.416489912200000276e+02
-3.416483331599999929e+02
-3.416470824200000038e+02
-3.416455418799999961e+02
-3.409812358699999777e+02
-3.409887810100000252e+02
-3.409989611999999966e+02
-3.410116854099999841e+02
-3.410268506900000034e+02
-3.410443426100000011e+02
-3.410640387799999758e+02
-3.410858105799999862e+02
-3.411095218400000135e+02
-3.411350287399999957e+02
-3.423471556100000157e+02
-3.423524275999999986e+02
-3.423533927700000277e+02
-3.423501396099999852e+02
-3.423429113700000244e+02
-3.423320967899999800e+02
-3.423182022999999958e+02
-3.423018379499999924e+02
-3.422836783399999945e+02
-3.422644446099999982e+02
-3.414114377500000046e+02
-3.414135007599999767e+02
-3.414134132300000033e+02
-3.414113063699999771e+02
-3.414074223599999982e+02
-3.414021153300000151e+02
-3.413958117500000071e+02
-3.413889926800000012e+02
-3.413821652999999969e+02
-3.413758293399999957e+02
-3.418272117800000274e+02
-3.418320179099999905e+02
-3.418332641499999909e+02
-3.418309858900000222e+02
-3.418253347699999836e+02
-3.418165771100000256e+02
-3.418050722599999744e+02
-3.417912620199999765e+02
-3.417756474000000253e+02
-3.417587664700000119e+02
-3.420587664700000232e+02
-3.420527810699999804e+02
-3.420408586799999853e+02
-3.420233531100000164e+02
-3.420007786799999963e+02
-3.419737896199999909e+02
-3.419431406400000242e+02
-3.419096560500000237e+02
-3.418741974600000049e+02
-3.418376301299999795e+02
-3.420532568099999935e+02
-3.420504324300000007e+02
-3.420430855299999848e+02
-3.420314536899999780e+02
-3.420159366099999829e+02
-3.419970761700000139e+02
-3.419755215999999791e+02
-3.419520105099999796e+02
-3.419273325899999918e+02
-3.419023009300000240e+02
-3.416279004799999939e+02
-3.416330754300000194e+02
-3.416347007200000121e+02
-3.416328173800000059e+02
-3.416275744299999815e+02
-3.416192200699999830e+02
-3.416080998300000147e+02
-3.415946290699999963e+02
-3.415792848099999901e+02
-3.415625895800000080e+02
-3.416121253200000183e+02
-3.416150456299999973e+02
-3.416139596300000107e+02
-3.416090075700000170e+02
-3.416004349599999728e+02
-3.415885852700000100e+02
-3.415738774100000228e+02
-3.415568024199999968e+02
-3.415378886699999725e+02
-3.415176930299999754e+02
-3.419201242299999990e+02
-3.419186519300000100e+02
-3.419122717000000193e+02
-3.419011719200000243e+02
-3.418856614800000102e+02
-3.418661529099999825e+02
-3.418431459399999994e+02
-3.418172089400000004e+02
-3.417889493399999878e+02
-3.417589970700000208e+02
-3.413766672699999845e+02
-3.413760622199999943e+02
-3.413706164299999841e+02
-3.413605237400000192e+02
-3.413461170100000004e+02
-3.413278627299999926e+02
-3.413063255000000140e+02
-3.412821623300000056e+02
-3.412560710000000199e+02
-3.412287908999999786e+02
-3.422933875900000089e+02
-3.422993057599999815e+02
-3.423009757699999795e+02
-3.422984164299999748e+02
-3.422917578199999866e+02
-3.422812357600000155e+02
-3.422671854299999836e+02
-3.422500207900000078e+02
-3.422302195699999743e+02
-3.422083039299999996e+02
-3.418602245999999809e+02
-3.418635245300000065e+02
-3.418639535199999955e+02
-3.418615623800000094e+02
-3.418565402599999743e+02
-3.418492008900000201e+02
-3.418399600100000271e+02
-3.418293100500000037e+02
-3.418177919699999734e+02
-3.418059677499999793e+02
-3.418457249300000171e+02
-3.418449680499999772e+02
-3.418415216299999884e+02
-3.418355813800000078e+02
-3.418273988799999756e+02
-3.418172748499999898e+02
-3.418055608700000221e+02
-3.417926356199999987e+02
-3.417788926200000219e+02
-3.417647313200000099e+02
-3.418803462800000261e+02
-3.418802259000000277e+02
-3.418801044400000251e+02
-3.418801805800000011e+02
-3.418807302999999820e+02
-3.418820876199999930e+02
-3.418846106799999802e+02
-3.418886655200000178e+02
-3.418945982999999842e+02
-3.419027010199999950e+02
-3.415004544099999748e+02
-3.415044375800000012e+02
-3.415079389200000151e+02
-3.415110681200000045e+02
-3.415139831800000252e+02
-3.415168825399999832e+02
-3.415199839800000063e+02
-3.415235070499999779e+02
-3.415276590400000032e+02
-3.415326099200000272e+02
-3.421862851500000033e+02
-3.421848060400000122e+02
-3.421795113700000002e+02
-3.421705390100000272e+02
-3.421581191800000283e+02
-3.421425842799999941e+02
-3.421243425200000274e+02
-3.421038698899999986e+02
-3.420816807200000085e+02
-3.420583206399999767e+02
-3.419088205799999969e+02
-3.419070251499999813e+02
-3.419037657999999738e+02
-3.418991973099999768e+02
-3.418935292799999957e+02
-3.418870234500000151e+02
-3.418799851699999977e+02
-3.418727539500000034e+02
-3.418656870500000196e+02
-3.418591581900000165e+02
-3.424158288200000015e+02
-3.424104026100000056e+02
-3.424001141800000028e+02
-3.423852931399999875e+02
-3.423663889300000278e+02
-3.423439577999999983e+02
-3.423186338300000102e+02
-3.422911030399999959e+02
-3.422620818099999838e+02
-3.422322854199999824e+02
-3.410105057299999771e+02
-3.410224357800000234e+02
-3.410375496300000009e+02
-3.410557389800000010e+02
-3.410769519799999898e+02
-3.411011797300000126e+02
-3.411284310099999857e+02
-3.411587115899999958e+02
-3.411919922299999826e+02
-3.412281842500000266e+02
-3.414328334300000165e+02
-3.414299322900000107e+02
-3.414266876899999943e+02
-3.414232862100000148e+02
-3.414199727600000074e+02
-3.414170452000000182e+02
-3.414148430800000256e+02
-3.414137351499999795e+02
-3.414141059300000052e+02
-3.414163366299999893e+02
-3.417764292300000193e+02
-3.417704889799999819e+02
-3.417619654100000162e+02
-3.417511005000000068e+02
-3.417382278100000121e+02
-3.417237668999999869e+02
-3.417081961499999920e+02
-3.416920355299999983e+02
-3.416758310600000073e+02
-3.416601226899999801e+02
-3.422091679999999769e+02
-3.422011774100000139e+02
-3.421896870400000239e+02
-3.421750170899999830e+02
-3.421576139200000171e+02
-3.421380309200000056e+02
-3.421169004500000028e+02
-3.420949044500000014e+02
-3.420727520699999786e+02
-3.420511474499999736e+02
-3.410817531800000211e+02
-3.411050550799999996e+02
-3.411332265799999846e+02
-3.411658473800000024e+02
-3.412025082900000257e+02
-3.412428089000000000e+02
-3.412863505999999916e+02
-3.413327266399999758e+02
-3.413815069500000163e+02
-3.414322333200000230e+02
-3.422892876500000057e+02
-3.422851292700000272e+02
-3.422781677300000069e+02
-3.422686436999999842e+02
-3.422568713399999751e+02
-3.422432135700000231e+02
-3.422280845600000134e+02
-3.422119184399999767e+02
-3.421951632199999835e+02
-3.421782667400000264e+02
-3.415624176700000021e+02
-3.415706501199999821e+02
-3.415784469600000079e+02
-3.415858036600000105e+02
-3.415927692600000114e+02
-3.415994444500000213e+02
-3.416059772300000077e+02
-3.416125545099999954e+02
-3.416193921899999850e+02
-3.416267285100000208e+02
-3.421013575299999729e+02
-3.421002236499999754e+02
-3.420962035700000001e+02
-3.420895497800000271e+02
-3.420806529100000262e+02
-3.420700037799999791e+02
-3.420581860099999858e+02
-3.420458410800000024e+02
-3.420336450400000103e+02
-3.420222771800000032e+02
-3.421022004899999729e+02
-3.420994188199999826e+02
-3.420932371900000248e+02
-3.420838511599999947e+02
-3.420715473299999871e+02
-3.420566924999999969e+02
-3.420397144199999957e+02
-3.420210917100000074e+02
-3.420013310900000079e+02
-3.419809551000000170e+02
-3.411539163900000062e+02
-3.411642844900000000e+02
-3.411767352400000277e+02
-3.411911377299999799e+02
-3.412073573999999780e+02
-3.412252483099999836e+02
-3.412446687999999995e+02
-3.412654677099999958e+02
-3.412875040199999717e+02
-3.413106339199999866e+02
-3.411682106200000248e+02
-3.411718480499999941e+02
-3.411783578199999738e+02
-3.411877933000000098e+02
-3.412002352900000233e+02
-3.412157589400000006e+02
-3.412344304200000238e+02
-3.412562794899999972e+02
-3.412812767600000257e+02
-3.413093159900000160e+02
-3.417694169399999851e+02
-3.417789891400000215e+02
-3.417864346499999897e+02
-3.417916309700000284e+02
-3.417945386499999927e+02
-3.417952065000000061e+02
-3.417937730599999782e+02
-3.417904582900000037e+02
-3.417855589700000110e+02
-3.417794354299999782e+02
-3.412957277400000180e+02
-3.413096629699999767e+02
-3.413232536900000014e+02
-3.413364053799999738e+02
-3.413490659099999789e+02
-3.413612251900000274e+02
-3.413729136700000026e+02
-3.413842010899999764e+02
-3.413951815300000021e+02
-3.414059702600000037e+02
-3.422509500300000127e+02
-3.422482491700000082e+02
-3.422434759500000041e+02
-3.422368061000000239e+02
-3.422284772699999849e+02
-3.422187710100000118e+02
-3.422080123800000138e+02
-3.421965477599999872e+02
-3.421847411400000283e+02
-3.421729566399999953e+02
-3.422400004799999920e+02
-3.422430201600000146e+02
-3.422434613300000024e+02
-3.422414363600000229e+02
-3.422371781400000259e+02
-3.422310235300000159e+02
-3.422233945699999822e+02
-3.422147714399999927e+02
-3.422056677300000160e+02
-3.421965940499999874e+02
-3.418679931199999942e+02
-3.418849109500000054e+02
-3.419001706500000068e+02
-3.419135640000000080e+02
-3.419249572800000010e+02
-3.419342856600000005e+02
-3.419415683999999942e+02
-3.419469039100000032e+02
-3.419504611699999828e+02
-3.419524718600000028e+02
-3.416880504000000087e+02
-3.416820375300000023e+02
-3.416756535600000007e+02
-3.416690609099999847e+02
-3.416624571199999991e+02
-3.416560817100000236e+02
-3.416501982600000247e+02
-3.416450915500000178e+02
-3.416410597400000029e+02
-3.416384082600000056e+02
-3.421428508899999770e+02
-3.421477887099999862e+02
-3.421486708300000146e+02
-3.421455545499999857e+02
-3.421386026999999785e+02
-3.421280923900000062e+02
-3.421143982099999903e+02
-3.420979663100000039e+02
-3.420793057700000190e+02
-3.420589621999999963e+02
-3.411179105900000081e+02
-3.411322316800000181e+02
-3.411506688499999882e+02
-3.411728738900000053e+02
-3.411985412500000052e+02
-3.412274065899999869e+02
-3.412592357999999990e+02
-3.412938069599999835e+02
-3.413309008300000187e+02
-3.413702813400000196e+02
-3.404342843399999765e+02
-3.404563267400000086e+02
-3.404851903300000231e+02
-3.405204315099999803e+02
-3.405615580900000054e+02
-3.406080374100000085e+02
-3.406592859799999928e+02
-3.407146505100000127e+02
-3.407734267399999908e+02
-3.408348452899999756e+02
-3.420832582799999955e+02
-3.420882480000000214e+02
-3.420894806399999766e+02
-3.420869440399999917e+02
-3.420807294200000115e+02
-3.420710285100000192e+02
-3.420581142999999997e+02
-3.420423401699999886e+02
-3.420241166199999725e+02
-3.420038946600000145e+02
-3.420712480999999912e+02
-3.420686648999999875e+02
-3.420625516399999810e+02
-3.420531603700000005e+02
-3.420408719800000199e+02
-3.420261614199999940e+02
-3.420095943700000021e+02
-3.419917862699999773e+02
-3.419733876199999827e+02
-3.419550577200000134e+02
-3.408970796599999744e+02
-3.409140454600000112e+02
-3.409322963999999843e+02
-3.409515919199999985e+02
-3.409717102999999838e+02
-3.409924468400000137e+02
-3.410136226999999849e+02
-3.410350926500000242e+02
-3.410567441700000018e+02
-3.410785046600000214e+02
-3.404125479200000086e+02
-3.404248139900000183e+02
-3.404446326600000248e+02
-3.404718176100000164e+02
-3.405060952599999951e+02
-3.405470923999999968e+02
-3.405943262600000025e+02
-3.406471955499999922e+02
-3.407049597399999925e+02
-3.407667660199999773e+02
-3.406835733500000174e+02
-3.406935774799999876e+02
-3.407065698999999768e+02
-3.407224156699999753e+02
-3.407410306799999944e+02
-3.407623512100000198e+02
-3.407863403999999719e+02
-3.408129544500000065e+02
-3.408421277200000077e+02
-3.408737575800000172e+02
-3.424968961899999726e+02
-3.424973994499999890e+02
-3.424928985700000226e+02
-3.424835137700000018e+02
-3.424695232199999850e+02
-3.424513316800000098e+02
-3.424294609099999889e+02
-3.424045098400000029e+02
-3.423771492700000181e+02
-3.423480718999999795e+02
-3.416357908900000098e+02
-3.416293406300000015e+02
-3.416227800600000251e+02
-3.416164541300000224e+02
-3.416107750699999883e+02
-3.416061992099999998e+02
-3.416032064999999989e+02
-3.416022702800000275e+02
-3.416038341999999943e+02
-3.416082830799999783e+02
-3.417959465199999727e+02
-3.417956959900000129e+02
-3.417947576199999844e+02
-3.417932709599999725e+02
-3.417913980800000218e+02
-3.417893336899999781e+02
-3.417872793799999727e+02
-3.417854399199999875e+02
-3.417840097100000207e+02
-3.417831676100000209e+02
-3.418673496600000021e+02
-3.418692219800000203e+02
-3.418670016300000043e+02
-3.418608213100000057e+02
-3.418509401499999854e+02
-3.418377142499999763e+02
-3.418215849599999956e+02
-3.418030550899999866e+02
-3.417826566200000116e+02
-3.417609296499999800e+02
-3.413910532900000021e+02
-3.413848972700000104e+02
-3.413791994200000204e+02
-3.413741514999999822e+02
-3.413699647299999924e+02
-3.413668673000000240e+02
-3.413651024000000120e+02
-3.413649176000000125e+02
-3.413665586299999859e+02
-3.413702658700000256e+02
-3.417367021700000009e+02
-3.417310663900000236e+02
-3.417240322200000264e+02
-3.417157678300000043e+02
-3.417065436600000226e+02
-3.416967246799999884e+02
-3.416867439700000091e+02
-3.416770869299999731e+02
-3.416682540599999811e+02
-3.416607486899999913e+02
-3.414323453800000152e+02
-3.414288486899999953e+02
-3.414281941599999755e+02
-3.414304649000000040e+02
-3.414357208600000035e+02
-3.414439998400000036e+02
-3.414553091099999733e+02
-3.414696105900000020e+02
-3.414868179900000200e+02
-3.415067866399999730e+02
-3.423562433299999839e+02
-3.423524188600000002e+02
-3.423441764699999794e+02
-3.423317603300000087e+02
-3.423155565499999966e+02
-3.422960762899999736e+02
-3.422739331999999877e+02
-3.422498105799999735e+02
-3.422244378199999915e+02
-3.421985634200000277e+02
-3.407499348399999803e+02
-3.407531989899999871e+02
-3.407615236899999900e+02
-3.407749069600000098e+02
-3.407933086099999969e+02
-3.408166408000000160e+02
-3.408447489900000278e+02
-3.408773942899999838e+02
-3.409142424099999857e+02
-3.409548495500000058e+02
-3.423429342900000165e+02
-3.423409286799999904e+02
-3.423348726400000146e+02
-3.423249619100000132e+02
-3.423115166900000190e+02
-3.422949682999999936e+02
-3.422758459500000185e+02
-3.422547465000000102e+02
-3.422323134299999765e+02
-3.422092143500000248e+02
-3.418866564599999833e+02
-3.418879661099999794e+02
-3.418859477600000218e+02
-3.418808170500000188e+02
-3.418728956400000243e+02
-3.418626068699999792e+02
-3.418504694100000165e+02
-3.418370679600000130e+02
-3.418230350700000031e+02
-3.418090288999999871e+02
-3.424283737499999916e+02
-3.424241775200000006e+02
-3.424159116100000233e+02