0.000000000000000000e+00 2.032270000000000021e+00 9.374449999999999505e+00 -1.760000000000000009e+00 5.080680000000000085e+00 9.374449999999999505e+00 -3.520000000000000018e+00 8.129089999999999705e+00 9.374449999999999505e+00 3.520000000000000018e+00 2.032270000000000021e+00 9.374449999999999505e+00 1.760000000000000009e+00 5.080680000000000085e+00 9.374449999999999505e+00 0.000000000000000000e+00 8.129089999999999705e+00 9.374449999999999505e+00 7.040000000000000036e+00 2.032270000000000021e+00 9.374449999999999505e+00 5.280000000000000249e+00 5.080680000000000085e+00 9.374449999999999505e+00 3.520000000000000018e+00 8.129089999999999705e+00 9.374449999999999505e+00 5.280000000000000249e-01 2.032270000000000021e+00 1.699827000000000155e+01 -1.231999999999999984e+00 5.080680000000000085e+00 1.699827000000000155e+01 -2.991999999999999993e+00 8.129089999999999705e+00 1.699827000000000155e+01 4.048000000000000043e+00 2.032270000000000021e+00 1.699827000000000155e+01 2.287999999999999812e+00 5.080680000000000085e+00 1.699827000000000155e+01 5.280000000000000249e-01 8.129089999999999705e+00 1.699827000000000155e+01 7.567999999999999616e+00 2.032270000000000021e+00 1.699827000000000155e+01 5.807999999999999829e+00 5.080680000000000085e+00 1.699827000000000155e+01 4.048000000000000043e+00 8.129089999999999705e+00 1.699827000000000155e+01 0.000000000000000000e+00 2.032270000000000021e+00 1.300174999999999947e+01 -1.760000000000000009e+00 5.080680000000000085e+00 1.300174999999999947e+01 -3.520000000000000018e+00 8.129089999999999705e+00 1.300174999999999947e+01 3.520000000000000018e+00 2.032270000000000021e+00 1.300174999999999947e+01 1.760000000000000009e+00 5.080680000000000085e+00 1.300174999999999947e+01 0.000000000000000000e+00 8.129089999999999705e+00 1.300174999999999947e+01 7.040000000000000036e+00 2.032270000000000021e+00 1.300174999999999947e+01 5.280000000000000249e+00 5.080680000000000085e+00 1.300174999999999947e+01 3.520000000000000018e+00 8.129089999999999705e+00 1.300174999999999947e+01 5.280000000000000249e-01 2.032270000000000021e+00 2.062556999999999974e+01 -1.231999999999999984e+00 5.080680000000000085e+00 2.062556999999999974e+01 -2.991999999999999993e+00 8.129089999999999705e+00 2.062556999999999974e+01 4.048000000000000043e+00 2.032270000000000021e+00 2.062556999999999974e+01 2.287999999999999812e+00 5.080680000000000085e+00 2.062556999999999974e+01 5.280000000000000249e-01 8.129089999999999705e+00 2.062556999999999974e+01 7.567999999999999616e+00 2.032270000000000021e+00 2.062556999999999974e+01 5.807999999999999829e+00 5.080680000000000085e+00 2.062556999999999974e+01 4.048000000000000043e+00 8.129089999999999705e+00 2.062556999999999974e+01 0.000000000000000000e+00 0.000000000000000000e+00 1.118755999999999950e+01 -1.760000000000000009e+00 3.048410000000000064e+00 1.118755999999999950e+01 -3.520000000000000018e+00 6.096820000000000128e+00 1.118755999999999950e+01 3.520000000000000018e+00 0.000000000000000000e+00 1.118755999999999950e+01 1.760000000000000009e+00 3.048410000000000064e+00 1.118755999999999950e+01 0.000000000000000000e+00 6.096820000000000128e+00 1.118755999999999950e+01 7.040000000000000036e+00 0.000000000000000000e+00 1.118755999999999950e+01 5.280000000000000249e+00 3.048410000000000064e+00 1.118755999999999950e+01 3.520000000000000018e+00 6.096820000000000128e+00 1.118755999999999950e+01 5.280000000000000249e-01 0.000000000000000000e+00 1.881243999999999872e+01 -1.231999999999999984e+00 3.048410000000000064e+00 1.881243999999999872e+01 -2.991999999999999993e+00 6.096820000000000128e+00 1.881243999999999872e+01 4.048000000000000043e+00 0.000000000000000000e+00 1.881243999999999872e+01 2.287999999999999812e+00 3.048410000000000064e+00 1.881243999999999872e+01 5.280000000000000249e-01 6.096820000000000128e+00 1.881243999999999872e+01 7.567999999999999616e+00 0.000000000000000000e+00 1.881243999999999872e+01 5.807999999999999829e+00 3.048410000000000064e+00 1.881243999999999872e+01 4.048000000000000043e+00 6.096820000000000128e+00 1.881243999999999872e+01
-6.000000000000000152e-05 2.032309999999999839e+00 9.376170000000000115e+00 -1.757940000000000058e+00 5.080320000000000391e+00 9.371359999999999246e+00 -3.521809999999999885e+00 8.128610000000000113e+00 9.371629999999999683e+00 3.519789999999999974e+00 2.033380000000000187e+00 9.375189999999999912e+00 1.762359999999999927e+00 5.080790000000000362e+00 9.376160000000000494e+00 -6.700000000000000226e-04 8.128679999999999239e+00 9.373710000000000875e+00 7.038299999999999557e+00 2.034199999999999786e+00 9.372920000000000584e+00 5.279770000000000074e+00 5.077729999999999855e+00 9.374000000000000554e+00 3.520680000000000032e+00 8.127819999999999823e+00 9.376039999999999708e+00 5.281599999999999628e-01 2.036059999999999981e+00 1.699769999999999825e+01 -1.231170000000000098e+00 5.080890000000000128e+00 1.699664999999999893e+01 -2.991820000000000146e+00 8.129179999999999851e+00 1.699778999999999840e+01 4.048009999999999664e+00 2.030569999999999986e+00 1.699891999999999825e+01 2.288549999999999862e+00 5.080860000000000376e+00 1.699895000000000067e+01 5.276899999999999924e-01 8.128769999999999385e+00 1.700063000000000102e+01 7.569989999999999775e+00 2.032059999999999977e+00 1.699686000000000163e+01 5.805950000000000166e+00 5.082600000000000229e+00 1.699658000000000158e+01 4.049699999999999633e+00 8.126459999999999795e+00 1.699919999999999831e+01 -1.740000000000000010e-03 2.032189999999999941e+00 1.300290999999999997e+01 -1.759630000000000027e+00 5.079469999999999708e+00 1.300055000000000049e+01 -3.521679999999999922e+00 8.131230000000000402e+00 1.300206000000000017e+01 3.518580000000000041e+00 2.030969999999999942e+00 1.300074000000000041e+01 1.763220000000000010e+00 5.083409999999999762e+00 1.300473999999999997e+01 2.799999999999999755e-04 8.130140000000000811e+00 1.300137999999999927e+01 7.041450000000000209e+00 2.031890000000000196e+00 1.300153000000000070e+01 5.276919999999999611e+00 5.081389999999999851e+00 1.300226999999999933e+01 3.521430000000000060e+00 8.128239999999999910e+00 1.299910000000000032e+01 5.294600000000000417e-01 2.030260000000000176e+00 2.062584000000000017e+01 -1.231309999999999905e+00 5.082760000000000389e+00 2.062482999999999933e+01 -2.991919999999999913e+00 8.127969999999999473e+00 2.062497000000000114e+01 4.048949999999999605e+00 2.029980000000000118e+00 2.062490999999999985e+01 2.288549999999999862e+00 5.080440000000000289e+00 2.062210999999999927e+01 5.292000000000000037e-01 8.128579999999999472e+00 2.062690999999999875e+01 7.570579999999999643e+00 2.032810000000000006e+00 2.062525000000000119e+01 5.808709999999999596e+00 5.083669999999999689e+00 2.062482999999999933e+01 4.048289999999999722e+00 8.128669999999999618e+00 2.062759000000000142e+01 1.055762000000000000e+01 1.910000000000000022e-03 1.118791000000000047e+01 8.798550000000000537e+00 3.049879999999999924e+00 1.118959000000000081e+01 -3.520519999999999872e+00 6.097749999999999559e+00 1.118412000000000006e+01 -1.762199999999999989e+00 9.145200000000000884e+00 1.118826999999999927e+01 1.762960000000000083e+00 3.047870000000000079e+00 1.118901999999999930e+01 -5.699999999999999772e-04 6.097089999999999677e+00 1.119142000000000081e+01 1.762629999999999919e+00 9.140610000000000568e+00 1.118885000000000041e+01 5.279329999999999856e+00 3.047390000000000043e+00 1.118637999999999977e+01 3.518040000000000056e+00 6.096140000000000114e+00 1.118815999999999988e+01 5.266999999999999460e-01 7.200000000000000453e-04 1.881334999999999980e+01 -1.232679999999999998e+00 3.051639999999999908e+00 1.881719999999999970e+01 -2.992119999999999891e+00 6.097889999999999588e+00 1.881052000000000035e+01 4.049089999999999634e+00 4.099999999999999912e-04 1.880882000000000076e+01 2.286979999999999791e+00 3.051149999999999807e+00 1.881276000000000082e+01 5.259599999999999831e-01 6.097050000000000303e+00 1.881679000000000102e+01 2.285839999999999872e+00 9.144069999999999254e+00 1.881268000000000029e+01 5.804389999999999716e+00 3.045249999999999790e+00 1.881212999999999980e+01 4.047659999999999592e+00 6.094020000000000437e+00 1.881191000000000102e+01
-1.200000000000000030e-04 2.032340000000000035e+00 9.377900000000000347e+00 -1.755880000000000107e+00 5.079970000000000319e+00 9.368270000000000763e+00 -3.523620000000000196e+00 8.128140000000000143e+00 9.368809999999999860e+00 3.519579999999999931e+00 2.034479999999999844e+00 9.375920000000000698e+00 1.764710000000000001e+00 5.080899999999999750e+00 9.377869999999999706e+00 -1.340000000000000045e-03 8.128270000000000550e+00 9.372980000000000089e+00 7.036609999999999587e+00 2.036109999999999864e+00 9.371409999999999130e+00 5.279530000000000278e+00 5.074779999999999625e+00 9.373540000000000205e+00 3.521349999999999980e+00 8.126549999999999940e+00 9.377610000000000667e+00 5.283200000000000118e-01 2.039829999999999810e+00 1.699714000000000169e+01 -1.230329999999999924e+00 5.081100000000000172e+00 1.699502999999999986e+01 -2.991629999999999789e+00 8.129269999999999996e+00 1.699729999999999919e+01 4.048009999999999664e+00 2.028869999999999951e+00 1.699955999999999889e+01 2.289099999999999913e+00 5.081050000000000288e+00 1.699962999999999980e+01 5.273900000000000254e-01 8.128439999999999444e+00 1.700299000000000049e+01 7.572000000000000064e+00 2.031849999999999934e+00 1.699546000000000134e+01 5.803910000000000124e+00 5.084509999999999863e+00 1.699487999999999843e+01 4.051400000000000112e+00 8.123829999999999885e+00 1.700011999999999901e+01 -3.480000000000000020e-03 2.032109999999999861e+00 1.300408000000000008e+01 -1.759269999999999889e+00 5.078260000000000218e+00 1.299935999999999936e+01 -3.523359999999999825e+00 8.133369999999999322e+00 1.300237000000000087e+01 3.517160000000000064e+00 2.029659999999999798e+00 1.299973999999999918e+01 1.766420000000000101e+00 5.086129999999999818e+00 1.300773000000000046e+01 5.400000000000000069e-04 8.131190000000000140e+00 1.300103000000000009e+01 7.042889999999999873e+00 2.031509999999999927e+00 1.300131000000000014e+01 5.273839999999999861e+00 5.082089999999999996e+00 1.300278999999999918e+01 3.522839999999999971e+00 8.127380000000000493e+00 1.299647000000000041e+01 5.309099999999999930e-01 2.028249999999999886e+00 2.062612000000000023e+01 -1.230639999999999956e+00 5.084839999999999804e+00 2.062409999999999854e+01 -2.991839999999999833e+00 8.126849999999999241e+00 2.062435999999999936e+01 4.049890000000000434e+00 2.027690000000000214e+00 2.062425999999999959e+01 2.289099999999999913e+00 5.080189999999999984e+00 2.061867000000000161e+01 5.303799999999999626e-01 8.128080000000000638e+00 2.062825000000000131e+01 7.573140000000000427e+00 2.033349999999999991e+00 2.062492999999999910e+01 5.809420000000000250e+00 5.086640000000000050e+00 2.062407999999999930e+01 4.048580000000000290e+00 8.128239999999999910e+00 2.062960999999999956e+01 1.055523999999999951e+01 3.799999999999999992e-03 1.118825999999999965e+01 8.797100000000000364e+00 3.051349999999999785e+00 1.119159999999999933e+01 -3.521049999999999791e+00 6.098679999999999879e+00 1.118069000000000024e+01 -1.764389999999999903e+00 9.145179999999999865e+00 1.118896999999999942e+01 1.765889999999999960e+00 3.047349999999999781e+00 1.119048000000000087e+01 -1.139999999999999954e-03 6.097349999999999604e+00 1.119524999999999970e+01 1.765230000000000077e+00 9.136029999999999873e+00 1.119012000000000029e+01 5.278660000000000352e+00 3.046370000000000022e+00 1.118520999999999965e+01 3.516090000000000160e+00 6.095469999999999722e+00 1.118875000000000064e+01 5.253999999999999782e-01 1.430000000000000064e-03 1.881424000000000163e+01 -1.233360000000000012e+00 3.054850000000000065e+00 1.882190999999999903e+01 -2.992239999999999789e+00 6.098950000000000315e+00 1.880859999999999843e+01 4.050169999999999604e+00 8.000000000000000383e-04 1.880523000000000167e+01 2.285969999999999835e+00 3.053869999999999862e+00 1.881307999999999936e+01 5.239399999999999613e-01 6.097279999999999589e+00 1.882110000000000127e+01 2.283710000000000129e+00 9.142910000000000537e+00 1.881293000000000148e+01 5.800810000000000244e+00 3.042110000000000092e+00 1.881182000000000087e+01 4.047320000000000029e+00 6.091239999999999988e+00 1.881137999999999977e+01
-1.800000000000000113e-04 2.032399999999999984e+00 9.379619999999999180e+00 -1.753810000000000091e+00 5.079620000000000246e+00 9.365209999999999368e+00 -3.525440000000000129e+00 8.127670000000000172e+00 9.365999999999999659e+00 3.519369999999999887e+00 2.035569999999999879e+00 9.376640000000000086e+00 1.767039999999999944e+00 5.081000000000000405e+00 9.379580000000000695e+00 -2.000000000000000042e-03 8.127860000000000085e+00 9.372270000000000323e+00 7.034930000000000128e+00 2.037999999999999812e+00 9.369910000000000849e+00 5.279289999999999594e+00 5.071839999999999904e+00 9.373079999999999856e+00 3.522029999999999994e+00 8.125270000000000437e+00 9.379170000000000229e+00 5.284900000000000153e-01 2.043600000000000083e+00 1.699660000000000082e+01 -1.229479999999999906e+00 5.081310000000000215e+00 1.699342000000000041e+01 -2.991439999999999877e+00 8.129369999999999763e+00 1.699680000000000035e+01 4.048020000000000174e+00 2.027190000000000047e+00 1.700018000000000029e+01 2.289639999999999898e+00 5.081240000000000201e+00 1.700029999999999930e+01 5.271000000000000130e-01 8.128090000000000259e+00 1.700532000000000110e+01 7.573999999999999844e+00 2.031639999999999890e+00 1.699408000000000030e+01 5.801890000000000214e+00 5.086389999999999745e+00 1.699320000000000164e+01 4.053099999999999703e+00 8.121209999999999596e+00 1.700104999999999933e+01 -5.219999999999999814e-03 2.032049999999999912e+00 1.300524000000000058e+01 -1.758939999999999948e+00 5.077060000000000350e+00 1.299817999999999962e+01 -3.525059999999999860e+00 8.135490000000000776e+00 1.300267000000000017e+01 3.515750000000000153e+00 2.028350000000000097e+00 1.299874999999999936e+01 1.769600000000000062e+00 5.088829999999999742e+00 1.301071999999999917e+01 7.900000000000000121e-04 8.132239999999999469e+00 1.300067999999999913e+01 7.044299999999999784e+00 2.031109999999999971e+00 1.300109999999999921e+01 5.270769999999999733e+00 5.082790000000000141e+00 1.300328999999999979e+01 3.524249999999999883e+00 8.126519999999999300e+00 1.299386999999999937e+01 5.323700000000000099e-01 2.026260000000000172e+00 2.062640999999999991e+01 -1.229980000000000073e+00 5.086929999999999730e+00 2.062340000000000018e+01 -2.991750000000000131e+00 8.125740000000000407e+00 2.062374000000000152e+01 4.050810000000000244e+00 2.025399999999999867e+00 2.062360999999999933e+01 2.289639999999999898e+00 5.079950000000000188e+00 2.061525999999999925e+01 5.315600000000000325e-01 8.127580000000000027e+00 2.062959999999999994e+01 7.575680000000000192e+00 2.033879999999999910e+00 2.062462000000000018e+01 5.810120000000000395e+00 5.089590000000000281e+00 2.062332999999999927e+01 4.048860000000000348e+00 8.127800000000000580e+00 2.063160999999999845e+01 1.055289999999999928e+01 5.669999999999999693e-03 1.118858999999999959e+01 8.795669999999999433e+00 3.052810000000000024e+00 1.119355000000000011e+01 -3.521580000000000155e+00 6.099590000000000067e+00 1.117731000000000030e+01 -1.766559999999999908e+00 9.145149999999999224e+00 1.118962999999999930e+01 1.768780000000000019e+00 3.046839999999999993e+00 1.119194000000000067e+01 -1.699999999999999905e-03 6.097599999999999909e+00 1.119902000000000086e+01 1.767789999999999973e+00 9.131520000000000081e+00 1.119134999999999991e+01 5.277989999999999959e+00 3.045339999999999936e+00 1.118407000000000018e+01 3.514180000000000081e+00 6.094800000000000217e+00 1.118932000000000038e+01 5.241299999999999848e-01 2.139999999999999975e-03 1.881512000000000029e+01 -1.234010000000000051e+00 3.058030000000000026e+00 1.882655000000000101e+01 -2.992360000000000131e+00 6.099990000000000023e+00 1.880668000000000006e+01 4.051239999999999952e+00 1.180000000000000059e-03 1.880170000000000030e+01 2.284990000000000077e+00 3.056529999999999969e+00 1.881338999999999828e+01 5.219399999999999595e-01 6.097509999999999764e+00 1.882534000000000063e+01 2.281629999999999825e+00 9.141759999999999664e+00 1.881316999999999950e+01 5.797299999999999898e+00 3.039029999999999898e+00 1.881150999999999840e+01 4.046990000000000087e+00 6.088510000000000311e+00 1.881087000000000131e+01
-2.400000000000000061e-04 2.032469999999999999e+00 9.381349999999999412e+00 -1.751749999999999918e+00 5.079270000000000174e+00 9.362180000000000391e+00 -3.527249999999999996e+00 8.127219999999999445e+00 9.363220000000000098e+00 3.519159999999999844e+00 2.036630000000000162e+00 9.377349999999999852e+00 1.769339999999999913e+00 5.081100000000000172e+00 9.381289999999999907e+00 -2.670000000000000064e-03 8.127439999999999998e+00 9.371579999999999799e+00 7.033269999999999911e+00 2.039849999999999941e+00 9.368439999999999657e+00 5.279040000000000177e+00 5.068920000000000314e+00 9.372629999999999129e+00 3.522710000000000008e+00 8.124000000000000554e+00 9.380699999999999150e+00 5.286399999999999988e-01 2.047359999999999847e+00 1.699608999999999881e+01 -1.228620000000000045e+00 5.081520000000000259e+00 1.699183999999999983e+01 -2.991249999999999964e+00 8.129479999999999151e+00 1.699631000000000114e+01 4.048020000000000174e+00 2.025529999999999831e+00 1.700076999999999927e+01 2.290169999999999817e+00 5.081439999999999735e+00 1.700097999999999843e+01 5.268399999999999750e-01 8.127739999999999299e+00 1.700762999999999892e+01 7.575999999999999623e+00 2.031439999999999912e+00 1.699274000000000129e+01 5.799890000000000434e+00 5.088239999999999874e+00 1.699153000000000091e+01 4.054789999999999672e+00 8.118600000000000705e+00 1.700197999999999965e+01 -6.969999999999999633e-03 2.031989999999999963e+00 1.300639999999999930e+01 -1.758639999999999981e+00 5.075890000000000235e+00 1.299700999999999951e+01 -3.526780000000000026e+00 8.137589999999999435e+00 1.300295999999999985e+01 3.514339999999999797e+00 2.027050000000000018e+00 1.299779000000000018e+01 1.772739999999999982e+00 5.091510000000000424e+00 1.301370000000000005e+01 1.020000000000000073e-03 8.133290000000000575e+00 1.300034999999999918e+01 7.045689999999999564e+00 2.030710000000000015e+00 1.300087000000000081e+01 5.267730000000000246e+00 5.083479999999999777e+00 1.300376999999999938e+01 3.525640000000000107e+00 8.125659999999999883e+00 1.299131999999999998e+01 5.338100000000000067e-01 2.024290000000000145e+00 2.062670999999999921e+01 -1.229340000000000099e+00 5.089010000000000034e+00 2.062274000000000029e+01 -2.991649999999999920e+00 8.124639999999999418e+00 2.062312000000000012e+01 4.051720000000000432e+00 2.023120000000000029e+00 2.062296999999999869e+01 2.290189999999999948e+00 5.079710000000000392e+00 2.061191000000000173e+01 5.327199999999999713e-01 8.127100000000000435e+00 2.063094999999999857e+01 7.578179999999999694e+00 2.034409999999999830e+00 2.062431000000000125e+01 5.810830000000000162e+00 5.092500000000000249e+00 2.062256999999999962e+01 4.049129999999999896e+00 8.127359999999999474e+00 2.063359000000000165e+01 1.055061000000000071e+01 7.499999999999999722e-03 1.118890000000000029e+01 8.794249999999999901e+00 3.054250000000000131e+00 1.119543999999999961e+01 -3.522110000000000074e+00 6.100489999999999746e+00 1.117398000000000025e+01 -1.768720000000000070e+00 9.145110000000000738e+00 1.119025000000000070e+01 1.771589999999999998e+00 3.046370000000000022e+00 1.119341000000000008e+01 -2.230000000000000211e-03 6.097830000000000084e+00 1.120270999999999972e+01 1.770289999999999919e+00 9.127110000000000056e+00 1.119252999999999965e+01 5.277319999999999567e+00 3.044319999999999915e+00 1.118299000000000021e+01 3.512329999999999952e+00 6.094129999999999825e+00 1.118987000000000087e+01 5.228899999999999659e-01 2.850000000000000103e-03 1.881596000000000046e+01 -1.234639999999999960e+00 3.061179999999999790e+00 1.883108000000000004e+01 -2.992459999999999898e+00 6.101009999999999600e+00 1.880476000000000170e+01 4.052279999999999660e+00 1.529999999999999893e-03 1.879826999999999870e+01 2.284040000000000070e+00 3.059120000000000061e+00 1.881369000000000113e+01 5.199799999999999978e-01 6.097749999999999559e+00 1.882947000000000060e+01 2.279619999999999980e+00 9.140620000000000189e+00 1.881341000000000108e+01 5.793879999999999697e+00 3.036020000000000163e+00 1.881118000000000023e+01 4.046680000000000277e+00 6.085849999999999760e+00 1.881036999999999892e+01
-3.099999999999999999e-04 2.032560000000000144e+00 9.383079999999999643e+00 -1.749689999999999968e+00 5.078929999999999723e+00 9.359180000000000277e+00 -3.529069999999999929e+00 8.126799999999999358e+00 9.360450000000000159e+00 3.518949999999999800e+00 2.037679999999999936e+00 9.378040000000000376e+00 1.771600000000000064e+00 5.081190000000000317e+00 9.383010000000000517e+00 -3.330000000000000061e-03 8.127019999999999911e+00 9.370929999999999538e+00 7.031629999999999825e+00 2.041659999999999808e+00 9.367010000000000502e+00 5.278769999999999740e+00 5.066029999999999589e+00 9.372170000000000556e+00 3.523379999999999956e+00 8.122719999999999274e+00 9.382199999999999207e+00 5.287899999999999823e-01 2.051099999999999923e+00 1.699561999999999884e+01 -1.227759999999999962e+00 5.081730000000000302e+00 1.699029000000000167e+01 -2.991070000000000118e+00 8.129599999999999937e+00 1.699579999999999913e+01 4.048000000000000043e+00 2.023890000000000189e+00 1.700133999999999901e+01 2.290669999999999984e+00 5.081649999999999778e+00 1.700165000000000148e+01 5.265900000000000025e-01 8.127359999999999474e+00 1.700988999999999862e+01 7.578000000000000291e+00 2.031250000000000000e+00 1.699145000000000039e+01 5.797920000000000407e+00 5.090040000000000120e+00 1.698986999999999981e+01 4.056470000000000020e+00 8.116020000000000678e+00 1.700290999999999997e+01 -8.699999999999999400e-03 2.031960000000000210e+00 1.300755999999999979e+01 -1.758380000000000054e+00 5.074749999999999872e+00 1.299587000000000003e+01 -3.528509999999999813e+00 8.139659999999999229e+00 1.300323000000000029e+01 3.512960000000000083e+00 2.025749999999999940e+00 1.299686999999999948e+01 1.775830000000000020e+00 5.094159999999999577e+00 1.301667999999999914e+01 1.229999999999999974e-03 8.134339999999999904e+00 1.300004000000000026e+01 7.047039999999999971e+00 2.030289999999999928e+00 1.300065000000000026e+01 5.264700000000000379e+00 5.084159999999999791e+00 1.300422999999999973e+01 3.527029999999999887e+00 8.124800000000000466e+00 1.298882000000000048e+01 5.352500000000000036e-01 2.022339999999999804e+00 2.062702000000000169e+01 -1.228750000000000009e+00 5.091099999999999959e+00 2.062212999999999852e+01 -2.991550000000000153e+00 8.123570000000000846e+00 2.062246999999999986e+01 4.052599999999999980e+00 2.020849999999999813e+00 2.062233000000000160e+01 2.290729999999999933e+00 5.079469999999999708e+00 2.060861999999999838e+01 5.338500000000000467e-01 8.126649999999999707e+00 2.063231000000000037e+01 7.580639999999999823e+00 2.034920000000000062e+00 2.062402000000000157e+01 5.811530000000000307e+00 5.095369999999999955e+00 2.062180000000000035e+01 4.049380000000000202e+00 8.126899999999999125e+00 2.063553999999999888e+01 1.054837000000000025e+01 9.280000000000000054e-03 1.118918999999999997e+01 8.792859999999999232e+00 3.055680000000000174e+00 1.119722999999999935e+01 7.037359999999999616e+00 6.101370000000000182e+00 1.117071999999999932e+01 -1.770860000000000101e+00 9.145070000000000476e+00 1.119081000000000081e+01 1.774319999999999897e+00 3.045939999999999870e+00 1.119488999999999912e+01 -2.749999999999999840e-03 6.098029999999999617e+00 1.120630000000000059e+01 1.772710000000000008e+00 9.122820000000000817e+00 1.119363000000000063e+01 5.276650000000000063e+00 3.043289999999999829e+00 1.118196999999999974e+01 3.510549999999999837e+00 6.093469999999999942e+00 1.119040000000000035e+01 5.216800000000000326e-01 3.559999999999999797e-03 1.881675999999999860e+01 -1.235230000000000050e+00 3.064280000000000115e+00 1.883547000000000082e+01 -2.992560000000000109e+00 6.102000000000000313e+00 1.880283999999999978e+01 4.053279999999999994e+00 1.840000000000000056e-03 1.879495999999999967e+01 2.283139999999999947e+00 3.061599999999999877e+00 1.881397000000000119e+01 5.180799999999999850e-01 6.097999999999999865e+00 1.883346999999999838e+01 2.277709999999999901e+00 9.139499999999999957e+00 1.881365999999999872e+01 5.790569999999999773e+00 3.033110000000000195e+00 1.881084999999999852e+01 4.046380000000000088e+00 6.083269999999999733e+00 1.880988999999999933e+01
-3.699999999999999947e-04 2.032690000000000108e+00 9.384819999999999496e+00 -1.747630000000000017e+00 5.078599999999999781e+00 9.356239999999999668e+00 -3.530889999999999862e+00 8.126390000000000668e+00 9.357720000000000482e+00 3.518740000000000201e+00 2.038689999999999891e+00 9.378719999999999501e+00 1.773810000000000109e+00 5.081279999999999575e+00 9.384729999999999350e+00 -4.000000000000000083e-03 8.126590000000000202e+00 9.370319999999999538e+00 7.030020000000000380e+00 2.043429999999999858e+00 9.365619999999999834e+00 5.278500000000000192e+00 5.063159999999999883e+00 9.371719999999999828e+00 3.524049999999999905e+00 8.121430000000000149e+00 9.383660000000000778e+00 5.289199999999999458e-01 2.054829999999999934e+00 1.699519000000000091e+01 -1.226900000000000102e+00 5.081940000000000346e+00 1.698875999999999920e+01 -2.990899999999999892e+00 8.129749999999999588e+00 1.699529000000000067e+01 4.047970000000000290e+00 2.022279999999999855e+00 1.700186000000000064e+01 2.291150000000000020e+00 5.081879999999999953e+00 1.700231000000000137e+01 5.263700000000000045e-01 8.126950000000000784e+00 1.701211999999999946e+01 7.580000000000000071e+00 2.031070000000000153e+00 1.699021000000000114e+01 5.795980000000000132e+00 5.091789999999999594e+00 1.698824000000000112e+01 4.058119999999999727e+00 8.113459999999999894e+00 1.700384999999999991e+01 -1.043000000000000003e-02 2.031950000000000145e+00 1.300871000000000066e+01 -1.758180000000000076e+00 5.073649999999999771e+00 1.299474999999999980e+01 -3.530250000000000110e+00 8.141700000000000159e+00 1.300347999999999971e+01 3.511589999999999989e+00 2.024449999999999861e+00 1.299597999999999942e+01 1.778880000000000017e+00 5.096770000000000245e+00 1.301965000000000039e+01 1.420000000000000038e-03 8.135400000000000631e+00 1.299975000000000058e+01 7.048339999999999606e+00 2.029850000000000154e+00 1.300042000000000009e+01 5.261720000000000397e+00 5.084839999999999804e+00 1.300464000000000020e+01 3.528399999999999981e+00 8.123929999999999652e+00 1.298639999999999972e+01 5.366900000000000004e-01 2.020430000000000170e+00 2.062734999999999985e+01 -1.228189999999999893e+00 5.093200000000000394e+00 2.062158000000000158e+01 -2.991429999999999811e+00 8.122510000000000119e+00 2.062180000000000035e+01 4.053449999999999775e+00 2.018590000000000106e+00 2.062170000000000059e+01 2.291279999999999983e+00 5.079240000000000421e+00 2.060541999999999874e+01 5.349599999999999911e-01 8.126210000000000377e+00 2.063366999999999862e+01 7.583050000000000068e+00 2.035429999999999851e+00 2.062372999999999834e+01 5.812240000000000073e+00 5.098180000000000156e+00 2.062102000000000146e+01 4.049610000000000376e+00 8.126429999999999154e+00 2.063746000000000080e+01 1.054620000000000068e+01 1.098999999999999977e-02 1.118943999999999939e+01 8.791510000000000602e+00 3.057090000000000085e+00 1.119890999999999970e+01 7.036830000000000140e+00 6.102219999999999978e+00 1.116755000000000031e+01 -1.772960000000000091e+00 9.145030000000000214e+00 1.119130000000000003e+01 1.776929999999999898e+00 3.045570000000000110e+00 1.119637999999999955e+01 -3.220000000000000206e-03 6.098200000000000287e+00 1.120975999999999928e+01 1.775030000000000108e+00 9.118690000000000850e+00 1.119464999999999932e+01 5.275979999999999670e+00 3.042260000000000186e+00 1.118103999999999942e+01 3.508869999999999933e+00 6.092819999999999681e+00 1.119089999999999918e+01 5.205199999999999827e-01 4.250000000000000305e-03 1.881750999999999863e+01 -1.235780000000000101e+00 3.067309999999999981e+00 1.883968000000000131e+01 -2.992649999999999810e+00 6.102940000000000254e+00 1.880093000000000103e+01 4.054229999999999556e+00 2.099999999999999870e-03 1.879181000000000168e+01 2.282290000000000152e+00 3.063950000000000173e+00 1.881421999999999883e+01 5.162299999999999667e-01 6.098259999999999792e+00 1.883728999999999942e+01 2.275910000000000100e+00 9.138389999999999347e+00 1.881390999999999991e+01 5.787410000000000387e+00 3.030310000000000059e+00 1.881051000000000073e+01 4.046100000000000030e+00 6.080799999999999983e+00 1.880942999999999898e+01