-3.427784378200000219e+02
-3.427750995100000182e+02
-3.427650454299999865e+02
-3.427485667000000262e+02
-3.427261333899999727e+02
-3.426983714799999916e+02
-3.426660298400000215e+02
-3.426299471799999878e+02
-3.425910187999999721e+02
-3.425501609300000041e+02
-3.425246981700000219e+02
-3.425220956399999750e+02
-3.425139677999999890e+02
-3.425005955500000141e+02
-3.424824297999999771e+02
-3.424600702000000183e+02
-3.424342341099999771e+02
-3.424057197800000267e+02
-3.423753763400000025e+02
-3.423440663900000231e+02
-3.422043837900000085e+02
-3.422021503700000267e+02
-3.421958505900000205e+02
-3.421856439000000023e+02
-3.421717958899999985e+02
-3.421546658699999739e+02
-3.421346881299999723e+02
-3.421123631400000136e+02
-3.420882302699999968e+02
-3.420628600499999834e+02
-3.424577763099999856e+02
-3.424561705699999834e+02
-3.424504334000000085e+02
-3.424407181799999762e+02
-3.424272896300000184e+02
-3.424105023899999765e+02
-3.423907929399999830e+02
-3.423686566499999913e+02
-3.423446284300000002e+02
-3.423192655700000273e+02
-3.417928748200000086e+02
-3.417969466100000204e+02
-3.417975873899999897e+02
-3.417948617499999955e+02
-3.417889696500000127e+02
-3.417802415400000200e+02
-3.417691135300000269e+02
-3.417561154399999737e+02
-3.417418363799999952e+02
-3.417268989600000282e+02
-3.421709436200000027e+02
-3.421691428999999971e+02
-3.421643809700000247e+02
-3.421567949399999975e+02
-3.421466037399999891e+02
-3.421340993800000092e+02
-3.421196258200000102e+02
-3.421035781100000008e+02
-3.420863822499999856e+02
-3.420684761699999967e+02
-3.419123796000000084e+02
-3.419129629700000237e+02
-3.419098860500000114e+02
-3.419033392100000128e+02
-3.418936204299999986e+02
-3.418811239699999760e+02
-3.418663289200000008e+02
-3.418497638800000118e+02
-3.418320033800000033e+02
-3.418136338400000227e+02
-3.400454654000000119e+02
-3.400546194099999866e+02
-3.400704545099999905e+02
-3.400929472199999850e+02
-3.401220877000000087e+02
-3.401578421500000218e+02
-3.402001281400000039e+02
-3.402487609899999939e+02
-3.403034265000000005e+02
-3.403636383799999976e+02
-3.415180992400000264e+02
-3.415164186999999743e+02
-3.415128759699999819e+02
-3.415075622599999861e+02
-3.415006546399999934e+02
-3.414924121099999752e+02
-3.414831515500000023e+02
-3.414732411699999943e+02
-3.414630724799999939e+02
-3.414530442999999877e+02
-3.419360186700000099e+02
-3.419298624300000142e+02
-3.419197247100000254e+02
-3.419060406300000068e+02
-3.418893816799999854e+02
-3.418704344399999968e+02
-3.418499552999999764e+02
-3.418287401800000112e+02
-3.418075894899999980e+02
-3.417872648200000185e+02
-3.418481795600000055e+02
-3.418524485699999786e+02
-3.418530265200000144e+02
-3.418500421100000040e+02
-3.418437828799999920e+02
-3.418346716400000105e+02
-3.418232450699999845e+02
-3.418101153100000147e+02
-3.417959416799999985e+02
-3.417813865400000282e+02
-3.419080063399999858e+02
-3.419071174499999870e+02
-3.419038345100000242e+02
-3.418983022799999958e+02
-3.418907320000000141e+02
-3.418814065299999925e+02
-3.418706576899999732e+02
-3.418588591299999848e+02
-3.418464147299999922e+02
-3.418337532699999883e+02
-3.419840027700000178e+02
-3.419871472599999720e+02
-3.419889405700000111e+02
-3.419893922599999883e+02
-3.419885508300000083e+02
-3.419865042700000117e+02
-3.419833731200000102e+02
-3.419793092200000046e+02
-3.419744899699999792e+02
-3.419691085000000044e+02
-3.420745784599999979e+02
-3.420681671300000062e+02
-3.420587409199999911e+02
-3.420466113699999937e+02
-3.420321825099999842e+02
-3.420159239800000250e+02
-3.419983524300000113e+02
-3.419800080800000046e+02
-3.419614318999999796e+02
-3.419431443899999863e+02
-3.423536718199999882e+02
-3.423524443599999927e+02
-3.423470798299999842e+02
-3.423377877899999930e+02
-3.423249050499999839e+02
-3.423088791999999785e+02
-3.422902439200000231e+02
-3.422695989700000041e+02
-3.422475785600000222e+02
-3.422248321600000054e+02
-3.423161378500000183e+02
-3.423145233000000189e+02
-3.423082048300000224e+02
-3.422973705900000141e+02
-3.422823252800000091e+02
-3.422634805899999719e+02
-3.422413342899999975e+02
-3.422164525700000013e+02
-3.421894492000000128e+02
-3.421609614100000272e+02
-3.406092305099999749e+02
-3.406132779399999890e+02
-3.406239195200000154e+02
-3.406411435300000221e+02
-3.406648938299999827e+02
-3.406950546400000235e+02
-3.407314208099999746e+02
-3.407736833700000147e+02
-3.408213984299999879e+02
-3.408739786300000105e+02
-3.421754466699999853e+02
-3.421710990899999842e+02
-3.421622694199999728e+02
-3.421492884400000207e+02
-3.421326279200000045e+02
-3.421128770099999770e+02
-3.420907185300000037e+02
-3.420669017199999757e+02
-3.420422159699999725e+02
-3.420174631699999850e+02
-3.419775956799999790e+02
-3.419753997199999844e+02
-3.419713426800000207e+02
-3.419655467000000044e+02
-3.419582017100000257e+02
-3.419495539299999791e+02
-3.419399003199999925e+02
-3.419295745300000249e+02
-3.419189373500000215e+02
-3.419083674099999826e+02
-3.423833654100000103e+02
-3.423764736300000209e+02
-3.423673864900000012e+02
-3.423563009200000238e+02
-3.423434608599999933e+02
-3.423291493099999911e+02
-3.423136776599999962e+02
-3.422973757799999817e+02
-3.422805853599999750e+02
-3.422636448299999756e+02
-3.425165775599999733e+02
-3.425154356900000039e+02
-3.425096765399999867e+02
-3.424994591000000241e+02
-3.424850518100000158e+02
-3.424668239000000085e+02
-3.424452265799999964e+02
-3.424207728200000247e+02
-3.423940179400000261e+02
-3.423655386899999939e+02
-3.417337795700000243e+02
-3.417356213699999898e+02
-3.417363021099999969e+02
-3.417359736099999736e+02
-3.417348432300000241e+02
-3.417331580900000176e+02
-3.417311920800000280e+02
-3.417292263100000014e+02
-3.417275400799999829e+02
-3.417263897999999926e+02
-3.419428115700000035e+02
-3.419368216299999972e+02
-3.419285393700000100e+02
-3.419181496300000163e+02
-3.419059045399999945e+02
-3.418921255800000267e+02
-3.418771771699999817e+02
-3.418614677300000153e+02
-3.418454310600000099e+02
-3.418295123400000080e+02
-3.420713421400000129e+02
-3.420783477400000265e+02
-3.420822310799999855e+02
-3.420829957199999853e+02
-3.420807272999999782e+02
-3.420755860200000029e+02
-3.420677956000000108e+02
-3.420576405400000226e+02
-3.420454547499999762e+02
-3.420316009100000088e+02
-3.418971183699999870e+02
-3.418962452100000178e+02
-3.418940554999999790e+02
-3.418906288700000005e+02
-3.418861030300000152e+02
-3.418806636799999978e+02
-3.418745418299999983e+02
-3.418679983700000093e+02
-3.418613265299999853e+02
-3.418548342500000103e+02
-3.415175395599999888e+02
-3.415275999500000239e+02
-3.415396673399999941e+02
-3.415536525100000063e+02
-3.415695046800000227e+02
-3.415871974699999782e+02
-3.416067207400000143e+02
-3.416280553000000282e+02
-3.416511676100000159e+02
-3.416759844399999793e+02
-3.417507651500000065e+02
-3.417553849299999911e+02
-3.417567904800000065e+02
-3.417550266399999828e+02
-3.417502778699999908e+02
-3.417428571099999886e+02
-3.417331802300000163e+02
-3.417217536399999744e+02
-3.417091503400000079e+02
-3.416959691399999883e+02
-3.415279313199999933e+02
-3.415377418499999749e+02
-3.415459681400000136e+02
-3.415524929900000188e+02
-3.415572769999999991e+02
-3.415603665300000102e+02
-3.415618855199999757e+02
-3.415620280900000125e+02
-3.415610508699999741e+02
-3.415592542399999729e+02
-3.420730037999999809e+02
-3.420806823899999927e+02
-3.420856341499999758e+02
-3.420877747999999769e+02
-3.420870909800000277e+02
-3.420836481900000194e+02
-3.420775784400000248e+02
-3.420690887200000248e+02
-3.420584432100000072e+02
-3.420459601800000087e+02
-3.417468421099999887e+02
-3.417538660199999754e+02
-3.417578197700000260e+02
-3.417587022899999738e+02
-3.417566826199999923e+02
-3.417520854200000144e+02
-3.417453781699999809e+02
-3.417371368899999879e+02
-3.417280109499999980e+02
-3.417186908099999982e+02
-3.412977296199999842e+02
-3.412929914299999723e+02
-3.412888742299999763e+02
-3.412854610599999887e+02
-3.412828503599999976e+02
-3.412811624600000187e+02
-3.412805294199999935e+02
-3.412810967300000016e+02
-3.412830215199999770e+02
-3.412864641599999800e+02
-3.412970156200000247e+02
-3.413201248699999724e+02
-3.413453958000000057e+02
-3.413724670700000274e+02
-3.414009707000000162e+02
-3.414305413499999986e+02
-3.414608224400000154e+02
-3.414914808199999925e+02
-3.415222187699999949e+02
-3.415527730000000020e+02
-3.415054501199999777e+02
-3.415089822699999900e+02
-3.415104342700000188e+02
-3.415098877899999934e+02
-3.415074877600000036e+02
-3.415034461899999769e+02
-3.414980220300000155e+02
-3.414915260800000283e+02
-3.414842969800000105e+02
-3.414766892200000257e+02
-3.418637706100000173e+02
-3.418602022100000113e+02
-3.418540768299999968e+02
-3.418455878500000154e+02
-3.418349966399999857e+02
-3.418226217100000213e+02
-3.418088205500000072e+02
-3.417939726500000006e+02
-3.417784625499999720e+02
-3.417626684400000272e+02
-3.423016376499999751e+02
-3.422999642799999833e+02
-3.422942599500000256e+02
-3.422846360699999764e+02
-3.422713070099999868e+02
-3.422545787600000153e+02
-3.422348385999999891e+02
-3.422125297000000046e+02
-3.421881446500000266e+02
-3.421621974099999761e+02
-3.415080618700000059e+02
-3.415125442899999939e+02
-3.415142048899999736e+02
-3.415131888099999742e+02
-3.415097938600000020e+02
-3.415044526799999858e+02
-3.414976963199999886e+02
-3.414901248099999975e+02
-3.414823641799999905e+02
-3.414750267499999836e+02
-3.417416200000000117e+02
-3.417461318000000006e+02
-3.417503512600000022e+02
-3.417542706500000236e+02
-3.417579204499999719e+02
-3.417613681700000257e+02
-3.417647097799999756e+02
-3.417680819799999767e+02
-3.417716435599999727e+02
-3.417755773599999998e+02
-3.410049108000000047e+02
-3.410183522199999970e+02
-3.410375232299999766e+02
-3.410623278699999901e+02
-3.410926463000000126e+02
-3.411283159500000011e+02
-3.411691187000000127e+02
-3.412147514299999784e+02
-3.412648140300000250e+02
-3.413188022400000250e+02
-3.411232646199999863e+02
-3.411219542399999796e+02
-3.411240095300000235e+02
-3.411296064300000239e+02
-3.411389242199999785e+02
-3.411521248999999898e+02
-3.411693400600000246e+02
-3.411906332600000269e+02
-3.412159933400000114e+02
-3.412452954199999908e+02
-3.409326826700000197e+02
-3.409422010499999942e+02
-3.409536970600000245e+02
-3.409670040099999824e+02
-3.409819687199999976e+02
-3.409984461199999828e+02
-3.410163172100000111e+02
-3.410354798999999844e+02
-3.410558527800000093e+02
-3.410773807400000237e+02
-3.417695161199999916e+02
-3.417777101699999776e+02
-3.417850783200000251e+02
-3.417914755799999966e+02
-3.417968428400000107e+02
-3.418012109499999838e+02
-3.418046982600000092e+02
-3.418074980299999766e+02
-3.418098636400000032e+02
-3.418120862200000261e+02
-3.413717187600000216e+02
-3.413666132100000254e+02
-3.413585671499999989e+02
-3.413478792899999803e+02
-3.413350036499999760e+02
-3.413205156199999806e+02
-3.413050946399999930e+02
-3.412894820800000275e+02
-3.412744525499999781e+02
-3.412607787800000096e+02
-3.423272532799999794e+02
-3.423209271399999807e+02
-3.423098422799999980e+02
-3.422943879800000104e+02
-3.422750905600000237e+02
-3.422525830000000155e+02
-3.422275799600000141e+02
-3.422008561200000258e+02
-3.421732108200000084e+02
-3.421454479199999810e+02
-3.423730079800000112e+02
-3.423682927400000153e+02
-3.423590595200000166e+02
-3.423455649800000060e+02
-3.423282095999999797e+02
-3.423075096200000189e+02
-3.422840845000000058e+02
-3.422586236500000041e+02
-3.422318520800000101e+02
-3.422045189699999810e+02
-3.416551410199999737e+02
-3.416664538599999901e+02
-3.416745903999999996e+02
-3.416795296500000063e+02
-3.416813984099999857e+02
-3.416804600799999889e+02
-3.416770908199999894e+02
-3.416717592800000034e+02
-3.416649834699999815e+02
-3.416573044200000027e+02
-3.411065540800000235e+02
-3.411116777999999954e+02
-3.411200568900000007e+02
-3.411316764300000273e+02
-3.411465213299999846e+02
-3.411645607400000131e+02
-3.411857399300000111e+02
-3.412099544800000217e+02
-3.412370361999999773e+02
-3.412667403199999967e+02
-3.409559188000000063e+02
-3.409583387900000275e+02
-3.409624930200000108e+02
-3.409683335299999953e+02
-3.409758145299999796e+02
-3.409848774100000242e+02
-3.409954706600000236e+02
-3.410075389400000176e+02
-3.410210218899999859e+02
-3.410358586500000229e+02
-3.419445123599999761e+02
-3.419423489800000198e+02
-3.419365908300000001e+02
-3.419274175699999887e+02
-3.419151038900000117e+02
-3.419000092900000141e+02
-3.418825592000000029e+02
-3.418632316999999716e+02
-3.418425323399999911e+02
-3.418209830299999794e+02
-3.421674845200000163e+02
-3.421691169399999808e+02
-3.421677567400000157e+02
-3.421634333200000242e+02
-3.421562743900000214e+02
-3.421465037199999983e+02
-3.421344254599999886e+02
-3.421204249599999798e+02
-3.421049297499999966e+02
-3.420884213200000090e+02
-3.416293511900000226e+02
-3.416390546800000152e+02
-3.416487000399999943e+02
-3.416581720300000029e+02
-3.416674466399999801e+02
-3.416765929900000174e+02
-3.416857561499999747e+02
-3.416951400500000204e+02
-3.417049893700000212e+02
-3.417155687599999965e+02
