8.429999999999999993e-04 2.509999999999999753e-04 -5.529999999999999976e-04 8.450000000000000479e-04 2.460000000000000164e-04 -5.479999999999999845e-04 8.459999999999999638e-04 2.439999999999999949e-04 -5.509999999999999490e-04 8.459999999999999638e-04 2.489999999999999809e-04 -5.550000000000000462e-04 8.429999999999999993e-04 2.480000000000000108e-04 -5.469999999999999602e-04 8.450000000000000479e-04 2.439999999999999949e-04 -5.450000000000000200e-04 8.459999999999999638e-04 2.489999999999999809e-04 -5.500000000000000331e-04 8.469999999999999881e-04 2.480000000000000108e-04 -5.479999999999999845e-04 8.450000000000000479e-04 2.449999999999999921e-04 -5.410000000000000312e-04 3.210299999999999959e-02 -4.499999999999999877e-04 -6.099999999999999872e-05 3.209900000000000253e-02 -4.519999999999999821e-04 -5.599999999999999916e-05 3.209999999999999659e-02 -4.459999999999999989e-04 -6.200000000000000270e-05 3.210299999999999959e-02 -4.479999999999999933e-04 -5.300000000000000078e-05 3.210400000000000059e-02 -4.539999999999999765e-04 -6.000000000000000152e-05 3.209800000000000153e-02 -4.449999999999999746e-04 -5.899999999999999754e-05 3.209499999999999853e-02 -4.490000000000000176e-04 -5.700000000000000314e-05 3.209700000000000053e-02 -4.550000000000000008e-04 -5.500000000000000196e-05 3.210199999999999859e-02 -4.499999999999999877e-04 -6.700000000000000226e-05 -3.209300000000000347e-02 -4.040000000000000080e-04 -6.999999999999999387e-05 -3.209200000000000247e-02 -4.099999999999999912e-04 -7.299999999999999903e-05 -3.208899999999999947e-02 -4.159999999999999744e-04 -7.100000000000000462e-05 -3.208699999999999747e-02 -4.049999999999999781e-04 -6.700000000000000226e-05 -3.209100000000000147e-02 -4.060000000000000024e-04 -7.499999999999999343e-05 -3.208699999999999747e-02 -4.110000000000000155e-04 -7.700000000000000139e-05 -3.208799999999999847e-02 -4.049999999999999781e-04 -7.299999999999999903e-05 -3.208799999999999847e-02 -4.090000000000000211e-04 -7.299999999999999903e-05 -3.209200000000000247e-02 -4.110000000000000155e-04 -8.000000000000000654e-05 -8.319999999999999488e-04 2.039999999999999984e-04 3.860000000000000041e-04 -8.360000000000000460e-04 2.039999999999999984e-04 3.789999999999999966e-04 -8.350000000000000217e-04 2.069999999999999900e-04 3.869999999999999742e-04 -8.339999999999999974e-04 2.059999999999999928e-04 3.759999999999999779e-04 -8.319999999999999488e-04 2.020000000000000040e-04 3.820000000000000153e-04 -8.360000000000000460e-04 2.079999999999999872e-04 3.840000000000000097e-04 -8.379999999999999862e-04 2.069999999999999900e-04 3.809999999999999910e-04 -8.350000000000000217e-04 2.020000000000000040e-04 3.800000000000000209e-04 -8.319999999999999488e-04 2.059999999999999928e-04 3.930000000000000117e-04 -9.145000000000000351e-03 1.920000000000000049e-04 4.879999999999999898e-04 -9.138000000000000289e-03 2.030000000000000012e-04 4.889999999999999599e-04 -9.135000000000000758e-03 1.969999999999999909e-04 4.899999999999999842e-04 -9.131999999999999493e-03 1.920000000000000049e-04 4.859999999999999954e-04 -9.138999999999999554e-03 2.090000000000000115e-04 4.859999999999999954e-04 -9.133000000000000493e-03 2.010000000000000068e-04 4.870000000000000197e-04 -9.133000000000000493e-03 1.900000000000000105e-04 4.889999999999999599e-04 -9.133000000000000493e-03 2.049999999999999956e-04 4.889999999999999599e-04 -9.138000000000000289e-03 2.069999999999999900e-04 4.870000000000000197e-04 9.159999999999999740e-03 2.130000000000000003e-04 -1.920000000000000049e-04 9.150000000000000147e-03 2.149999999999999947e-04 -1.910000000000000077e-04 9.154000000000000678e-03 2.020000000000000040e-04 -1.910000000000000077e-04 9.157000000000000209e-03 2.180000000000000134e-04 -1.930000000000000021e-04 9.162999999999999270e-03 2.069999999999999900e-04 -1.920000000000000049e-04 9.150999999999999412e-03 2.059999999999999928e-04 -1.900000000000000105e-04 9.145999999999999616e-03 2.169999999999999891e-04 -1.920000000000000049e-04 9.147999999999999882e-03 2.100000000000000087e-04 -1.920000000000000049e-04 9.157000000000000209e-03 1.979999999999999881e-04 -1.920000000000000049e-04
-5.050000000000000235e-04 2.103000000000000008e-02 2.997999999999999797e-03 -1.667999999999999995e-03 6.840999999999999859e-03 3.741699999999999887e-02 -2.579999999999999828e-04 1.827799999999999911e-02 2.266500000000000112e-02 -4.229999999999999819e-04 -2.120800000000000116e-02 -1.472700000000000051e-02 -3.477800000000000336e-02 -4.190000000000000148e-03 1.203000000000000076e-03 2.497000000000000088e-03 -3.954000000000000049e-03 3.096300000000000094e-02 2.182200000000000112e-02 -3.837399999999999839e-02 3.405699999999999700e-02 -8.436000000000000790e-03 2.323800000000000171e-02 6.819999999999999890e-04 -1.265000000000000065e-03 -1.031000000000000015e-03 -2.825799999999999840e-02 1.422400000000000053e-02 -1.605900000000000036e-02 3.257899999999999685e-02 2.838900000000000104e-02 2.649999999999999903e-04 2.573399999999999993e-02 1.869200000000000028e-02 1.325499999999999942e-02 -5.542000000000000051e-03 1.247799999999999951e-02 2.186799999999999855e-02 -2.776199999999999848e-02 5.160999999999999789e-03 1.077600000000000086e-02 -2.838999999999999944e-03 4.094899999999999929e-02 -1.765399999999999955e-02 -3.155199999999999672e-02 2.001500000000000154e-02 6.203000000000000180e-03 4.136499999999999899e-02 4.842400000000000176e-02 -4.100499999999999978e-02 1.648499999999999965e-02 9.298000000000000709e-03 1.885799999999999976e-02 2.853000000000000067e-03 -1.753299999999999997e-02 1.561300000000000014e-02 -4.379000000000000080e-03 -5.907599999999999657e-02 2.562599999999999947e-02 1.864599999999999938e-02 -3.564300000000000107e-02 -2.595400000000000137e-02 -1.386800000000000012e-02 -7.936999999999999611e-03 3.361999999999999971e-03 2.710100000000000009e-02 -6.242000000000000326e-02 -2.962499999999999856e-02 -7.300000000000000065e-03 -4.116600000000000120e-02 -4.070000000000000267e-04 1.770400000000000099e-02 -5.505800000000000277e-02 -1.343699999999999929e-02 -3.884999999999999998e-03 2.690999999999999816e-03 -7.837000000000000216e-03 -2.535199999999999954e-02 -3.405099999999999794e-02 -3.406000000000000173e-03 5.189300000000000163e-02 -7.100999999999999673e-03 2.398300000000000085e-02 1.164699999999999937e-02 -2.990699999999999956e-02 2.671000000000000197e-03 4.342100000000000126e-02 8.647000000000000172e-03 1.734300000000000078e-02 -1.451099999999999959e-02 -2.230499999999999844e-02 8.781000000000000610e-03 6.369999999999999794e-03 -2.399000000000000091e-03 3.256999999999999913e-03 6.058100000000000290e-02 -2.226300000000000154e-02 1.793900000000000008e-02 3.079999999999999839e-03 -4.125500000000000000e-02 -6.304999999999999841e-03 6.366000000000000131e-03 -2.033999999999999784e-03 -4.175500000000000045e-02 -8.293000000000000024e-03 -1.400799999999999962e-02 -9.256999999999999604e-03 -2.646099999999999841e-02 3.228999999999999926e-02 -3.388200000000000239e-02 -1.615700000000000122e-02 1.057199999999999980e-02 -1.137200000000000016e-02 -5.994100000000000122e-02 -7.837999999999999481e-03 -1.459599999999999960e-02 5.003099999999999908e-02 1.113699999999999933e-02 -3.763999999999999985e-03 -3.720299999999999996e-02 -6.615400000000000447e-02 2.761600000000000166e-02 4.588000000000000064e-03 1.015600000000000010e-02 -1.781800000000000050e-02 -6.920099999999999862e-02 -5.825700000000000323e-02 8.575199999999999489e-02 -4.783799999999999858e-02 -5.459999999999999576e-03 -7.110000000000000434e-04 4.333900000000000252e-02 4.325500000000000178e-02 4.651999999999999885e-03 -1.650799999999999837e-02 3.051699999999999899e-02 -3.220000000000000206e-03 -2.756400000000000169e-02 2.821299999999999850e-02 -3.431599999999999928e-02 -9.477399999999999713e-02 1.255799999999999972e-02 -2.120800000000000116e-02 2.991999999999999868e-03 -1.684000000000000080e-02 -2.379399999999999918e-02 8.158999999999999586e-02 3.511100000000000332e-02 -6.768899999999999917e-02 -1.154099999999999918e-02 3.977499999999999786e-02 5.231000000000000406e-03 -9.128899999999999515e-02 6.876799999999999580e-02 9.258999999999999869e-03 8.279999999999999600e-04 8.427300000000000069e-02 6.495399999999999785e-02 -5.982999999999999603e-03 1.691300000000000095e-02 5.714299999999999935e-02 1.367699999999999992e-02
-1.853000000000000046e-03 4.172800000000000120e-02 6.185000000000000393e-03 -4.368000000000000355e-03 1.337400000000000047e-02 7.490600000000000036e-02 -1.222999999999999912e-03 3.601000000000000034e-02 4.544499999999999929e-02 -1.789000000000000009e-03 -4.256399999999999767e-02 -2.897900000000000129e-02 -7.034100000000000075e-02 -8.805999999999999592e-03 2.324999999999999810e-03 4.074999999999999629e-03 -8.153999999999999790e-03 6.185700000000000226e-02 4.255699999999999761e-02 -7.585799999999999488e-02 6.728499999999999759e-02 -1.747100000000000042e-02 4.611699999999999827e-02 1.773999999999999969e-03 -3.282000000000000195e-03 -2.344000000000000163e-03 -5.609000000000000097e-02 -3.299999999999999982e-03 -3.159200000000000202e-02 6.428499999999999492e-02 2.450300000000000047e-02 1.013000000000000012e-03 5.098500000000000254e-02 5.376999999999999835e-03 2.681899999999999909e-02 -1.123799999999999973e-02 -7.101999999999999806e-03 4.427899999999999892e-02 -5.590599999999999736e-02 -2.137599999999999917e-02 2.171599999999999919e-02 -6.210000000000000242e-03 4.997900000000000259e-02 -3.488299999999999734e-02 -6.341600000000000015e-02 7.924000000000000488e-03 1.257600000000000037e-02 8.188299999999999745e-02 6.476300000000000112e-02 -8.084700000000000220e-02 3.222699999999999870e-02 -1.332099999999999951e-02 3.808199999999999780e-02 5.473999999999999699e-03 -3.223999999999999869e-03 3.136400000000000299e-02 -8.540999999999999981e-03 -8.581400000000000139e-02 5.171100000000000002e-02 3.787499999999999895e-02 -3.905499999999999944e-02 -5.109699999999999659e-02 -2.737500000000000003e-02 1.638399999999999926e-02 6.932999999999999927e-03 5.451500000000000096e-02 -9.277100000000000624e-02 -5.835699999999999915e-02 -1.416099999999999998e-02 -5.027800000000000324e-02 -4.749999999999999990e-04 3.537400000000000266e-02 -7.790099999999999802e-02 -2.639000000000000026e-02 -7.360000000000000223e-03 3.710000000000000103e-02 -1.540700000000000056e-02 -4.990499999999999797e-02 -3.581399999999999861e-02 -6.544000000000000337e-03 1.041740000000000027e-01 -1.339899999999999945e-02 4.780000000000000221e-02 2.290999999999999981e-02 -5.940299999999999747e-02 5.108999999999999826e-03 8.707900000000000362e-02 1.776799999999999907e-02 3.424499999999999766e-02 -2.903000000000000025e-02 -4.359400000000000081e-02 1.721699999999999967e-02 1.266300000000000064e-02 -3.932999999999999864e-03 6.453000000000000402e-03 1.211409999999999987e-01 -4.322700000000000153e-02 3.558399999999999758e-02 6.222000000000000100e-03 -8.154899999999999649e-02 -1.311499999999999992e-02 1.287499999999999929e-02 -3.141999999999999828e-03 -8.305999999999999495e-02 -1.636400000000000007e-02 -2.689799999999999830e-02 -1.839000000000000010e-02 -5.281700000000000284e-02 7.355000000000000426e-02 -6.745800000000000407e-02 -3.252499999999999836e-02 3.021400000000000127e-02 -2.310800000000000007e-02 -1.199080000000000007e-01 -6.478000000000000251e-03 -2.918199999999999961e-02 9.846699999999999897e-02 3.112699999999999842e-02 -7.755999999999999873e-03 -7.442999999999999616e-02 -1.228069999999999995e-01 5.487399999999999917e-02 8.210000000000000284e-03 2.940999999999999864e-02 -3.555900000000000033e-02 -1.379489999999999883e-01 -1.074090000000000045e-01 1.700190000000000035e-01 -9.513099999999999334e-02 -1.691999999999999928e-03 -1.610000000000000103e-03 8.578199999999999714e-02 9.545099999999999418e-02 9.025000000000000036e-03 -3.321999999999999953e-02 5.158200000000000285e-02 -6.942000000000000254e-03 -5.444899999999999740e-02 4.763200000000000073e-02 -6.856399999999999995e-02 -1.884480000000000044e-01 1.585800000000000057e-02 -4.223999999999999977e-02 6.223000000000000233e-03 -4.301699999999999968e-02 -4.757399999999999823e-02 1.628159999999999885e-01 6.054600000000000259e-02 -1.355079999999999896e-01 -2.304399999999999851e-02 7.039299999999999724e-02 1.065299999999999928e-02 -1.820070000000000021e-01 1.277830000000000077e-01 1.825900000000000092e-02 1.938000000000000052e-03 1.587159999999999960e-01 1.287050000000000138e-01 -1.159199999999999987e-02 2.489299999999999846e-02 1.136699999999999933e-01 2.722099999999999867e-02
-3.135999999999999899e-03 6.220300000000000135e-02 8.876000000000000209e-03 -7.394000000000000399e-03 1.983800000000000147e-02 1.117039999999999977e-01 -1.968999999999999830e-03 5.327500000000000291e-02 6.767700000000000105e-02 -3.314999999999999804e-03 -6.365700000000000525e-02 -4.319699999999999929e-02 -1.056079999999999935e-01 -1.361399999999999937e-02 2.674999999999999861e-03 5.618999999999999863e-03 -1.226799999999999939e-02 9.185400000000000509e-02 6.295199999999999407e-02 -1.120540000000000008e-01 9.895299999999999929e-02 -2.614800000000000110e-02 6.880999999999999617e-02 2.723000000000000160e-03 -5.262000000000000184e-03 -3.612000000000000193e-03 -8.393899999999999972e-02 -2.033899999999999944e-02 -4.714700000000000141e-02 9.485799999999999788e-02 2.047300000000000161e-02 1.824000000000000100e-03 7.560300000000000353e-02 -7.725000000000000096e-03 4.015799999999999925e-02 -1.705500000000000071e-02 -2.639700000000000032e-02 6.661200000000000454e-02 -8.421700000000000019e-02 -4.731699999999999795e-02 3.227800000000000114e-02 -1.005900000000000023e-02 5.909199999999999869e-02 -5.194900000000000212e-02 -9.541499999999999981e-02 -4.161999999999999901e-03 1.864899999999999891e-02 1.212759999999999949e-01 8.106399999999999717e-02 -1.197799999999999976e-01 4.714900000000000341e-02 -3.562300000000000189e-02 5.722399999999999709e-02 7.702999999999999778e-03 1.079100000000000024e-02 4.674199999999999883e-02 -1.264400000000000072e-02 -1.121290000000000064e-01 7.768600000000000505e-02 5.748199999999999837e-02 -4.220499999999999946e-02 -7.576800000000000201e-02 -4.050999999999999740e-02 4.066399999999999876e-02 1.032100000000000031e-02 8.203199999999999381e-02 -1.230239999999999945e-01 -8.650599999999999956e-02 -2.074200000000000002e-02 -5.932899999999999979e-02 -6.350000000000000392e-04 5.273699999999999916e-02 -1.004530000000000006e-01 -3.918800000000000061e-02 -1.050399999999999945e-02 7.107399999999999829e-02 -2.310500000000000054e-02 -7.354399999999999826e-02 -3.751800000000000274e-02 -9.686000000000000165e-03 1.563890000000000002e-01 -1.978600000000000150e-02 7.157800000000000273e-02 3.400500000000000050e-02 -8.902200000000000391e-02 7.388999999999999735e-03 1.308259999999999978e-01 2.640699999999999992e-02 5.079399999999999887e-02 -4.307099999999999818e-02 -6.448700000000000265e-02 2.558900000000000063e-02 1.921300000000000091e-02 -5.507999999999999875e-03 9.778999999999999498e-03 1.816290000000000127e-01 -6.359299999999999675e-02 5.293699999999999795e-02 9.627999999999999406e-03 -1.214480000000000004e-01 -2.010800000000000087e-02 1.980300000000000116e-02 -4.172999999999999626e-03 -1.235519999999999952e-01 -2.380699999999999830e-02 -3.933199999999999891e-02 -2.710299999999999862e-02 -7.857400000000000495e-02 1.143620000000000053e-01 -1.002640000000000059e-01 -4.846999999999999920e-02 4.962300000000000044e-02 -3.504399999999999876e-02 -1.788430000000000020e-01 -5.024999999999999953e-03 -4.350500000000000200e-02 1.455230000000000135e-01 5.071699999999999819e-02 -1.175999999999999962e-02 -1.108200000000000018e-01 -1.787130000000000107e-01 8.175799999999999734e-02 1.129699999999999975e-02 4.854200000000000181e-02 -5.282499999999999696e-02 -2.051699999999999913e-01 -1.562189999999999968e-01 2.524930000000000230e-01 -1.409320000000000017e-01 2.165999999999999957e-03 -2.416000000000000179e-03 1.274780000000000080e-01 1.470259999999999900e-01 1.330500000000000085e-02 -4.950000000000000233e-02 7.222399999999999654e-02 -1.096100000000000026e-02 -8.064000000000000334e-02 6.732799999999999896e-02 -1.023410000000000014e-01 -2.803950000000000053e-01 1.906400000000000108e-02 -6.276099999999999735e-02 9.589000000000000301e-03 -6.907299999999999551e-02 -7.096600000000000130e-02 2.428109999999999991e-01 8.533799999999999719e-02 -2.026830000000000020e-01 -3.451599999999999807e-02 1.008359999999999951e-01 1.636500000000000107e-02 -2.715369999999999728e-01 1.857429999999999914e-01 2.721499999999999961e-02 3.134000000000000067e-03 2.319730000000000125e-01 1.910199999999999954e-01 -1.693899999999999920e-02 3.304900000000000199e-02 1.693669999999999898e-01 4.036700000000000010e-02
-4.307000000000000065e-03 8.231700000000000128e-02 1.096399999999999979e-02 -1.082800000000000082e-02 2.623599999999999891e-02 1.476310000000000122e-01 -2.423999999999999939e-03 6.992600000000000204e-02 8.927400000000000613e-02 -5.047000000000000271e-03 -8.433000000000000218e-02 -5.722900000000000209e-02 -1.403590000000000115e-01 -1.859699999999999895e-02 2.187000000000000142e-03 7.121999999999999859e-03 -1.627400000000000027e-02 1.207140000000000019e-01 8.288299999999999834e-02 -1.467759999999999898e-01 1.289160000000000028e-01 -3.434399999999999953e-02 9.118300000000000016e-02 3.543999999999999841e-03 -7.236000000000000244e-03 -4.752000000000000147e-03 -1.116889999999999966e-01 -3.677699999999999719e-02 -6.277199999999999447e-02 1.240529999999999966e-01 1.629099999999999993e-02 2.703999999999999806e-03 9.939399999999999624e-02 -2.052299999999999958e-02 5.318099999999999911e-02 -2.293699999999999906e-02 -4.517299999999999788e-02 8.868800000000000294e-02 -1.123910000000000048e-01 -7.246400000000000063e-02 4.233699999999999963e-02 -1.433099999999999999e-02 6.823400000000000298e-02 -6.861499999999999544e-02 -1.273569999999999980e-01 -1.620800000000000018e-02 2.436999999999999930e-02 1.593060000000000032e-01 9.727099999999999635e-02 -1.575969999999999871e-01 6.119999999999999746e-02 -5.748000000000000331e-02 7.628899999999999570e-02 9.414000000000000493e-03 2.440700000000000161e-02 6.165699999999999653e-02 -1.674600000000000047e-02 -1.378260000000000041e-01 1.033830000000000027e-01 7.724200000000000510e-02 -4.495500000000000190e-02 -9.988299999999999956e-02 -5.324999999999999872e-02 6.470499999999999863e-02 1.348899999999999925e-02 1.094549999999999967e-01 -1.530479999999999896e-01 -1.139239999999999975e-01 -2.715100000000000152e-02 -6.827300000000000035e-02 -9.330000000000000186e-04 6.953700000000000159e-02 -1.225249999999999950e-01 -5.171100000000000002e-02 -1.332999999999999984e-02 1.045460000000000000e-01 -3.092100000000000057e-02 -9.607000000000000262e-02 -3.927300000000000235e-02 -1.271599999999999987e-02 2.080980000000000052e-01 -2.629300000000000040e-02 9.522100000000000009e-02 4.477600000000000330e-02 -1.185049999999999992e-01 9.402999999999999900e-03 1.741830000000000045e-01 3.443500000000000033e-02 6.686000000000000276e-02 -5.652200000000000280e-02 -8.476799999999999613e-02 3.397200000000000220e-02 2.595099999999999837e-02 -7.177000000000000220e-03 1.317600000000000021e-02 2.416000000000000092e-01 -8.321099999999999330e-02 6.985500000000000043e-02 1.315000000000000023e-02 -1.606789999999999885e-01 -2.720699999999999855e-02 2.701800000000000035e-02 -5.114999999999999755e-03 -1.630570000000000075e-01 -3.057299999999999948e-02 -5.115900000000000308e-02 -3.527899999999999786e-02 -1.036119999999999958e-01 1.544210000000000027e-01 -1.320209999999999995e-01 -6.380800000000000360e-02 6.861200000000000632e-02 -4.713099999999999928e-02 -2.361779999999999990e-01 -3.465999999999999897e-03 -5.748299999999999937e-02 1.908660000000000079e-01 6.975599999999999856e-02 -1.576999999999999930e-02 -1.460039999999999949e-01 -2.334350000000000036e-01 1.080340000000000050e-01 1.384999999999999946e-02 6.741999999999999382e-02 -6.940799999999999748e-02 -2.702450000000000130e-01 -2.042549999999999921e-01 3.325659999999999727e-01 -1.847930000000000128e-01 6.105000000000000183e-03 -3.073000000000000211e-03 1.680449999999999999e-01 1.975129999999999941e-01 1.746400000000000036e-02 -6.518899999999999695e-02 9.229099999999999804e-02 -1.526199999999999952e-02 -1.059129999999999933e-01 8.716599999999999349e-02 -1.354190000000000116e-01 -3.697460000000000191e-01 2.214400000000000049e-02 -8.260299999999999587e-02 1.312100000000000072e-02 -9.470699999999999952e-02 -9.375699999999999312e-02 3.208289999999999753e-01 1.093289999999999956e-01 -2.686270000000000047e-01 -4.580900000000000249e-02 1.308799999999999963e-01 2.225399999999999948e-02 -3.590200000000000058e-01 2.421590000000000131e-01 3.609899999999999914e-02 4.434999999999999706e-03 3.034470000000000223e-01 2.514159999999999728e-01 -2.197800000000000101e-02 4.134000000000000175e-02 2.237830000000000097e-01 5.304799999999999793e-02
-5.305999999999999953e-03 1.019179999999999947e-01 1.232899999999999968e-02 -1.474100000000000063e-02 3.258599999999999691e-02 1.825370000000000048e-01 -2.534999999999999927e-03 8.583100000000000451e-02 1.101769999999999972e-01 -7.030999999999999923e-03 -1.044110000000000038e-01 -7.093299999999999605e-02 -1.744040000000000035e-01 -2.372600000000000056e-02 7.810000000000000102e-04 8.597999999999999740e-03 -2.015199999999999977e-02 1.482080000000000064e-01 1.022350000000000064e-01 -1.798889999999999934e-01 1.570380000000000109e-01 -4.195999999999999730e-02 1.131199999999999983e-01 4.283000000000000348e-03 -9.230000000000000357e-03 -5.687000000000000215e-03 -1.392210000000000114e-01 -5.250200000000000006e-02 -7.852399999999999658e-02 1.516220000000000068e-01 1.196299999999999968e-02 3.664000000000000156e-03 1.221610000000000057e-01 -3.291600000000000081e-02 6.580600000000000338e-02 -2.883900000000000005e-02 -6.321599999999999442e-02 1.103250000000000064e-01 -1.401340000000000086e-01 -9.661400000000000543e-02 5.178599999999999870e-02 -1.897199999999999928e-02 7.733199999999999796e-02 -8.463800000000000490e-02 -1.590610000000000079e-01 -2.818500000000000172e-02 2.968600000000000058e-02 1.957530000000000103e-01 1.133129999999999971e-01 -1.941070000000000018e-01 7.433900000000000230e-02 -7.878599999999999492e-02 9.527099999999999458e-02 1.048100000000000073e-02 3.755399999999999711e-02 7.599999999999999811e-02 -2.093899999999999928e-02 -1.627290000000000125e-01 1.286660000000000026e-01 9.695399999999999852e-02 -4.719000000000000278e-02 -1.233749999999999986e-01 -6.556800000000000128e-02 8.832099999999999673e-02 1.642700000000000063e-02 1.365909999999999902e-01 -1.827199999999999935e-01 -1.404749999999999888e-01 -3.353199999999999931e-02 -7.705199999999999549e-02 -1.431999999999999896e-03 8.551999999999999880e-02 -1.439580000000000026e-01 -6.383900000000000685e-02 -1.585200000000000151e-02 1.374720000000000109e-01 -3.886099999999999971e-02 -1.173440000000000039e-01 -4.119799999999999851e-02 -1.550200000000000015e-02 2.588630000000000098e-01 -3.295100000000000112e-02 1.186539999999999956e-01 5.507299999999999696e-02 -1.475829999999999920e-01 1.103299999999999940e-02 2.166569999999999885e-01 4.175700000000000245e-02 8.232699999999999740e-02 -6.926300000000000512e-02 -1.042389999999999983e-01 4.244799999999999962e-02 3.281799999999999995e-02 -8.984999999999999931e-03 1.657000000000000139e-02 3.006110000000000171e-01 -1.019560000000000050e-01 8.619799999999999685e-02 1.661400000000000030e-02 -1.989769999999999872e-01 -3.432500000000000134e-02 3.438499999999999890e-02 -5.969000000000000347e-03 -2.014150000000000107e-01 -3.661500000000000171e-02 -6.224899999999999878e-02 -4.283499999999999808e-02 -1.278289999999999982e-01 1.934379999999999988e-01 -1.624710000000000043e-01 -7.837399999999999922e-02 8.698999999999999788e-02 -5.933800000000000185e-02 -2.913640000000000119e-01 -1.788000000000000093e-03 -7.102400000000000380e-02 2.342289999999999928e-01 8.809100000000000263e-02 -1.978099999999999997e-02 -1.796310000000000129e-01 -2.865389999999999882e-01 1.334750000000000103e-01 1.588900000000000035e-02 8.592199999999999838e-02 -8.512300000000000422e-02 -3.326279999999999792e-01 -2.510970000000000146e-01 4.097009999999999819e-01 -2.263169999999999904e-01 1.010100000000000060e-02 -3.526000000000000054e-03 2.071429999999999938e-01 2.464510000000000034e-01 2.146500000000000144e-02 -8.011200000000000265e-02 1.116420000000000051e-01 -1.981099999999999875e-02 -1.300360000000000127e-01 1.070279999999999981e-01 -1.675659999999999927e-01 -4.556870000000000087e-01 2.508700000000000166e-02 -1.016169999999999990e-01 1.686500000000000152e-02 -1.196099999999999941e-01 -1.157640000000000058e-01 3.961970000000000214e-01 1.323910000000000087e-01 -3.327510000000000190e-01 -5.674799999999999983e-02 1.603110000000000090e-01 2.819500000000000131e-02 -4.436280000000000223e-01 2.965709999999999735e-01 4.488899999999999835e-02 5.858999999999999625e-03 3.725570000000000270e-01 3.094470000000000276e-01 -2.665800000000000114e-02 4.970800000000000218e-02 2.764920000000000155e-01 6.520399999999999807e-02
-6.080999999999999600e-03 1.208769999999999983e-01 1.287499999999999929e-02 -1.918600000000000166e-02 3.889700000000000102e-02 2.162840000000000040e-01 -2.249000000000000131e-03 1.008679999999999993e-01 1.303449999999999886e-01 -9.305000000000000770e-03 -1.237449999999999939e-01 -8.416099999999999970e-02 -2.075599999999999945e-01 -2.897599999999999829e-02 -1.595999999999999979e-03 1.004700000000000037e-02 -2.389399999999999857e-02 1.741429999999999922e-01 1.209039999999999976e-01 -2.112819999999999976e-01 1.832370000000000110e-01 -4.889399999999999996e-02 1.345079999999999887e-01 4.974000000000000123e-03 -1.127500000000000030e-02 -6.330999999999999822e-03 -1.664120000000000044e-01 -6.743200000000000582e-02 -9.446100000000000330e-02 1.773699999999999999e-01 7.492999999999999661e-03 4.707000000000000246e-03 1.437400000000000067e-01 -4.481899999999999773e-02 7.795900000000000052e-02 -3.470600000000000074e-02 -8.031900000000000150e-02 1.313469999999999915e-01 -1.671420000000000128e-01 -1.196070000000000050e-01 6.052600000000000341e-02 -2.390499999999999917e-02 8.631800000000000583e-02 -9.978700000000000070e-02 -1.903430000000000122e-01 -4.005399999999999933e-02 3.456300000000000344e-02 2.304380000000000039e-01 1.291349999999999998e-01 -2.291479999999999906e-01 8.655599999999999405e-02 -9.944999999999999674e-02 1.141759999999999997e-01 1.078999999999999924e-02 5.016600000000000226e-02 8.968600000000000183e-02 -2.529700000000000004e-02 -1.866750000000000076e-01 1.533899999999999986e-01 1.163880000000000053e-01 -4.879499999999999810e-02 -1.461909999999999876e-01 -7.744299999999999795e-02 1.113320000000000004e-01 1.912399999999999864e-02 1.632419999999999982e-01 -2.119240000000000013e-01 -1.660429999999999962e-01 -4.002200000000000202e-02 -8.561900000000000066e-02 -2.181999999999999912e-03 1.004379999999999995e-01 -1.646009999999999973e-01 -7.546799999999999342e-02 -1.809399999999999897e-02 1.698330000000000117e-01 -4.692700000000000343e-02 -1.372259999999999869e-01 -4.340600000000000014e-02 -1.791299999999999837e-02 3.082650000000000112e-01 -3.978999999999999898e-02 1.417859999999999954e-01 6.475200000000000400e-02 -1.759819999999999995e-01 1.217299999999999979e-02 2.577490000000000059e-01 4.827599999999999947e-02 9.708799999999999375e-02 -8.119500000000000328e-02 -1.227120000000000016e-01 5.109299999999999953e-02 3.973899999999999655e-02 -1.098200000000000044e-02 1.989300000000000096e-02 3.582330000000000236e-01 -1.197109999999999980e-01 1.018420000000000020e-01 1.984599999999999906e-02 -2.360949999999999993e-01 -4.137799999999999812e-02 4.174499999999999739e-02 -6.733000000000000269e-03 -2.384950000000000125e-01 -4.190900000000000181e-02 -7.247900000000000176e-02 -4.968199999999999700e-02 -1.511429999999999996e-01 2.311249999999999971e-01 -1.913809999999999956e-01 -9.201800000000000257e-02 1.045750000000000013e-01 -7.159999999999999698e-02 -3.438820000000000210e-01 1.999999999999999909e-06 -8.404499999999999471e-02 2.753579999999999917e-01 1.055780000000000052e-01 -2.379099999999999965e-02 -2.113760000000000083e-01 -3.376149999999999984e-01 1.578670000000000073e-01 1.745299999999999976e-02 1.039260000000000045e-01 -9.978299999999999670e-02 -3.917889999999999984e-01 -2.963359999999999883e-01 4.833950000000000191e-01 -2.651470000000000216e-01 1.412099999999999987e-02 -3.723000000000000181e-03 2.444389999999999896e-01 2.934109999999999774e-01 2.527499999999999886e-02 -9.412299999999999833e-02 1.301480000000000137e-01 -2.457000000000000156e-02 -1.528130000000000044e-01 1.267659999999999898e-01 -1.985609999999999875e-01 -5.374320000000000208e-01 2.786800000000000041e-02 -1.196610000000000035e-01 2.084700000000000095e-02 -1.434930000000000094e-01 -1.368010000000000059e-01 4.682490000000000263e-01 1.544119999999999937e-01 -3.944969999999999866e-01 -6.716300000000000048e-02 1.889029999999999876e-01 3.406100000000000100e-02 -5.245499999999999607e-01 3.485539999999999750e-01 5.354799999999999838e-02 7.438000000000000167e-03 4.387630000000000141e-01 3.646940000000000182e-01 -3.094399999999999928e-02 5.810099999999999987e-02 3.270770000000000066e-01 7.679199999999999915e-02