3.475543397746347352e-01 2.531613297005663927e-04 1.680249828174780635e+00 2.531613297005663927e-04 1.494375163318200639e-01 1.808295212146902902e-05 1.680249828174780635e+00 1.808295212146902902e-05 -2.812260713930863076e-01
3.585126087602449330e-01 1.358572192885968144e-01 1.637375148694777627e+00 1.358572192885968144e-01 1.414991003504951494e-01 -3.041552546831090970e-02 1.637375148694777627e+00 -3.041552546831090970e-02 -2.886581647150101015e-01
3.846605575278891909e-01 2.714793601996145500e-01 1.594102644268102109e+00 2.714793601996145500e-01 1.506129082197155411e-01 -6.086721684086475459e-02 1.594102644268102109e+00 -6.086721684086475459e-02 -2.749693699590580742e-01
4.254556975139233144e-01 4.061611876003158872e-01 1.550613144415969424e+00 4.061611876003158872e-01 1.764172808970518314e-01 -9.130082526129712495e-02 1.550613144415969424e+00 -9.130082526129712495e-02 -2.405755950240239527e-01
4.795779732134801132e-01 5.389623879803844275e-01 1.507250225228686569e+00 5.389623879803844275e-01 2.175559969733938948e-01 -1.216982677774865601e-01 1.507250225228686569e+00 -1.216982677774865601e-01 -1.871585544572044457e-01
5.452914212228985313e-01 6.689245648773823882e-01 1.464429794605047963e+00 6.689245648773823882e-01 2.721845953323517864e-01 -1.520233784851901526e-01 1.464429794605047963e+00 -1.520233784851901526e-01 -1.175391887895486931e-01
6.205707509045741421e-01 7.951254877331146442e-01 1.422585843395968386e+00 7.951254877331146442e-01 3.381873705757137416e-01 -1.822580744322863655e-01 1.422585843395968386e+00 -1.822580744322863655e-01 -3.464693626473466098e-02
7.030651784827157691e-01 9.167333407499937969e-01 1.382224694260849596e+00 9.167333407499937969e-01 4.130327094064740745e-01 -2.124204385708967080e-01 1.382224694260849596e+00 -2.124204385708967080e-01 5.763036841112179759e-02
7.904058372294112678e-01 1.032934391082553693e+00 1.343798421002727839e+00 1.032934391082553693e+00 4.941528326233841639e-01 -2.425828027095070227e-01 1.343798421002727839e+00 -2.425828027095070227e-01 1.559112131913059918e-01
8.800791967997761978e-01 1.143023403598057319e+00 1.307813346281004652e+00 1.143023403598057319e+00 5.788533803603450600e-01 -2.727451668481173375e-01 1.307813346281004652e+00 -2.727451668481173375e-01 2.561088508963658694e-01
1.960378641750344642e+01 5.557582062367067977e+00 -8.234983674883181948e+00 5.557582062367067977e+00 2.678061897386429635e+00 4.994930125173532076e+00 -8.234983674883181948e+00 4.994930125173532076e+00 1.215202551757307248e+01
1.960444670237376030e+01 5.646756210933660647e+00 -8.197490201571513424e+00 5.646756210933660647e+00 2.727369116215625500e+00 4.985364917322483436e+00 -8.197490201571513424e+00 4.985364917322483436e+00 1.221580546693809133e+01
1.959138376926374647e+01 5.730380397482200294e+00 -8.133264113780604987e+00 5.730380397482200294e+00 2.779478084359402246e+00 4.968036900860973937e+00 -8.133264113780604987e+00 4.968036900860973937e+00 1.224692808352807205e+01
1.956383026008087356e+01 5.808044174660869530e+00 -8.042965696380774077e+00 5.808044174660869530e+00 2.833550061577088108e+00 4.942517782900151424e+00 -8.042965696380774077e+00 4.942517782900151424e+00 1.224450109049123903e+01
1.952087605243632851e+01 5.879319249580816198e+00 -7.927380153001581498e+00 5.879319249580816198e+00 2.888300169202124401e+00 4.908343579477092433e+00 -7.927380153001581498e+00 4.908343579477092433e+00 1.220693623503142788e+01
1.946134334088576878e+01 5.943705947205042861e+00 -7.787471142642949040e+00 5.943705947205042861e+00 2.942140154438348087e+00 4.864889696795552609e+00 -7.787471142642949040e+00 4.864889696795552609e+00 1.213225266253769341e+01
1.938378663692931170e+01 6.000793820181734795e+00 -7.624202324304795830e+00 6.000793820181734795e+00 2.992857170693352220e+00 4.811656459818537179e+00 -7.624202324304795830e+00 4.811656459818537179e+00 1.201777354245470519e+01
1.928658199669672513e+01 6.050118884547967646e+00 -7.438465974838895711e+00 6.050118884547967646e+00 3.038238371374729851e+00 4.748072811360909640e+00 -7.438465974838895711e+00 4.748072811360909640e+00 1.186071497100492067e+01
1.916801624863260045e+01 6.091217156340816175e+00 -7.231154371097030520e+00 6.091217156340816175e+00 3.075767535760470128e+00 4.673532003163459514e+00 -7.231154371097030520e+00 4.673532003163459514e+00 1.165788259705897367e+01
1.902628699349634189e+01 6.123678188208462991e+00 -7.002963489023581900e+00 6.123678188208462991e+00 3.102696451147100021e+00 4.587445132504015533e+00 -7.002963489023581900e+00 4.587445132504015533e+00 1.140586792304308084e+01
-3.085441904159354465e+01 -8.567436996002881777e-01 1.320528268274056138e+01 -8.567436996002881777e-01 -1.507786179135603000e+01 -4.055869654861914420e+00 1.320528268274056138e+01 -4.055869654861914420e+00 -1.987504142131304974e+01
-3.082781058984319955e+01 -8.991905154877467554e-01 1.320267401100033133e+01 -8.991905154877467554e-01 -1.519228931390426318e+01 -4.026708431480056305e+00 1.320267401100033133e+01 -4.026708431480056305e+00 -2.000105889973573525e+01
-3.076037642535825256e+01 -9.409665300705748470e-01 1.318187917055678327e+01 -9.409665300705748470e-01 -1.527461154067809801e+01 -3.994677669183944513e+00 1.318187917055678327e+01 -3.994677669183944513e+00 -2.003895917344736333e+01
-3.065161344716022995e+01 -9.815313756311530025e-01 1.314265592760546397e+01 -9.815313756311530025e-01 -1.532339370222040209e+01 -3.959721467864861122e+00 1.314265592760546397e+01 -3.959721467864861122e+00 -1.998879814255665366e+01
-3.050245332372778861e+01 -1.020437851299727861e+00 1.308476204834192913e+01 -1.020437851299727861e+00 -1.533884076559647980e+01 -3.921765294044512462e+00 1.308476204834192913e+01 -3.921765294044512462e+00 -1.985098574119421500e+01
-3.031462895843121430e+01 -1.057238756206545283e+00 1.300799256570087259e+01 -1.057238756206545283e+00 -1.532182849917626299e+01 -3.880622814027169465e+00 1.300799256570087259e+01 -3.880622814027169465e+00 -1.962762754012179656e+01
-3.009004095496697673e+01 -1.091486889481852351e+00 1.291227294620400023e+01 -1.091486889481852351e+00 -1.527349353850371294e+01 -3.835902727051796024e+00 1.291227294620400023e+01 -3.835902727051796024e+00 -1.932140674455792606e+01
-2.983090668431426096e+01 -1.122753683625467458e+00 1.279739822278601125e+01 -1.122753683625467458e+00 -1.519530791977510198e+01 -3.787250999096504422e+00 1.279739822278601125e+01 -3.787250999096504422e+00 -1.893491339287326269e+01
-2.953931308386525245e+01 -1.150685104615502663e+00 1.266316342838159770e+01 -1.150685104615502663e+00 -1.508865051233883747e+01 -3.734145895813248739e+00 1.266316342838159770e+01 -3.734145895813248739e+00 -1.847138969137351694e+01
-2.921762659155573516e+01 -1.174852584951777468e+00 1.250936359592546054e+01 -1.174852584951777468e+00 -1.495516105271734730e+01 -3.675991149375690270e+00 1.250936359592546054e+01 -3.675991149375690270e+00 -1.793350021190763854e+01
-1.765292224668559840e+01 7.235817861914118687e+00 -5.953760923367480196e+00 7.235817861914118687e+00 -1.261069713289362504e+01 -1.002604586214556548e+01 -5.953760923367480196e+00 -1.002604586214556548e+01 -1.316806429839189185e+01
-1.761573739659430515e+01 7.174887802642072820e+00 -6.021770299662360770e+00 7.174887802642072820e+00 -1.256722570180028598e+01 -1.001767604462377648e+01 -6.021770299662360770e+00 -1.001767604462377648e+01 -1.305944102782278726e+01
-1.755215259343869860e+01 7.107652726646565000e+00 -6.074238362805550295e+00 7.107652726646565000e+00 -1.249790738928503941e+01 -9.994244242707052805e+00 -6.074238362805550295e+00 -9.994244242707052805e+00 -1.289197093450137466e+01
-1.746167007274060268e+01 7.034407605470214264e+00 -6.111201984239877483e+00 7.034407605470214264e+00 -1.240252096669091841e+01 -9.955473920574190672e+00 -6.111201984239877483e+00 -9.955473920574190672e+00 -1.266742384768336294e+01
-1.734537754206342441e+01 6.955484282098464810e+00 -6.132624292522516285e+00 6.955484282098464810e+00 -1.228224632018839912e+01 -9.901033235239740549e+00 -6.132624292522516285e+00 -9.901033235239740549e+00 -1.238755116090305108e+01
-1.720439958041340134e+01 6.871177728073936564e+00 -6.138413109046394922e+00 6.871177728073936564e+00 -1.213841082171925834e+01 -9.830498165111192677e+00 -6.138413109046394922e+00 -9.830498165111192677e+00 -1.205474951794420768e+01
-1.704019260978219918e+01 6.781746043496418075e+00 -6.128513126647276543e+00 6.781746043496418075e+00 -1.197293178631051802e+01 -9.743444688596035519e+00 -6.128513126647276543e+00 -9.743444688596035519e+00 -1.167115746249081276e+01
-1.685434210221139750e+01 6.687594814237011853e+00 -6.102905909603744128e+00 6.687594814237011853e+00 -1.178763435038212570e+01 -9.639338169773267850e+00 -6.102905909603744128e+00 -9.639338169773267850e+00 -1.124046213882559542e+01
-1.664858101551387648e+01 6.588963704674092092e+00 -6.061536150751559049e+00 6.588963704674092092e+00 -1.158463862189664972e+01 -9.517551794114829988e+00 -6.061536150751559049e+00 -9.517551794114829988e+00 -1.076541046943918545e+01
-1.642449482173120856e+01 6.486166122071693074e+00 -6.004348542926480015e+00 6.486166122071693074e+00 -1.136597253020958576e+01 -9.377458747092656921e+00 -6.004348542926480015e+00 -9.377458747092656921e+00 -1.024898904120058951e+01
3.183900154409769456e+01 5.054997171319738136e+00 1.208905028272403470e+01 5.054997171319738136e+00 -1.490814682228157473e+01 -1.679959446146835234e+01 1.208905028272403470e+01 -1.679959446146835234e+01 1.797012229126449867e+01
3.175835821950263949e+01 5.072275325901050458e+00 1.205390311438920037e+01 5.072275325901050458e+00 -1.480798724018016443e+01 -1.669905887807553313e+01 1.205390311438920037e+01 -1.669905887807553313e+01 1.799350599062532297e+01
3.164120695999432087e+01 5.080654783252401607e+00 1.199644653609756162e+01 5.080654783252401607e+00 -1.470354840528607454e+01 -1.656783442737456369e+01 1.199644653609756162e+01 -1.656783442737456369e+01 1.795685481712486009e+01
3.148826395850875315e+01 5.080028114433390307e+00 1.191696702502352601e+01 5.080028114433390307e+00 -1.459606575041393306e+01 -1.640631501548024218e+01 1.191696702502352601e+01 -1.640631501548024218e+01 1.785875428971448997e+01
3.130035283692236092e+01 5.070287890503614392e+00 1.181601963069250161e+01 5.070287890503614392e+00 -1.448734766272716890e+01 -1.621478711956698504e+01 1.181601963069250161e+01 -1.621478711956698504e+01 1.769915069392400397e+01
3.107799283511374711e+01 5.051505730756675305e+00 1.169426683157030133e+01 5.051505730756675305e+00 -1.437963224515082317e+01 -1.599362674092618519e+01 1.169426683157030133e+01 -1.599362674092618519e+01 1.747790079116620277e+01
3.082175690743171614e+01 5.023824873779775047e+00 1.155242482059293962e+01 5.023824873779775047e+00 -1.427547988743114082e+01 -1.574315616637906068e+01 1.155242482059293962e+01 -1.574315616637906068e+01 1.719505829591129498e+01
3.053209267446128194e+01 4.987513891923918585e+00 1.139135302928362847e+01 4.987513891923918585e+00 -1.417788069507597903e+01 -1.546362606345321211e+01 1.139135302928362847e+01 -1.546362606345321211e+01 1.685035463580826587e+01
3.020942985196404607e+01 4.942948786480513057e+00 1.121198250845918842e+01 4.942948786480513057e+00 -1.408977105912298633e+01 -1.515534081414643985e+01 1.121198250845918842e+01 -1.515534081414643985e+01 1.644436276520593054e+01
2.985419815570162783e+01 4.890577178034567041e+00 1.101508316552583011e+01 4.890577178034567041e+00 -1.401419479955021963e+01 -1.481815717987154812e+01 1.101508316552583011e+01 -1.481815717987154812e+01 1.597572191752586335e+01
-1.038080125000717402e+01 9.363024951420198860e+00 -3.694059956333461514e+00 9.363024951420198860e+00 1.758627349343937141e+01 -2.003885714061778955e+01 -3.694059956333461514e+00 -2.003885714061778955e+01 -3.174714396444933140e+00
-1.049078030974827591e+01 9.402414230048709243e+00 -3.707310227666503533e+00 9.402414230048709243e+00 1.743741130458862187e+01 -1.996309740370540453e+01 -3.707310227666503533e+00 -1.996309740370540453e+01 -3.537858599459226205e+00
-1.057608458044489730e+01 9.434211265894303367e+00 -3.706623310462334508e+00 9.434211265894303367e+00 1.728088456588083233e+01 -1.984324842834651292e+01 -3.706623310462334508e+00 -1.984324842834651292e+01 -3.892344030347289596e+00
-1.063595483781875117e+01 9.458361828651389303e+00 -3.692053435026547703e+00 9.458361828651389303e+00 1.711822980264111749e+01 -1.967988867113410123e+01 -3.692053435026547703e+00 -1.967988867113410123e+01 -4.236128014265146291e+00
-1.067109607584253439e+01 9.474757457708781416e+00 -3.663781369044450731e+00 9.474757457708781416e+00 1.695002547146246386e+01 -1.947379543311499006e+01 -3.663781369044450731e+00 -1.947379543311499006e+01 -4.568017484489768520e+00
-1.068250251678543883e+01 9.483271615686765799e+00 -3.621969803432818935e+00 9.483271615686765799e+00 1.677670541478960686e+01 -1.922581832241012023e+01 -3.621969803432818935e+00 -1.922581832241012023e+01 -4.887777443030254076e+00
-1.067136722737049581e+01 9.483976609659466206e+00 -3.566889889719615514e+00 9.483976609659466206e+00 1.659845040030785412e+01 -1.893687925421456697e+01 -3.566889889719615514e+00 -1.893687925421456697e+01 -5.195136738358645090e+00
-1.063928096322840844e+01 9.476890516395410913e+00 -3.498885086506923425e+00 9.476890516395410913e+00 1.641554965631369711e+01 -1.860800860433458226e+01 -3.498885086506923425e+00 -1.860800860433458226e+01 -5.490384598771430369e+00
-1.058788871029547884e+01 9.462103719737255503e+00 -3.418208468554173596e+00 9.462103719737255503e+00 1.622807548988125603e+01 -1.824016444150229077e+01 -3.418208468554173596e+00 -1.824016444150229077e+01 -5.773756022259512122e+00
-1.051901622219330967e+01 9.439724680296182058e+00 -3.325167340926388437e+00 9.439724680296182058e+00 1.603606405454760164e+01 -1.783428675768129779e+01 -3.325167340926388437e+00 -1.783428675768129779e+01 -6.045775235110280477e+00
3.074106992242031655e+00 1.080582676391670027e+01 5.089761489600400424e+00 1.080582676391670027e+01 2.170437785273133002e+01 -5.607892903843422872e+00 5.089761489600400424e+00 -5.607892903843422872e+00 -3.043135193050814280e+01
3.139882859573397855e+00 1.082217609569788586e+01 5.073538337888088279e+00 1.082217609569788586e+01 2.175567906359049175e+01 -5.552662085125059654e+00 5.073538337888088279e+00 -5.552662085125059654e+00 -3.026272128132071515e+01
3.260312722451133460e+00 1.083463187106811887e+01 5.053115192454698423e+00 1.083463187106811887e+01 2.184827720841954246e+01 -5.486255317449326263e+00 5.053115192454698423e+00 -5.486255317449326263e+00 -2.997526505870265012e+01
3.433774265704006901e+00 1.084295975561377290e+01 5.027771024335240924e+00 1.084295975561377290e+01 2.198009932894414931e+01 -5.408221957713101880e+00 5.027771024335240924e+00 -5.408221957713101880e+00 -2.957226394444467843e+01
3.658969637195033986e+00 1.084685331202472724e+01 4.997073216150720754e+00 1.084685331202472724e+01 2.214968534151019242e+01 -5.318471877295761985e+00 4.997073216150720754e+00 -5.318471877295761985e+00 -2.905634969426900582e+01
3.934528881890729135e+00 1.084602412871498522e+01 4.960372841832643154e+00 1.084602412871498522e+01 2.235514254508457199e+01 -5.216842844680184221e+00 4.960372841832643154e+00 -5.216842844680184221e+00 -2.843206479065508319e+01
4.258757581723363828e+00 1.084016576837442969e+01 4.917093078209017420e+00 1.084016576837442969e+01 2.259488467594430716e+01 -5.103406962762868204e+00 4.917093078209017420e+00 -5.103406962762868204e+00 -2.770323068711736880e+01
4.629168186763715553e+00 1.082888166507230920e+01 4.866639076383725282e+00 1.082888166507230920e+01 2.286595551533293147e+01 -4.978092128647314318e+00 4.866639076383725282e+00 -4.978092128647314318e+00 -2.687368686289443787e+01
5.043435378599684604e+00 1.081193748439500446e+01 4.808361910288271979e+00 1.081193748439500446e+01 2.316611987345896395e+01 -4.840952419505896387e+00 4.808361910288271979e+00 -4.840952419505896387e+00 -2.594936378122335441e+01
5.499828687715294429e+00 1.078895468613589514e+01 4.741720808198915726e+00 1.078895468613589514e+01 2.349352110073756350e+01 -4.692095989683363833e+00 4.741720808198915726e+00 -4.692095989683363833e+00 -2.493485800175593070e+01
6.683088183113289915e+01 -2.841917615088963789e+00 1.679974250528140800e+01 -2.841917615088963789e+00 5.924575588313481234e+01 -1.720540202585516099e+01 1.679974250528140800e+01 -1.720540202585516099e+01 7.608889772602076107e+01
6.685768730435924567e+01 -2.883167140304429221e+00 1.672327300678547601e+01 -2.883167140304429221e+00 5.902713004041097378e+01 -1.707286945115026100e+01 1.672327300678547601e+01 -1.707286945115026100e+01 7.584879055481542309e+01
6.675332063103314795e+01 -2.917345798208937691e+00 1.660988719867081542e+01 -2.917345798208937691e+00 5.869177610312384274e+01 -1.688504638906371724e+01 1.660988719867081542e+01 -1.688504638906371724e+01 7.530010132873071882e+01
6.651825208261472255e+01 -2.944100885207405316e+00 1.645995457994179745e+01 -2.944100885207405316e+00 5.824286840362915285e+01 -1.664327647233870877e+01 1.645995457994179745e+01 -1.664327647233870877e+01 7.444654183321965490e+01
6.615234729582965656e+01 -2.963298038025515169e+00 1.627419735319788430e+01 -2.963298038025515169e+00 5.768292625332035328e+01 -1.634957515008999351e+01 1.627419735319788430e+01 -1.634957515008999351e+01 7.329200860323744848e+01
6.565533754412929568e+01 -2.974819688798238548e+00 1.605369042463361495e+01 -2.974819688798238548e+00 5.701403228294937264e+01 -1.600664648321320982e+01 1.605369042463361495e+01 -1.600664648321320982e+01 7.184214489630541323e+01
6.503231183652845004e+01 -2.978733019162735030e+00 1.579987819944790317e+01 -2.978733019162735030e+00 5.624312299655285585e+01 -1.561739607751547787e+01 1.579987819944790317e+01 -1.561739607751547787e+01 7.010848915860557895e+01
6.428622616506207521e+01 -2.975239574030480671e+00 1.551454099102544859e+01 -2.975239574030480671e+00 5.537505226741550501e+01 -1.518563649090555323e+01 1.551454099102544859e+01 -1.518563649090555323e+01 6.810273099500356864e+01
6.342255583315861855e+01 -2.964725647815138032e+00 1.520019811075970928e+01 -2.964725647815138032e+00 5.441658864548105612e+01 -1.471581850684520454e+01 1.520019811075970928e+01 -1.471581850684520454e+01 6.584255597148141703e+01
6.244953059137002072e+01 -2.947577534930370113e+00 1.485963759659277628e+01 -2.947577534930370113e+00 5.337670087931023488e+01 -1.421291356648417548e+01 1.485963759659277628e+01 -1.421291356648417548e+01 6.334847128278182282e+01
-1.040802673531956657e+01 7.838774708701666150e+00 1.941768601030831931e+01 7.838774708701666150e+00 3.805669014670920092e+01 4.195617852466669184e+00 1.941768601030831931e+01 4.195617852466669184e+00 3.037069051804393283e+01
-1.035127154851837794e+01 7.816360587011626393e+00 1.951798964924321211e+01 7.816360587011626393e+00 3.799696655521155009e+01 4.334866250023984513e+00 1.951798964924321211e+01 4.334866250023984513e+00 3.034836527074600454e+01
-1.029144130775019761e+01 7.785912220274878059e+00 1.958823596876663586e+01 7.785912220274878059e+00 3.785864245133218020e+01 4.459574797032170856e+00 1.958823596876663586e+01 4.459574797032170856e+00 3.021476928452685584e+01
-1.022946030669296569e+01 7.747767331181440120e+00 1.962826499497279897e+01 7.747767331181440120e+00 3.764267767850585500e+01 4.569441320558054187e+00 1.962826499497279897e+01 4.569441320558054187e+00 2.997020473231967230e+01
-1.016699938391834124e+01 7.702388066570279967e+00 1.963781010468536792e+01 7.702388066570279967e+00 3.735038757773581608e+01 4.664305846695836699e+00 1.963781010468536792e+01 4.664305846695836699e+00 2.961591585561397366e+01
-1.010617374995853268e+01 7.650254348158790130e+00 1.961651580033591102e+01 7.650254348158790130e+00 3.698358518662109162e+01 4.743972851782879196e+00 1.961651580033591102e+01 4.743972851782879196e+00 2.915311134614245958e+01
-1.004986293511789341e+01 7.591988296691738469e+00 1.956418655826178110e+01 7.591988296691738469e+00 3.654415464227439969e+01 4.808424560940758319e+00 1.956418655826178110e+01 4.808424560940758319e+00 2.858278659709676006e+01
-1.000112421848498911e+01 7.528300907306002543e+00 1.948052020552980679e+01 7.528300907306002543e+00 3.603446000352587220e+01 4.857767623440007121e+00 1.948052020552980679e+01 4.857767623440007121e+00 2.790686129534643456e+01
-9.963210402811036204e+00 7.459974274652145354e+00 1.936526789384208058e+01 7.459974274652145354e+00 3.545716750213877333e+01 4.892197562943263911e+00 1.936526789384208058e+01 4.892197562943263911e+00 2.712627750944784921e+01
-9.939871987443055446e+00 7.387772718502308322e+00 1.921814522514385715e+01 7.387772718502308322e+00 3.481517444329589495e+01 4.912069877018970132e+00 1.921814522514385715e+01 4.912069877018970132e+00 2.624332819871743183e+01
-1.784638931837968912e+01 -9.281668090107752178e+00 2.347039480010340018e+00 -9.281668090107752178e+00 1.555622302692843961e-01 1.211402544582233709e+01 2.347039480010340018e+00 1.211402544582233709e+01 2.908803266167265278e+01
-1.797053069933977199e+01 -9.291754690694308039e+00 2.545306490460836901e+00 -9.291754690694308039e+00 1.582471527275764178e-01 1.224319198570773715e+01 2.545306490460836901e+00 1.224319198570773715e+01 2.890716322309717157e+01
-1.810599229390778575e+01 -9.290521077672931227e+00 2.752154367957091452e+00 -9.290521077672931227e+00 1.213294689260610987e-01 1.234131864501112474e+01 2.752154367957091452e+00 1.234131864501112474e+01 2.863582278249802471e+01
-1.825181260958178342e+01 -9.278166806091196150e+00 2.966567195893262898e+00 -9.278166806091196150e+00 4.406538277831974215e-02 1.240740764849462430e+01 2.966567195893262898e+00 1.240740764849462430e+01 2.827415647081890526e+01
-1.840835447372098344e+01 -9.254982137836483602e+00 3.187093664832437501e+00 -9.254982137836483602e+00 -7.523225293606092268e-02 1.244057006912812291e+01 3.187093664832437501e+00 1.244057006912812291e+01 2.782196473301223705e+01
-1.857656123745939070e+01 -9.221348041635987869e+00 3.412282465337700188e+00 -9.221348041635987869e+00 -2.386315541646841509e-01 1.243997140398539614e+01 3.412282465337700188e+00 1.243997140398539614e+01 2.727864890393529151e+01
-1.875770279655429462e+01 -9.177790617160589193e+00 3.640718570708059154e+00 -9.177790617160589193e+00 -4.481280713833076246e-01 1.240503112929167706e+01 3.640718570708059154e+00 1.240503112929167706e+01 2.664390058033272979e+01
-1.895332116728242156e+01 -9.124781539977282918e+00 3.871077661082330312e+00 -9.124781539977282918e+00 -7.056629309638045022e-01 1.233527756947996856e+01 3.871077661082330312e+00 1.233527756947996856e+01 2.591697596611812315e+01
-1.916546632422341290e+01 -9.062919475228797594e+00 4.102053557967288988e+00 -9.062919475228797594e+00 -1.013340531589701055e+00 1.223042046266288629e+01 4.102053557967288988e+00 1.223042046266288629e+01 2.509653260006233211e+01
-1.939595240417341415e+01 -8.992784946689900138e+00 4.332539637917290243e+00 -8.992784946689900138e+00 -1.372793596377526182e+00 1.209027839516082103e+01 4.332539637917290243e+00 1.209027839516082103e+01 2.418218951343817125e+01
4.367514801300674776e+01 2.861338587066842298e-01 3.893675191744053965e+00 2.861338587066842298e-01 3.328389812394629388e+01 1.143924133900007867e+01 3.893675191744053965e+00 1.143924133900007867e+01 3.108647044138207249e+01
4.362437366974413777e+01 2.177824491372790383e-01 3.815019984684454801e+00 2.177824491372790383e-01 3.311514097009428781e+01 1.133762338324804730e+01 3.815019984684454801e+00 1.133762338324804730e+01 3.079803338088346010e+01
4.353061777123672726e+01 1.488942030599813005e-01 3.732970585510438255e+00 1.488942030599813005e-01 3.291685780830820107e+01 1.121420293835289783e+01 3.732970585510438255e+00 1.121420293835289783e+01 3.039829799018404799e+01
4.339349933673696569e+01 8.004059159609601404e-02 3.647907974969542444e+00 8.004059159609601404e-02 3.268962010970933108e+01 1.106920512930181388e+01 3.647907974969542444e+00 1.106920512930181388e+01 2.988838989421973835e+01
4.321248152973696932e+01 1.189698970716529004e-02 3.560403624183070104e+00 1.189698970716529004e-02 3.243398202811228259e+01 1.090264727340150053e+01 3.560403624183070104e+00 1.090264727340150053e+01 2.926983301598066944e+01
4.298702751372884023e+01 -5.487854495197497240e-02 3.471011686965621568e+00 -5.487854495197497240e-02 3.215013405389081669e+01 1.071456400526536790e+01 3.471011686965621568e+00 1.071456400526536790e+01 2.854446298997771336e+01
4.271656581759127391e+01 -1.196279547264888221e-01 3.380476807505563119e+00 -1.196279547264888221e-01 3.183807618704493692e+01 1.050481678643977013e+01 3.380476807505563119e+00 1.050481678643977013e+01 2.771295519117240147e+01
4.240029984521578399e+01 -1.816758646548341516e-01 3.289474360764436778e+00 -1.816758646548341516e-01 3.149742744682710693e+01 1.027323244385764234e+01 3.289474360764436778e+00 1.027323244385764234e+01 2.677752623482313510e+01
4.203802178892190256e+01 -2.404334863089997998e-01 3.198783625544022513e+00 -2.404334863089997998e-01 3.112806661209038595e+01 1.001953390061168747e+01 3.198783625544022513e+00 1.001953390061168747e+01 2.573836661130367887e+01
4.162896968721454982e+01 -2.952600793408561852e-01 3.109114611419274699e+00 -2.952600793408561852e-01 3.072931830787322482e+01 9.743426762487898074e+00 3.109114611419274699e+00 9.743426762487898074e+00 2.459764098395230647e+01
-3.114099076232453100e+01 -5.866944736142500894e-01 -1.681134223256905358e+01 -5.866944736142500894e-01 -3.203562025629639720e+01 -6.538415986723515871e-01 -1.681134223256905358e+01 -6.538415986723515871e-01 -2.538630321141240387e+01
-3.111863350076941970e+01 -6.864639887426550180e-01 -1.673206530427464855e+01 -6.864639887426550180e-01 -3.207701980212464576e+01 -6.209555172273458767e-01 -1.673206530427464855e+01 -6.209555172273458767e-01 -2.542436894486048971e+01
-3.106195869030663914e+01 -7.848208715065836394e-01 -1.662519495712747641e+01 -7.848208715065836394e-01 -3.207718931800837936e+01 -5.898776052088697819e-01 -1.662519495712747641e+01 -5.898776052088697819e-01 -2.536541508751635021e+01
-3.097021292700845763e+01 -8.816521113168780399e-01 -1.649054284014560423e+01 -8.816521113168780399e-01 -3.203520588413615400e+01 -5.609092241880114793e-01 -1.649054284014560423e+01 -5.609092241880114793e-01 -2.521111796311916464e+01
-3.084403660421344640e+01 -9.765810062096778044e-01 -1.632799594273987864e+01 -9.765810062096778044e-01 -3.195170989384651605e+01 -5.344459112268241663e-01 -1.632799594273987864e+01 -5.344459112268241663e-01 -2.496215563520388159e+01
-3.068491769467884822e+01 -1.069306194613894867e+00 -1.613738474902655895e+01 -1.069306194613894867e+00 -3.182822699009309986e+01 -5.107325226018173403e-01 -1.613738474902655895e+01 -5.107325226018173403e-01 -2.462156055457957393e+01
-3.049423116057275607e+01 -1.159563985154826504e+00 -1.591857741331829423e+01 -1.159563985154826504e+00 -3.166632048602593485e+01 -4.899762443931138245e-01 -1.591857741331829423e+01 -4.899762443931138245e-01 -2.419189429460049823e+01
-3.027346497465241626e+01 -1.247034181163192201e+00 -1.567131024424038443e+01 -1.247034181163192201e+00 -3.146755369479503628e+01 -4.722712520916789725e-01 -1.567131024424038443e+01 -4.722712520916789725e-01 -2.367635882195946095e+01
-3.002431429575520028e+01 -1.331396585969710111e+00 -1.539531955041812239e+01 -1.331396585969710111e+00 -3.123388546661248100e+01 -4.577117211884776937e-01 -1.539531955041812239e+01 -4.577117211884776937e-01 -2.307693182196673476e+01
-2.974845544762029093e+01 -1.412406343297871070e+00 -1.509022862988765290e+01 -1.412406343297871070e+00 -3.096727465169034588e+01 -4.462788165853171507e-01 -1.509022862988765290e+01 -4.462788165853171507e-01 -2.239822789367959999e+01
-3.957713731309579153e+00 -7.503903106115927812e+00 1.239802970652898795e+00 -7.503903106115927812e+00 -3.127534857705387594e+01 -1.118925251952635058e+01 1.239802970652898795e+00 -1.118925251952635058e+01 -3.449867996206955212e+01
-3.913510830188184020e+00 -7.496588689214576107e+00 1.312128222761421936e+00 -7.496588689214576107e+00 -3.114927259718174213e+01 -1.121061880604734462e+01 1.312128222761421936e+00 -1.121061880604734462e+01 -3.425976095503992980e+01
-3.829032106739756802e+00 -7.483672136213209924e+00 1.384434863122104620e+00 -7.483672136213209924e+00 -3.096639356290012302e+01 -1.121389447366728653e+01 1.384434863122104620e+00 -1.121389447366728653e+01 -3.389452401541623772e+01
-3.705115089617125435e+00 -7.465227894103186657e+00 1.456536774256540934e+00 -7.465227894103186657e+00 -3.072766067334891105e+01 -1.119881895791641213e+01 1.456536774256540934e+00 -1.119881895791641213e+01 -3.340622619907058777e+01
-3.542746201455839294e+00 -7.441162904145307344e+00 1.528192003442802926e+00 -7.441162904145307344e+00 -3.043413479815500366e+01 -1.116513169432494834e+01 1.528192003442802926e+00 -1.116513169432494834e+01 -3.279687757476975207e+01
-3.343004923630654268e+00 -7.411439942843888851e+00 1.599102762715441495e+00 -7.411439942843888851e+00 -3.008723043015429255e+01 -1.111270240065801218e+01 1.599102762715441495e+00 -1.111270240065801218e+01 -3.206982825712503882e+01
-3.106635726055192226e+00 -7.376040398451091384e+00 1.668989875856847549e+00 -7.376040398451091384e+00 -2.968828761519129955e+01 -1.104145662992424448e+01 1.668989875856847549e+00 -1.104145662992424448e+01 -3.122872614871320351e+01
-2.836653711879629114e+00 -7.334908435723392905e+00 1.737611390145094026e+00 -7.334908435723392905e+00 -2.924017256243347163e+01 -1.095118965289739243e+01 1.737611390145094026e+00 -1.095118965289739243e+01 -3.027662357618011058e+01
-2.534678103166096097e+00 -7.288062666408634094e+00 1.804743964606093209e+00 -7.288062666408634094e+00 -2.874539785783929347e+01 -1.084192008132530383e+01 1.804743964606093209e+00 -1.084192008132530383e+01 -2.921969963980882667e+01
-2.202104781002637068e+00 -7.235521702254655629e+00 1.870108423022236455e+00 -7.235521702254655629e+00 -2.820593634667985938e+01 -1.071364791520797510e+01 1.870108423022236455e+00 -1.071364791520797510e+01 -2.806232810034189029e+01