 vasp.6.1.1 19Jun20 (build Dec 21 2021 08:45:49) complex                        
  
 executed on             LinuxIFC date 2023.10.08  04:45:08
 running on   40 total cores
 distrk:  each k-point on   40 cores,    1 groups
 distr:  one band on NCORE=   1 cores,   40 groups


--------------------------------------------------------------------------------------------------------


 INCAR:
 POTCAR:   PAW_PBE Te 08Apr2002                   
 POTCAR:   PAW_PBE Mo 08Apr2002                   
 -----------------------------------------------------------------------------
|                                                                             |
|           W    W    AA    RRRRR   N    N  II  N    N   GGGG   !!!           |
|           W    W   A  A   R    R  NN   N  II  NN   N  G    G  !!!           |
|           W    W  A    A  R    R  N N  N  II  N N  N  G       !!!           |
|           W WW W  AAAAAA  RRRRR   N  N N  II  N  N N  G  GGG   !            |
|           WW  WW  A    A  R   R   N   NN  II  N   NN  G    G                |
|           W    W  A    A  R    R  N    N  II  N    N   GGGG   !!!           |
|                                                                             |
|     For optimal performance we recommend to set                             |
|       NCORE = 4 - approx SQRT(number of cores).                             |
|     NCORE specifies how many cores store one orbital (NPAR=cpu/NCORE).      |
|     This setting can greatly improve the performance of VASP for DFT.       |
|     The default, NCORE=1 might be grossly inefficient on modern             |
|     multi-core architectures or massively parallel machines. Do your        |
|     own testing!!!!                                                         |
|     Unfortunately you need to use the default for GW and RPA                |
|     calculations (for HF NCORE is supported but not extensively tested      |
|     yet).                                                                   |
|                                                                             |
 -----------------------------------------------------------------------------

 POTCAR:   PAW_PBE Te 08Apr2002                   
   VRHFIN =Te: s2p4                                                                                 
   LEXCH  = PE                                                                                      
   EATOM  =   223.2721 eV,   16.4100 Ry                                                             
                                                                                                    
   TITEL  = PAW_PBE Te 08Apr2002                                                                    
   LULTRA =        F    use ultrasoft PP ?                                                          
   IUNSCR =        1    unscreen: 0-lin 1-nonlin 2-no                                               
   RPACOR =    2.200    partial core radius                                                         
   POMASS =  127.600; ZVAL   =    6.000    mass and valenz                                          
   RCORE  =    2.300    outmost cutoff radius                                                       
   RWIGS  =    2.900; RWIGS  =    1.535    wigner-seitz radius (au A)                               
   ENMAX  =  174.982; ENMIN  =  131.236 eV                                                          
   ICORE  =        3    local potential                                                             
   LCOR   =        T    correct aug charges                                                         
   LPAW   =        T    paw PP                                                                      
   EAUG   =  368.792                                                                                
   DEXC   =    -.169                                                                                
   RMAX   =    3.486    core radius for proj-oper                                                   
   RAUG   =    1.300    factor for augmentation sphere                                              
   RDEP   =    2.397    radius for radial grids                                                     
   QCUT   =   -3.586; QGAM   =    7.172    optimization parameters                                  
                                                                                                    
   Description                                                                                      
     l     E      TYP  RCUT    TYP  RCUT                                                            
     0   .000     23  2.300                                                                         
     0   .000     23  2.300                                                                         
     1   .000     23  2.300                                                                         
     1   .000     23  2.300                                                                         
     2   .000     23  2.300                                                                         
     3  -.100     23  2.300                                                                         
  local pseudopotential read in
  partial core-charges read in
  atomic valenz-charges read in
  non local Contribution for L=           0  read in
    real space projection operators read in
  non local Contribution for L=           0  read in
    real space projection operators read in
  non local Contribution for L=           1  read in
    real space projection operators read in
  non local Contribution for L=           1  read in
    real space projection operators read in
  non local Contribution for L=           2  read in
    real space projection operators read in
    PAW grid and wavefunctions read in
 
   number of l-projection  operators is LMAX  =           5
   number of lm-projection operators is LMMAX =          13
 
 POTCAR:   PAW_PBE Mo 08Apr2002                   
   VRHFIN =Mo: 4p5s4d                                                                               
   LEXCH  = PE                                                                                      
   EATOM  =   217.5180 eV,   15.9871 Ry                                                             
                                                                                                    
   TITEL  = PAW_PBE Mo 08Apr2002                                                                    
   LULTRA =        F    use ultrasoft PP ?                                                          
   IUNSCR =        1    unscreen: 0-lin 1-nonlin 2-no                                               
   RPACOR =    2.200    partial core radius                                                         
   POMASS =   95.940; ZVAL   =    6.000    mass and valenz                                          
   RCORE  =    2.750    outmost cutoff radius                                                       
   RWIGS  =    2.750; RWIGS  =    1.455    wigner-seitz radius (au A)                               
   ENMAX  =  224.584; ENMIN  =  168.438 eV                                                          
   RCLOC  =    2.111    cutoff for local pot                                                        
   LCOR   =        T    correct aug charges                                                         
   LPAW   =        T    paw PP                                                                      
   EAUG   =  345.278                                                                                
   DEXC   =    -.088                                                                                
   RMAX   =    3.077    core radius for proj-oper                                                   
   RAUG   =    1.300    factor for augmentation sphere                                              
   RDEP   =    2.815    radius for radial grids                                                     
   QCUT   =   -4.063; QGAM   =    8.126    optimization parameters                                  
                                                                                                    
   Description                                                                                      
     l     E      TYP  RCUT    TYP  RCUT                                                            
     2   .000     23  2.500                                                                         
     2   .000     23  2.500                                                                         
     0   .000     23  2.600                                                                         
     0  1.000     23  2.600                                                                         
     1   .400     23  2.750                                                                         
     1  2.000     23  2.750                                                                         
     3   .000      7   .000                                                                         
  local pseudopotential read in
  partial core-charges read in
  atomic valenz-charges read in
  non local Contribution for L=           2  read in
    real space projection operators read in
  non local Contribution for L=           2  read in
    real space projection operators read in
  non local Contribution for L=           0  read in
    real space projection operators read in
  non local Contribution for L=           0  read in
    real space projection operators read in
  non local Contribution for L=           1  read in
    real space projection operators read in
  non local Contribution for L=           1  read in
    real space projection operators read in
    PAW grid and wavefunctions read in
 
   number of l-projection  operators is LMAX  =           6
   number of lm-projection operators is LMMAX =          18
 
 -----------------------------------------------------------------------------
|                                                                             |
|               ----> ADVICE to this user running VASP <----                  |
|                                                                             |
|     You have a (more or less) 'large supercell' and for larger cells it     |
|     might be more efficient to use real-space projection operators.         |
|     Therefore, try LREAL= Auto in the INCAR file.                           |
|     Mind: If you want to do very accurate calculations, keep the            |
|     reciprocal projection scheme (i.e. LREAL=.FALSE.).                      |
|                                                                             |
 -----------------------------------------------------------------------------

 PAW_PBE Te 08Apr2002                   :
 energy of atom  1       EATOM= -223.2721
 kinetic energy error for atom=    0.0006 (will be added to EATOM!!)
 PAW_PBE Mo 08Apr2002                   :
 energy of atom  2       EATOM= -217.5180
 kinetic energy error for atom=    0.0009 (will be added to EATOM!!)
 
 
 POSCAR: Te Mo
  positions in cartesian coordinates
  No initial velocities read in
 exchange correlation table for  LEXCH =        8
   RHO(1)=    0.500       N(1)  =     2000
   RHO(2)=  100.500       N(2)  =     4000
 


--------------------------------------------------------------------------------------------------------


 ion  position               nearest neighbor table
   1  0.111  0.223  0.321-  37 2.70  38 2.74  41 2.74   5 3.44   9 3.44   2 3.45   3 3.47   7 3.54
                             4 3.55
   2  0.111  0.556  0.321-  38 2.70  39 2.73  42 2.76   7 3.45   6 3.45   3 3.45   1 3.45   5 3.55
                             8 3.55
   3  0.111  0.889  0.321-  39 2.70  37 2.74  40 2.76   8 3.45   2 3.45   4 3.46   1 3.47   9 3.54
                             6 3.54
   4  0.445  0.223  0.321-  40 2.70  41 2.74  44 2.74   8 3.43   6 3.46   3 3.46   5 3.46   7 3.54
                             1 3.55
   5  0.444  0.555  0.321-  41 2.69  42 2.75  45 2.76   1 3.44   9 3.46   4 3.46   6 3.46   8 3.53
                             2 3.55
   6  0.444  0.889  0.321-  42 2.71  40 2.74  43 2.75   7 3.45   2 3.45   4 3.46   5 3.46   3 3.54
                             9 3.54
   7  0.778  0.222  0.320-  43 2.71  44 2.75  38 2.76   2 3.45   6 3.45   9 3.45   8 3.46   1 3.54
                             4 3.54
   8  0.777  0.555  0.321-  44 2.70  45 2.74  39 2.76   4 3.43   3 3.45   9 3.46   7 3.46   5 3.53
                             2 3.55
   9  0.778  0.890  0.320-  45 2.72  43 2.74  37 2.75   1 3.44   7 3.45   5 3.46   8 3.46   3 3.54
                             6 3.54
  10  0.222  0.167  0.558-  48 2.71  46 2.74  49 2.76  14 3.44  11 3.45  18 3.45  12 3.47  16 3.54
                            13 3.55
  11  0.222  0.500  0.558-  46 2.70  47 2.75  50 2.75  15 3.45  16 3.45  10 3.45  12 3.45  14 3.54
                            17 3.55
  12  0.222  0.833  0.559-  47 2.70  48 2.74  51 2.75  17 3.44  11 3.45  13 3.46  10 3.47  18 3.54
                            15 3.54
  13  0.556  0.167  0.558-  51 2.71  52 2.75  49 2.75  17 3.44  14 3.45  15 3.46  12 3.46  16 3.54
                            10 3.55
  14  0.555  0.500  0.559-  49 2.70  50 2.74  53 2.76  10 3.44  18 3.45  13 3.45  15 3.46  11 3.54
                            17 3.54
  15  0.555  0.833  0.558-  50 2.71  51 2.75  54 2.76  11 3.45  16 3.45  13 3.46  14 3.46  12 3.54
                            18 3.55
  16  0.889  0.167  0.558-  54 2.71  52 2.73  46 2.76  11 3.45  15 3.45  17 3.46  18 3.46  10 3.54
                            13 3.54
  17  0.889  0.500  0.558-  52 2.70  53 2.74  47 2.76  13 3.44  12 3.44  18 3.45  16 3.46  14 3.54
                            11 3.55
  18  0.889  0.833  0.559-  53 2.70  54 2.74  48 2.76  14 3.45  17 3.45  10 3.45  16 3.46  12 3.54
                            15 3.55
  19  0.111  0.223  0.442-  37 2.71  41 2.74  38 2.75  23 3.44  27 3.45  20 3.46  21 3.46  25 3.54
                            22 3.54
  20  0.110  0.556  0.442-  38 2.71  42 2.73  39 2.75  25 3.44  21 3.45  24 3.45  19 3.46  26 3.53
                            23 3.55
  21  0.111  0.889  0.442-  39 2.72  40 2.73  37 2.76  22 3.45  26 3.45  20 3.45  19 3.46  24 3.54
                            27 3.55
  22  0.444  0.222  0.442-  40 2.71  44 2.73  41 2.76  26 3.44  21 3.45  24 3.45  23 3.46  19 3.54
                            25 3.55
  23  0.444  0.556  0.442-  41 2.72  45 2.73  42 2.75  19 3.44  27 3.45  24 3.46  22 3.46  20 3.55
                            26 3.55
  24  0.445  0.890  0.441-  42 2.70  43 2.72  40 2.75  25 3.45  22 3.45  20 3.45  23 3.46  21 3.54
                            27 3.54
  25  0.778  0.223  0.442-  43 2.71  38 2.72  44 2.75  20 3.44  26 3.45  24 3.45  27 3.46  19 3.54
                            22 3.55
  26  0.778  0.555  0.441-  44 2.70  39 2.72  45 2.75  22 3.44  25 3.45  21 3.45  27 3.47  20 3.53
                            23 3.55
  27  0.778  0.889  0.442-  45 2.72  37 2.74  43 2.75  23 3.45  19 3.45  25 3.46  26 3.47  24 3.54
                            21 3.55
  28  0.222  0.166  0.679-  48 2.71  49 2.73  46 2.76  36 3.44  32 3.45  30 3.45  29 3.46  31 3.54
                            34 3.54
  29  0.222  0.500  0.679-  46 2.71  50 2.73  47 2.76  34 3.44  33 3.45  30 3.46  28 3.46  35 3.54
                            32 3.54
  30  0.222  0.833  0.679-  47 2.71  51 2.73  48 2.75  31 3.44  35 3.45  28 3.45  29 3.46  33 3.54
                            36 3.54
  31  0.555  0.167  0.680-  51 2.72  52 2.75  49 2.76  30 3.44  35 3.45  33 3.45  32 3.46  28 3.54
                            34 3.54
  32  0.556  0.500  0.679-  49 2.70  53 2.73  50 2.76  36 3.45  28 3.45  31 3.46  33 3.46  35 3.54
                            29 3.54
  33  0.556  0.834  0.679-  50 2.71  54 2.72  51 2.75  34 3.45  29 3.45  31 3.45  32 3.46  30 3.54
                            36 3.55
  34  0.889  0.167  0.679-  54 2.71  46 2.73  52 2.75  29 3.44  33 3.45  35 3.46  36 3.46  28 3.54
                            31 3.54
  35  0.889  0.500  0.679-  52 2.71  47 2.72  53 2.74  31 3.45  30 3.45  36 3.46  34 3.46  32 3.54
                            29 3.54
  36  0.889  0.833  0.679-  53 2.71  48 2.73  54 2.75  28 3.44  32 3.45  35 3.46  34 3.46  30 3.54
                            33 3.55
  37  1.000  0.000  0.381-   1 2.70  19 2.71  27 2.74   3 2.74   9 2.75  21 2.76  41 3.44  45 3.45
                            38 3.46  39 3.46
  38  0.000  0.334  0.381-   2 2.70  20 2.71  25 2.72   1 2.74  19 2.75   7 2.76  42 3.44  43 3.45
                            39 3.45  37 3.46
  39  0.999  0.666  0.381-   3 2.70  21 2.72  26 2.72   2 2.73  20 2.75   8 2.76  44 3.44  38 3.45
                            40 3.45  37 3.46
  40  0.333  0.000  0.381-   4 2.70  22 2.71  21 2.73   6 2.74  24 2.75   3 2.76  44 3.44  39 3.45
                            42 3.45  41 3.46
  41  0.333  0.333  0.381-   5 2.69  23 2.72  19 2.74   4 2.74   1 2.74  22 2.76  37 3.44  45 3.45
                            40 3.46  42 3.46
  42  0.333  0.667  0.381-  24 2.70   6 2.71  20 2.73   5 2.75  23 2.75   2 2.76  43 3.44  38 3.44
                            40 3.45  41 3.46
  43  0.666  1.000  0.381-   7 2.71  25 2.71  24 2.72   9 2.74   6 2.75  27 2.75  42 3.44  38 3.45
                            44 3.46  45 3.46
  44  0.667  0.333  0.381-  26 2.70   8 2.70  22 2.73   4 2.74   7 2.75  25 2.75  39 3.44  40 3.44
                            45 3.45  43 3.46
  45  0.667  0.666  0.381-  27 2.72   9 2.72  23 2.73   8 2.74  26 2.75   5 2.76  37 3.45  41 3.45
                            44 3.45  43 3.46
  46  0.111  0.279  0.619-  11 2.70  29 2.71  34 2.73  10 2.74  16 2.76  28 2.76  50 3.44  54 3.45
                            47 3.46  48 3.47
  47  0.111  0.612  0.619-  12 2.70  30 2.71  35 2.72  11 2.75  17 2.76  29 2.76  51 3.44  52 3.44
                            48 3.45  46 3.46
  48  0.112  0.945  0.619-  28 2.71  10 2.71  36 2.73  12 2.74  30 2.75  18 2.76  49 3.44  53 3.45
                            47 3.45  46 3.47
  49  0.444  0.278  0.619-  14 2.70  32 2.70  28 2.73  13 2.75  10 2.76  31 2.76  48 3.44  53 3.45
                            50 3.45  51 3.47
  50  0.444  0.611  0.619-  15 2.71  33 2.71  29 2.73  14 2.74  11 2.75  32 2.76  46 3.44  54 3.45
                            49 3.45  51 3.46
  51  0.444  0.944  0.619-  13 2.71  31 2.72  30 2.73  33 2.75  15 2.75  12 2.75  47 3.44  52 3.45
                            50 3.46  49 3.47
  52  0.778  0.278  0.619-  17 2.70  35 2.71  16 2.73  31 2.75  13 2.75  34 2.75  47 3.44  51 3.45
                            54 3.45  53 3.46
  53  0.778  0.611  0.619-  18 2.70  36 2.71  32 2.73  17 2.74  35 2.74  14 2.76  48 3.45  49 3.45
                            54 3.46  52 3.46
  54  0.778  0.944  0.619-  16 2.71  34 2.71  33 2.72  18 2.74  36 2.75  15 2.76  50 3.45  46 3.45
                            52 3.45  53 3.46
 

IMPORTANT INFORMATION: All symmetrisations will be switched off!
NOSYMM: (Re-)initialisation of all symmetry stuff for point group C_1.


----------------------------------------------------------------------------------------

                                     Primitive cell                                     

  volume of cell :    2891.4285

  direct lattice vectors                    reciprocal lattice vectors
    10.626817380  0.000000000  0.000000000     0.094101551  0.056579620 -0.000933287
    -5.344612478  8.889001397  0.000000000     0.000000000  0.112498576 -0.000346181
     0.246947230  0.094191785 30.609501753     0.000000000  0.000000000  0.032669594

  length of vectors
    10.626817380 10.372040705 30.610642800     0.109805402  0.112499109  0.032669594

  position of ions in fractional coordinates (direct lattice)
     0.111329623  0.222918986  0.320746584
     0.110877590  0.555668111  0.320744892
     0.110802054  0.888564206  0.320721312
     0.445297073  0.222504520  0.320871223
     0.444266921  0.555205738  0.320831345
     0.444472983  0.888914357  0.320687336
     0.778066912  0.221987771  0.320424694
     0.776828071  0.555149473  0.320567648
     0.778353253  0.889601609  0.320479196
     0.221965665  0.167396375  0.558350064
     0.222252211  0.500048181  0.558445658
     0.221826433  0.832908059  0.558573751
     0.556471747  0.167383111  0.558374283
     0.555180822  0.499709816  0.558590758
     0.555386392  0.833498748  0.558185491
     0.888896944  0.166728266  0.558411050
     0.888665452  0.500278592  0.558465542
     0.888791070  0.832945014  0.558614072
     0.111027571  0.222574333  0.441604259
     0.110384799  0.555716567  0.441595144
     0.111217580  0.888796285  0.441600704
     0.444430724  0.222238313  0.441534323
     0.444087464  0.555835989  0.441636487
     0.444672828  0.889569471  0.441356170
     0.778272065  0.222696559  0.441510875
     0.778019804  0.554808556  0.441434465
     0.777566089  0.889189780  0.441727496
     0.222071245  0.166039532  0.679447787
     0.222118635  0.499991317  0.679464334
     0.222364919  0.833462150  0.679348580
     0.555417274  0.166575928  0.679609160
     0.555552533  0.499962254  0.679322508
     0.555532392  0.833761186  0.679113240
     0.889048129  0.166850666  0.679158645
     0.888791007  0.500089984  0.679078286
     0.889035445  0.833417540  0.679301669
     0.999896044  0.000151136  0.381085546
     0.000037215  0.333629159  0.381305074
     0.999351611  0.666043320  0.380997870
     0.333473590  0.000130662  0.381096219
     0.333021720  0.333324158  0.380865514
     0.333089179  0.666845877  0.381405152
     0.666428033  0.999718870  0.381117289
     0.666563236  0.333322999  0.381154703
     0.667049446  0.666162209  0.381268138
     0.111322212  0.278577281  0.618899535
     0.110823398  0.611501836  0.619033060
     0.111695519  0.944645349  0.619002460
     0.444163954  0.278322321  0.618993090
     0.443987829  0.610813937  0.618785100
     0.444028417  0.944058170  0.619002392
     0.778301942  0.277703164  0.618672986
     0.778204815  0.611415400  0.619039131
     0.777615183  0.944346789  0.618955819

  ion indices of the primitive-cell ions
   primitive index   ion index
                 1           1
                 2           2
                 3           3
                 4           4
                 5           5
                 6           6
                 7           7
                 8           8
                 9           9
                10          10
                11          11
                12          12
                13          13
                14          14
                15          15
                16          16
                17          17
                18          18
                19          19
                20          20
                21          21
                22          22
                23          23
                24          24
                25          25
                26          26
                27          27
                28          28
                29          29
                30          30
                31          31
                32          32
                33          33
                34          34
                35          35
                36          36
                37          37
                38          38
                39          39
                40          40
                41          41
                42          42
                43          43
                44          44
                45          45
                46          46
                47          47
                48          48
                49          49
                50          50
                51          51
                52          52
                53          53
                54          54

----------------------------------------------------------------------------------------

 
 

Automatic generation of k-mesh.
 generate k-points for:    3    3    1
Space group operators:
 irot       det(A)        alpha          n_x          n_y          n_z        tau_x        tau_y        tau_z
    1     1.000000     0.000000     1.000000     0.000000     0.000000     0.000000     0.000000     0.000000
 
 Subroutine IBZKPT returns following result:
 ===========================================
 
 Found      5 irreducible k-points:
 
 Following reciprocal coordinates:
            Coordinates               Weight
  0.000000  0.000000  0.000000      1.000000
  0.333333  0.000000 -0.000000      2.000000
  0.000000  0.333333  0.000000      2.000000
  0.333333  0.333333  0.000000      2.000000
 -0.333333  0.333333 -0.000000      2.000000
 
 Following cartesian coordinates:
            Coordinates               Weight
  0.000000  0.000000  0.000000      1.000000
  0.031367  0.018860 -0.000311      2.000000
  0.000000  0.037500 -0.000115      2.000000
  0.031367  0.056359 -0.000426      2.000000
 -0.031367  0.018640  0.000196      2.000000
 


--------------------------------------------------------------------------------------------------------




 Dimension of arrays:
   k-points           NKPTS =      5   k-points in BZ     NKDIM =      5   number of bands    NBANDS=    200
   number of dos      NEDOS =    301   number of ions     NIONS =     54
   non local maximal  LDIM  =      6   non local SUM 2l+1 LMDIM =     18
   total plane-waves  NPLWV = ******
   max r-space proj   IRMAX =      1   max aug-charges    IRDMAX=  36008
   dimension x,y,z NGX =    84 NGY =   80 NGZ =  240
   dimension x,y,z NGXF=   168 NGYF=  160 NGZF=  480
   support grid    NGXF=   168 NGYF=  160 NGZF=  480
   ions per type =              36  18
   NGX,Y,Z   is equivalent  to a cutoff of  13.14, 12.82, 13.03 a.u.
   NGXF,Y,Z  is equivalent  to a cutoff of  26.28, 25.65, 26.07 a.u.

 SYSTEM =  dpgen_md                                
 POSCAR =  Te Mo                                   

 Startparameter for this run:
   NWRITE =      2    write-flag & timer
   PREC   = a         normal or accurate (medium, high low for compatibility)
   ISTART =      0    job   : 0-new  1-cont  2-samecut
   ICHARG =      2    charge: 1-file 2-atom 10-const
   ISPIN  =      1    spin polarized calculation?
   LNONCOLLINEAR =      F non collinear calculations
   LSORBIT =      F    spin-orbit coupling
   INIWAV =      1    electr: 0-lowe 1-rand  2-diag
   LASPH  =      F    aspherical Exc in radial PAW
   METAGGA=      F    non-selfconsistent MetaGGA calc.

 Electronic Relaxation 1
   ENCUT  =  550.0 eV  40.42 Ry    6.36 a.u.  20.32 19.83 58.53*2*pi/ulx,y,z
   ENINI  =  550.0     initial cutoff
   ENAUG  =  368.8 eV  augmentation charge cutoff
   NELM   =    100;   NELMIN=  6; NELMDL= -5     # of ELM steps 
   EDIFF  = 0.1E-05   stopping-criterion for ELM
   LREAL  =      F    real-space projection
   NLSPLINE    = F    spline interpolate recip. space projectors
   LCOMPAT=      F    compatible to vasp.4.4
   GGA_COMPAT  = T    GGA compatible to vasp.4.4-vasp.4.6
   LMAXPAW     = -100 max onsite density
   LMAXMIX     =    2 max onsite mixed and CHGCAR
   VOSKOWN=      0    Vosko Wilk Nusair interpolation
   ROPT   =    0.00000   0.00000
 Ionic relaxation
   EDIFFG = 0.1E-04   stopping-criterion for IOM
   NSW    =     10    number of steps for IOM
   NBLOCK =      1;   KBLOCK =      1    inner block; outer block 
   IBRION =      0    ionic relax: 0-MD 1-quasi-New 2-CG
   NFREE  =      0    steps in history (QN), initial steepest desc. (CG)
   ISIF   =      2    stress and relaxation
   IWAVPR =     11    prediction:  0-non 1-charg 2-wave 3-comb
   ISYM   =      0    0-nonsym 1-usesym 2-fastsym
   LCORR  =      T    Harris-Foulkes like correction to forces

   POTIM  = 2.0000    time-step for ionic-motion
   TEIN   =  100.0    initial temperature
   TEBEG  =  100.0;   TEEND  = 100.0 temperature during run
   SMASS  =   0.04    Nose mass-parameter (am)
   estimated Nose-frequenzy (Omega)   =  0.79E+14 period in steps = 0.40E+02 mass=   0.327E-28a.u.
   SCALEE = 1.0000    scale energy and forces
   NPACO  =    256;   APACO  = 16.0  distance and # of slots for P.C.
   PSTRESS=    0.0 pullay stress

  Mass of Ions in am
   POMASS = 127.60 95.94
  Ionic Valenz
   ZVAL   =   6.00  6.00
  Atomic Wigner-Seitz radii
   RWIGS  =  -1.00 -1.00
  virtual crystal weights 
   VCA    =   1.00  1.00
   NELECT =     324.0000    total number of electrons
   NUPDOWN=      -1.0000    fix difference up-down

 DOS related values:
   EMIN   =  10.00;   EMAX   =-10.00  energy-range for DOS
   EFERMI =   0.00
   ISMEAR =     0;   SIGMA  =   0.10  broadening in eV -4-tet -1-fermi 0-gaus

 Electronic relaxation 2 (details)
   IALGO  =     68    algorithm
   LDIAG  =      T    sub-space diagonalisation (order eigenvalues)
   LSUBROT=      F    optimize rotation matrix (better conditioning)
   TURBO    =      0    0=normal 1=particle mesh
   IRESTART =      0    0=no restart 2=restart with 2 vectors
   NREBOOT  =      0    no. of reboots
   NMIN     =      0    reboot dimension
   EREF     =   0.00    reference energy to select bands
   IMIX   =      4    mixing-type and parameters
     AMIX     =   0.40;   BMIX     =  1.00
     AMIX_MAG =   1.60;   BMIX_MAG =  1.00
     AMIN     =   0.10
     WC   =   100.;   INIMIX=   1;  MIXPRE=   1;  MAXMIX= -45

 Intra band minimization:
   WEIMIN = 0.0010     energy-eigenvalue tresh-hold
   EBREAK =  0.13E-08  absolut break condition
   DEPER  =   0.30     relativ break condition  

   TIME   =   0.40     timestep for ELM

  volume/ion in A,a.u.               =      53.54       361.34
  Fermi-wavevector in a.u.,A,eV,Ry     =   0.789258  1.491481  8.475454  0.622928
  Thomas-Fermi vector in A             =   1.894364
 
 Write flags
   LWAVE        =      F    write WAVECAR
   LDOWNSAMPLE  =      F    k-point downsampling of WAVECAR
   LCHARG       =      F    write CHGCAR
   LVTOT        =      F    write LOCPOT, total local potential
   LVHAR        =      F    write LOCPOT, Hartree potential only
   LELF         =      F    write electronic localiz. function (ELF)
   LORBIT       =      0    0 simple, 1 ext, 2 COOP (PROOUT), +10 PAW based schemes


 Dipole corrections
   LMONO  =      F    monopole corrections only (constant potential shift)
   LDIPOL =      F    correct potential (dipole corrections)
   IDIPOL =      0    1-x, 2-y, 3-z, 4-all directions 
   EPSILON=  1.0000000 bulk dielectric constant

 Exchange correlation treatment:
   GGA     =    --    GGA type
   LEXCH   =     8    internal setting for exchange type
   VOSKOWN=      0    Vosko Wilk Nusair interpolation
   LHFCALC =     F    Hartree Fock is set to
   LHFONE  =     F    Hartree Fock one center treatment
   AEXX    =    0.0000 exact exchange contribution

 Linear response parameters
   LEPSILON=     F    determine dielectric tensor
   LRPA    =     F    only Hartree local field effects (RPA)
   LNABLA  =     F    use nabla operator in PAW spheres
   LVEL    =     F    velocity operator in full k-point grid
   LINTERFAST=   F  fast interpolation
   KINTER  =     0    interpolate to denser k-point grid
   CSHIFT  =0.1000    complex shift for real part using Kramers Kronig
   OMEGAMAX=  -1.0    maximum frequency
   DEG_THRESHOLD= 0.2000000E-02 threshold for treating states as degnerate
   RTIME   =   -0.100 relaxation time in fs
  (WPLASMAI=    0.000 imaginary part of plasma frequency in eV, 0.658/RTIME)
   DFIELD  = 0.0000000 0.0000000 0.0000000 field for delta impulse in time
 
 Orbital magnetization related:
   ORBITALMAG=     F  switch on orbital magnetization
   LCHIMAG   =     F  perturbation theory with respect to B field
   DQ        =  0.001000  dq finite difference perturbation B field
   LLRAUG    =     F  two centre corrections for induced B field



--------------------------------------------------------------------------------------------------------


 molecular dynamics for ions
   using nose mass (canonical ensemble)
 charge density and potential will be updated during run
 non-spin polarized calculation
 RMM-DIIS sequential band-by-band and
  variant of blocked Davidson during initial phase
 perform sub-space diagonalisation
    before iterative eigenvector-optimisation
 modified Broyden-mixing scheme, WC =      100.0
 initial mixing is a Kerker type mixing with AMIX =  0.4000 and BMIX =      1.0000
 Hartree-type preconditioning will be used
 using additional bands           38
 reciprocal scheme for non local part
 use partial core corrections
 calculate Harris-corrections to forces 
   (improved forces if not selfconsistent)
 use gradient corrections 
 use of overlap-Matrix (Vanderbilt PP)
 Gauss-broadening in eV      SIGMA  =   0.10


--------------------------------------------------------------------------------------------------------


  energy-cutoff  :      550.00
  volume of cell :     2891.43
      direct lattice vectors                 reciprocal lattice vectors
    10.626817380  0.000000000  0.000000000     0.094101551  0.056579620 -0.000933287
    -5.344612478  8.889001397  0.000000000     0.000000000  0.112498576 -0.000346181
     0.246947230  0.094191785 30.609501753     0.000000000  0.000000000  0.032669594

  length of vectors
    10.626817380 10.372040705 30.610642800     0.109805402  0.112499109  0.032669594


 
 k-points in units of 2pi/SCALE and weight: read from INCAR                         
   0.00000000  0.00000000  0.00000000       0.111
   0.03136718  0.01885987 -0.00031110       0.222
   0.00000000  0.03749953 -0.00011539       0.222
   0.03136718  0.05635940 -0.00042649       0.222
  -0.03136718  0.01863965  0.00019570       0.222
 
 k-points in reciprocal lattice and weights: read from INCAR                         
   0.00000000  0.00000000  0.00000000       0.111
   0.33333333  0.00000000 -0.00000000       0.222
   0.00000000  0.33333333  0.00000000       0.222
   0.33333333  0.33333333  0.00000000       0.222
  -0.33333333  0.33333333 -0.00000000       0.222
 
 position of ions in fractional coordinates (direct lattice) 
   0.11132962  0.22291899  0.32074658
   0.11087759  0.55566811  0.32074489
   0.11080205  0.88856421  0.32072131
   0.44529707  0.22250452  0.32087122
   0.44426692  0.55520574  0.32083134
   0.44447298  0.88891436  0.32068734
   0.77806691  0.22198777  0.32042469
   0.77682807  0.55514947  0.32056765
   0.77835325  0.88960161  0.32047920
   0.22196567  0.16739637  0.55835006
   0.22225221  0.50004818  0.55844566
   0.22182643  0.83290806  0.55857375
   0.55647175  0.16738311  0.55837428
   0.55518082  0.49970982  0.55859076
   0.55538639  0.83349875  0.55818549
   0.88889694  0.16672827  0.55841105
   0.88866545  0.50027859  0.55846554
   0.88879107  0.83294501  0.55861407
   0.11102757  0.22257433  0.44160426
   0.11038480  0.55571657  0.44159514
   0.11121758  0.88879629  0.44160070
   0.44443072  0.22223831  0.44153432
   0.44408746  0.55583599  0.44163649
   0.44467283  0.88956947  0.44135617
   0.77827207  0.22269656  0.44151088
   0.77801980  0.55480856  0.44143447
   0.77756609  0.88918978  0.44172750
   0.22207125  0.16603953  0.67944779
   0.22211863  0.49999132  0.67946433
   0.22236492  0.83346215  0.67934858
   0.55541727  0.16657593  0.67960916
   0.55555253  0.49996225  0.67932251
   0.55553239  0.83376119  0.67911324
   0.88904813  0.16685067  0.67915864
   0.88879101  0.50008998  0.67907829
   0.88903544  0.83341754  0.67930167
   0.99989604  0.00015114  0.38108555
   0.00003722  0.33362916  0.38130507
   0.99935161  0.66604332  0.38099787
   0.33347359  0.00013066  0.38109622
   0.33302172  0.33332416  0.38086551
   0.33308918  0.66684588  0.38140515
   0.66642803  0.99971887  0.38111729
   0.66656324  0.33332300  0.38115470
   0.66704945  0.66616221  0.38126814
   0.11132221  0.27857728  0.61889954
   0.11082340  0.61150184  0.61903306
   0.11169552  0.94464535  0.61900246
   0.44416395  0.27832232  0.61899309
   0.44398783  0.61081394  0.61878510
   0.44402842  0.94405817  0.61900239
   0.77830194  0.27770316  0.61867299
   0.77820481  0.61141540  0.61903913
   0.77761518  0.94434679  0.61895582
 
 position of ions in cartesian coordinates  (Angst):
   0.07087145  2.01173887  9.81789312
  -1.71234775  4.96954615  9.81784133
  -3.49235692  7.92865778  9.81711955
   3.62212850  2.00806642  9.82170827
   1.83301233  4.96544425  9.82048761
   0.05162331  7.93176707  9.81607956
   7.16106436  2.00343098  9.80804024
   5.36731454  4.96491928  9.81241598
   3.59598347  7.93785645  9.80970851
   1.60200284  1.54057860 17.09081727
  -0.17282348  4.49752997 17.09374335
  -1.95632356  7.45633395 17.09766422
   5.15681475  1.54046298 17.09155859
   3.36699233  4.49453592 17.09818479
   1.58510432  7.46154802 17.08577976
   8.69294559  1.53464552 17.09268402
   6.90780178  4.49957997 17.09435197
   5.13120028  7.45666625 17.09889842
   0.09934911  2.02005905 13.51728634
  -1.68799990  4.98135997 13.51700732
  -3.45933073  7.94210658 13.51717753
   3.64414216  2.01706558 13.51514563
   1.85756932  4.98242541 13.51827284
   0.08004453  7.94895640 13.50969246
   7.18935819  2.02113672 13.51442791
   5.41164867  4.97327353 13.51208905
   3.61976141  7.94561630 13.52105855
   1.64028136  1.53992404 20.79755823
  -0.14405383  4.50842347 20.79806473
  -1.92373757  7.47263527 20.79452154
   5.17986176  1.54470726 20.80249776
   3.39940762  4.50815178 20.79372349
   1.61511597  7.47527124 20.78731792
   8.72371630  1.54710697 20.78870773
   6.93992906  4.50926416 20.78624797
   5.16107520  7.47223431 20.79308563
  10.71901292  0.03723858 11.66483868
  -1.68856086  3.00154587 11.67155833
   7.15427000  5.95634688 11.66215498
   3.63717526  0.03705758 11.66516539
   1.85152624  2.99879331 11.65810361
   0.06983203  5.96351916 11.67462167
   1.83301491  8.92240055 11.66581034
   5.39608862  2.99881024 11.66695554
   3.62238690  5.95742913 11.67042773
  -0.15305127  2.53456909 18.94420641
  -1.93767183  5.49394850 18.94829355
  -3.70893450  8.45525877 18.94735688
   3.38538290  2.53231156 18.94707008
   1.60642105  5.48781041 18.94070360
  -0.17415524  8.45003933 18.94735481
   6.93943638  2.52677773 18.93727186
   5.15493207  5.49318075 18.94847938
   3.36925634  8.45260048 18.94592922
 


--------------------------------------------------------------------------------------------------------


 k-point   1 :   0.0000 0.0000 0.0000  plane waves:   84661
 k-point   2 :   0.3333 0.0000-0.0000  plane waves:   84712
 k-point   3 :   0.0000 0.3333 0.0000  plane waves:   84745
 k-point   4 :   0.3333 0.3333 0.0000  plane waves:   84663
 k-point   5 :  -0.3333 0.3333-0.0000  plane waves:   84683

 maximum and minimum number of plane-waves per node :     84745    84661

 maximum number of plane-waves:     84745
 maximum index in each direction: 
   IXMAX=   20   IYMAX=   19   IZMAX=   58
   IXMIN=  -20   IYMIN=  -20   IZMIN=  -58


 serial   3D FFT for wavefunctions
 parallel 3D FFT for charge:
    minimum data exchange during FFTs selected (reduces bandwidth)


 total amount of memory used by VASP MPI-rank0   365521. kBytes
=======================================================================

   base      :      30000. kBytes
   nonl-proj :     195287. kBytes
   fftplans  :      18984. kBytes
   grid      :      86187. kBytes
   one-center:        839. kBytes
   wavefun   :      34224. kBytes
 
     INWAV:  cpu time    0.0001: real time    0.0001
 Broyden mixing: mesh for mixing (old mesh)
   NGX = 41   NGY = 39   NGZ =117
  (NGX  =168   NGY  =160   NGZ  =480)
  gives a total of 187083 points

 initial charge density was supplied:
 charge density of overlapping atoms calculated
 number of electron     324.0000000 magnetization 
 keeping initial charge density in first step


--------------------------------------------------------------------------------------------------------


 Maximum index for augmentation-charges         2160 (set IRDMAX)


--------------------------------------------------------------------------------------------------------


 First call to EWALD:  gamma=   0.124
 Maximum number of real-space cells 4x 4x 2
 Maximum number of reciprocal cells 2x 2x 5

    FEWALD:  cpu time    0.0034: real time    0.0034


--------------------------------------- Iteration      1(   1)  ---------------------------------------


    POTLOK:  cpu time    0.3032: real time    0.3065
    SETDIJ:  cpu time    0.0112: real time    0.0114
     EDDAV:  cpu time   48.6926: real time   48.8063
       DOS:  cpu time    0.0008: real time    0.0010
    --------------------------------------------
      LOOP:  cpu time   49.0079: real time   49.1253

 eigenvalue-minimisations  :  2000
 total energy-change (2. order) : 0.2119674E+04  (-0.1153358E+05)
 number of electron     324.0000000 magnetization 
 augmentation part      324.0000000 magnetization 

 Free energy of the ion-electron system (eV)
  ---------------------------------------------------
  alpha Z        PSCENC =       248.20471515
  Ewald energy   TEWEN  =     65931.45125550
  -Hartree energ DENC   =    -77622.34994602
  -exchange      EXHF   =         0.00000000
  -V(xc)+E(xc)   XCENC  =     -2099.36094164
  PAW double counting   =      7476.04436201    -4809.59211051
  entropy T*S    EENTRO =        -0.10917431
  eigenvalues    EBANDS =      1042.30297630
  atomic energy  EATOM  =     11953.08265402
  Solvation  Ediel_sol  =         0.00000000
  ---------------------------------------------------
  free energy    TOTEN  =      2119.67379051 eV

  energy without entropy =     2119.78296482  energy(sigma->0) =     2119.72837766


--------------------------------------------------------------------------------------------------------




--------------------------------------- Iteration      1(   2)  ---------------------------------------


     EDDAV:  cpu time   69.6928: real time   69.8477
       DOS:  cpu time    0.0006: real time    0.0006
    --------------------------------------------
      LOOP:  cpu time   69.6934: real time   69.8483

 eigenvalue-minimisations  :  3120
 total energy-change (2. order) :-0.2220482E+04  (-0.2144513E+04)
 number of electron     324.0000000 magnetization 
 augmentation part      324.0000000 magnetization 

 Free energy of the ion-electron system (eV)
  ---------------------------------------------------
  alpha Z        PSCENC =       248.20471515
  Ewald energy   TEWEN  =     65931.45125550
  -Hartree energ DENC   =    -77622.34994602
  -exchange      EXHF   =         0.00000000
  -V(xc)+E(xc)   XCENC  =     -2099.36094164
  PAW double counting   =      7476.04436201    -4809.59211051
  entropy T*S    EENTRO =        -0.00007813
  eigenvalues    EBANDS =     -1178.28794919
  atomic energy  EATOM  =     11953.08265402
  Solvation  Ediel_sol  =         0.00000000
  ---------------------------------------------------
  free energy    TOTEN  =      -100.80803880 eV

  energy without entropy =     -100.80796067  energy(sigma->0) =     -100.80799973


--------------------------------------------------------------------------------------------------------




--------------------------------------- Iteration      1(   3)  ---------------------------------------


     EDDAV:  cpu time   57.6921: real time   57.8427
       DOS:  cpu time    0.0004: real time    0.0004
    --------------------------------------------
      LOOP:  cpu time   57.6925: real time   57.8430

 eigenvalue-minimisations  :  2480
 total energy-change (2. order) :-0.2236557E+03  (-0.2203893E+03)
 number of electron     324.0000000 magnetization 
 augmentation part      324.0000000 magnetization 

 Free energy of the ion-electron system (eV)
  ---------------------------------------------------
  alpha Z        PSCENC =       248.20471515
  Ewald energy   TEWEN  =     65931.45125550
  -Hartree energ DENC   =    -77622.34994602
  -exchange      EXHF   =         0.00000000
  -V(xc)+E(xc)   XCENC  =     -2099.36094164
  PAW double counting   =      7476.04436201    -4809.59211051
  entropy T*S    EENTRO =        -0.00000000
  eigenvalues    EBANDS =     -1401.94370399
  atomic energy  EATOM  =     11953.08265402
  Solvation  Ediel_sol  =         0.00000000
  ---------------------------------------------------
  free energy    TOTEN  =      -324.46371547 eV

  energy without entropy =     -324.46371547  energy(sigma->0) =     -324.46371547


--------------------------------------------------------------------------------------------------------




--------------------------------------- Iteration      1(   4)  ---------------------------------------


     EDDAV:  cpu time   71.8878: real time   72.0423
       DOS:  cpu time    0.0004: real time    0.0004
    --------------------------------------------
      LOOP:  cpu time   71.8881: real time   72.0426

 eigenvalue-minimisations  :  3240
 total energy-change (2. order) :-0.1147322E+02  (-0.1140918E+02)
 number of electron     324.0000000 magnetization 
 augmentation part      324.0000000 magnetization 

 Free energy of the ion-electron system (eV)
  ---------------------------------------------------
  alpha Z        PSCENC =       248.20471515
  Ewald energy   TEWEN  =     65931.45125550
  -Hartree energ DENC   =    -77622.34994602
  -exchange      EXHF   =         0.00000000
  -V(xc)+E(xc)   XCENC  =     -2099.36094164
  PAW double counting   =      7476.04436201    -4809.59211051
  entropy T*S    EENTRO =        -0.00000000
  eigenvalues    EBANDS =     -1413.41692279
  atomic energy  EATOM  =     11953.08265402
  Solvation  Ediel_sol  =         0.00000000
  ---------------------------------------------------
  free energy    TOTEN  =      -335.93693427 eV

  energy without entropy =     -335.93693427  energy(sigma->0) =     -335.93693427


--------------------------------------------------------------------------------------------------------




--------------------------------------- Iteration      1(   5)  ---------------------------------------


     EDDAV:  cpu time   66.6145: real time   66.7621
       DOS:  cpu time    0.0004: real time    0.0004
    CHARGE:  cpu time    1.1583: real time    1.1668
    MIXING:  cpu time    0.0089: real time    0.0092
    --------------------------------------------
      LOOP:  cpu time   67.7821: real time   67.9385

 eigenvalue-minimisations  :  2960
 total energy-change (2. order) :-0.2616230E+00  (-0.2611244E+00)
 number of electron     324.0000011 magnetization 
 augmentation part      -25.3626415 magnetization 

 Broyden mixing:
  rms(total) = 0.18850E+01    rms(broyden)= 0.18850E+01
  rms(prec ) = 0.19908E+01
  weight for this iteration     100.00

 Free energy of the ion-electron system (eV)
  ---------------------------------------------------
  alpha Z        PSCENC =       248.20471515
  Ewald energy   TEWEN  =     65931.45125550
  -Hartree energ DENC   =    -77622.34994602
  -exchange      EXHF   =         0.00000000
  -V(xc)+E(xc)   XCENC  =     -2099.36094164
  PAW double counting   =      7476.04436201    -4809.59211051
  entropy T*S    EENTRO =        -0.00000000
  eigenvalues    EBANDS =     -1413.67854579
  atomic energy  EATOM  =     11953.08265402
  Solvation  Ediel_sol  =         0.00000000
  ---------------------------------------------------
  free energy    TOTEN  =      -336.19855727 eV

  energy without entropy =     -336.19855727  energy(sigma->0) =     -336.19855727


--------------------------------------------------------------------------------------------------------




--------------------------------------- Iteration      1(   6)  ---------------------------------------


    POTLOK:  cpu time    0.2587: real time    0.2591
    SETDIJ:  cpu time    0.0113: real time    0.0113
    EDDIAG:  cpu time    2.5090: real time    2.5164
  RMM-DIIS:  cpu time   41.3535: real time   41.4504
    ORTHCH:  cpu time    0.2098: real time    0.2100
       DOS:  cpu time    0.0005: real time    0.0005
    CHARGE:  cpu time    1.1696: real time    1.1707
    MIXING:  cpu time    0.0071: real time    0.0072
    --------------------------------------------
      LOOP:  cpu time   45.5196: real time   45.6257

 eigenvalue-minimisations  :  2127
 total energy-change (2. order) : 0.9217923E+01  (-0.4854703E+01)
 number of electron     324.0000012 magnetization 
 augmentation part      -20.1629743 magnetization 

 Broyden mixing:
  rms(total) = 0.69747E+00    rms(broyden)= 0.69747E+00
  rms(prec ) = 0.80577E+00
  weight for this iteration     100.00

 eigenvalues of (default mixing * dielectric matrix)
  average eigenvalue GAMMA=   1.0876
  1.0876

 Free energy of the ion-electron system (eV)
  ---------------------------------------------------
  alpha Z        PSCENC =       248.20471515
  Ewald energy   TEWEN  =     65931.45125550
  -Hartree energ DENC   =    -77609.29225515
  -exchange      EXHF   =         0.00000000
  -V(xc)+E(xc)   XCENC  =     -2093.05100792
  PAW double counting   =      7682.58398178    -5027.39338579
  entropy T*S    EENTRO =        -0.00000000
  eigenvalues    EBANDS =     -1412.56659231
  atomic energy  EATOM  =     11953.08265402
  Solvation  Ediel_sol  =         0.00000000
  ---------------------------------------------------
  free energy    TOTEN  =      -326.98063472 eV

  energy without entropy =     -326.98063472  energy(sigma->0) =     -326.98063472


--------------------------------------------------------------------------------------------------------




--------------------------------------- Iteration      1(   7)  ---------------------------------------


    POTLOK:  cpu time    0.2584: real time    0.2587
    SETDIJ:  cpu time    0.0107: real time    0.0107
    EDDIAG:  cpu time    2.5162: real time    2.5201
  RMM-DIIS:  cpu time   39.1587: real time   39.2349
    ORTHCH:  cpu time    0.2082: real time    0.2085
       DOS:  cpu time    0.0004: real time    0.0004
    CHARGE:  cpu time    1.1696: real time    1.1708
    MIXING:  cpu time    0.0070: real time    0.0070
    --------------------------------------------
      LOOP:  cpu time   43.3293: real time   43.4111

 eigenvalue-minimisations  :  2015
 total energy-change (2. order) : 0.3155194E+01  (-0.1087272E+01)
 number of electron     324.0000011 magnetization 
 augmentation part      -21.8998543 magnetization 

 Broyden mixing:
  rms(total) = 0.46476E+00    rms(broyden)= 0.46476E+00
  rms(prec ) = 0.49089E+00
  weight for this iteration     100.00

 eigenvalues of (default mixing * dielectric matrix)
  average eigenvalue GAMMA=   1.4488
  0.7315  2.1661

 Free energy of the ion-electron system (eV)
  ---------------------------------------------------
  alpha Z        PSCENC =       248.20471515
  Ewald energy   TEWEN  =     65931.45125550
  -Hartree energ DENC   =    -77698.77546107
  -exchange      EXHF   =         0.00000000
  -V(xc)+E(xc)   XCENC  =     -2091.57434359
  PAW double counting   =      7972.42632837    -5322.48804538
  entropy T*S    EENTRO =        -0.00000000
  eigenvalues    EBANDS =     -1316.15254361
  atomic energy  EATOM  =     11953.08265402
  Solvation  Ediel_sol  =         0.00000000
  ---------------------------------------------------
  free energy    TOTEN  =      -323.82544061 eV

  energy without entropy =     -323.82544061  energy(sigma->0) =     -323.82544061


--------------------------------------------------------------------------------------------------------




--------------------------------------- Iteration      1(   8)  ---------------------------------------


    POTLOK:  cpu time    0.2616: real time    0.2619
    SETDIJ:  cpu time    0.0108: real time    0.0108
    EDDIAG:  cpu time    2.5081: real time    2.5135
  RMM-DIIS:  cpu time   38.6961: real time   38.7981
    ORTHCH:  cpu time    0.2085: real time    0.2087
       DOS:  cpu time    0.0004: real time    0.0004
    CHARGE:  cpu time    1.1613: real time    1.1659
    MIXING:  cpu time    0.0069: real time    0.0069
    --------------------------------------------
      LOOP:  cpu time   42.8538: real time   42.9662

 eigenvalue-minimisations  :  2002
 total energy-change (2. order) : 0.4578838E+00  (-0.6972225E+00)
 number of electron     324.0000012 magnetization 
 augmentation part      -21.5092523 magnetization 

 Broyden mixing:
  rms(total) = 0.11811E+00    rms(broyden)= 0.11811E+00
  rms(prec ) = 0.13517E+00
  weight for this iteration     100.00

 eigenvalues of (default mixing * dielectric matrix)
  average eigenvalue GAMMA=   1.2745
  2.1159  0.9104  0.7972

 Free energy of the ion-electron system (eV)
  ---------------------------------------------------
  alpha Z        PSCENC =       248.20471515
  Ewald energy   TEWEN  =     65931.45125550
  -Hartree energ DENC   =    -77752.57757446
  -exchange      EXHF   =         0.00000000
  -V(xc)+E(xc)   XCENC  =     -2087.88554966
  PAW double counting   =      8251.59636914    -5607.60866842
  entropy T*S    EENTRO =        -0.00000000
  eigenvalues    EBANDS =     -1259.63075810
  atomic energy  EATOM  =     11953.08265402
  Solvation  Ediel_sol  =         0.00000000
  ---------------------------------------------------
  free energy    TOTEN  =      -323.36755682 eV

  energy without entropy =     -323.36755682  energy(sigma->0) =     -323.36755682


--------------------------------------------------------------------------------------------------------




--------------------------------------- Iteration      1(   9)  ---------------------------------------


    POTLOK:  cpu time    0.2600: real time    0.2603
    SETDIJ:  cpu time    0.0110: real time    0.0110
    EDDIAG:  cpu time    2.5149: real time    2.5213
  RMM-DIIS:  cpu time   44.5244: real time   44.6497
    ORTHCH:  cpu time    0.2117: real time    0.2124
       DOS:  cpu time    0.0004: real time    0.0004
    CHARGE:  cpu time    1.1671: real time    1.1712
    MIXING:  cpu time    0.0072: real time    0.0072
    --------------------------------------------
      LOOP:  cpu time   48.6967: real time   48.8334

 eigenvalue-minimisations  :  2259
 total energy-change (2. order) :-0.7316387E-01  (-0.1435842E+00)
 number of electron     324.0000012 magnetization 
 augmentation part      -21.1350429 magnetization 

 Broyden mixing:
  rms(total) = 0.10377E+00    rms(broyden)= 0.10377E+00
  rms(prec ) = 0.11497E+00
  weight for this iteration     100.00

 eigenvalues of (default mixing * dielectric matrix)
  average eigenvalue GAMMA=   1.1888
  1.8374  1.7564  0.7204  0.4411

 Free energy of the ion-electron system (eV)
  ---------------------------------------------------
  alpha Z        PSCENC =       248.20471515
  Ewald energy   TEWEN  =     65931.45125550
  -Hartree energ DENC   =    -77752.81396094
  -exchange      EXHF   =         0.00000000
  -V(xc)+E(xc)   XCENC  =     -2087.53771007
  PAW double counting   =      8260.12198345    -5616.37908379
  entropy T*S    EENTRO =        -0.00000000
  eigenvalues    EBANDS =     -1259.57057402
  atomic energy  EATOM  =     11953.08265402
  Solvation  Ediel_sol  =         0.00000000
  ---------------------------------------------------
  free energy    TOTEN  =      -323.44072069 eV

  energy without entropy =     -323.44072069  energy(sigma->0) =     -323.44072069


--------------------------------------------------------------------------------------------------------




--------------------------------------- Iteration      1(  10)  ---------------------------------------


    POTLOK:  cpu time    0.2606: real time    0.2609
    SETDIJ:  cpu time    0.0109: real time    0.0109
    EDDIAG:  cpu time    2.5091: real time    2.5149
  RMM-DIIS:  cpu time   45.2173: real time   45.3338
    ORTHCH:  cpu time    0.2135: real time    0.2138
       DOS:  cpu time    0.0004: real time    0.0004
    CHARGE:  cpu time    1.1692: real time    1.1703
    MIXING:  cpu time    0.0087: real time    0.0087
    --------------------------------------------
      LOOP:  cpu time   49.3898: real time   49.5137

 eigenvalue-minimisations  :  2311
 total energy-change (2. order) : 0.5443176E-02  (-0.3536212E-01)
 number of electron     324.0000012 magnetization 
 augmentation part      -21.0100308 magnetization 

 Broyden mixing:
  rms(total) = 0.69425E-01    rms(broyden)= 0.69425E-01
  rms(prec ) = 0.78080E-01
  weight for this iteration     100.00

 eigenvalues of (default mixing * dielectric matrix)
  average eigenvalue GAMMA=   1.3135
  2.3602  1.9670  0.9829  0.8579  0.3998

 Free energy of the ion-electron system (eV)
  ---------------------------------------------------
  alpha Z        PSCENC =       248.20471515
  Ewald energy   TEWEN  =     65931.45125550
  -Hartree energ DENC   =    -77757.20029411
  -exchange      EXHF   =         0.00000000
  -V(xc)+E(xc)   XCENC  =     -2087.33251151
  PAW double counting   =      8278.93263989    -5635.23172553
  entropy T*S    EENTRO =        -0.00000000
  eigenvalues    EBANDS =     -1255.34201093
  atomic energy  EATOM  =     11953.08265402
  Solvation  Ediel_sol  =         0.00000000
  ---------------------------------------------------
  free energy    TOTEN  =      -323.43527751 eV

  energy without entropy =     -323.43527751  energy(sigma->0) =     -323.43527751


--------------------------------------------------------------------------------------------------------




--------------------------------------- Iteration      1(  11)  ---------------------------------------


    POTLOK:  cpu time    0.2641: real time    0.2645
    SETDIJ:  cpu time    0.0108: real time    0.0108
    EDDIAG:  cpu time    2.5108: real time    2.5153
  RMM-DIIS:  cpu time   41.8042: real time   41.9170
    ORTHCH:  cpu time    0.2147: real time    0.2149
       DOS:  cpu time    0.0004: real time    0.0004
    CHARGE:  cpu time    1.1674: real time    1.1726
    MIXING:  cpu time    0.0074: real time    0.0074
    --------------------------------------------
      LOOP:  cpu time   45.9798: real time   46.1028

 eigenvalue-minimisations  :  2120
 total energy-change (2. order) : 0.1075634E-01  (-0.1863703E-01)
 number of electron     324.0000011 magnetization 
 augmentation part      -21.3316311 magnetization 

 Broyden mixing:
  rms(total) = 0.36476E-01    rms(broyden)= 0.36476E-01
  rms(prec ) = 0.41295E-01
  weight for this iteration     100.00

 eigenvalues of (default mixing * dielectric matrix)
  average eigenvalue GAMMA=   1.2540
  2.5260  1.5770  1.5770  0.7238  0.7238  0.3964

 Free energy of the ion-electron system (eV)
  ---------------------------------------------------
  alpha Z        PSCENC =       248.20471515
  Ewald energy   TEWEN  =     65931.45125550
  -Hartree energ DENC   =    -77775.96680297
  -exchange      EXHF   =         0.00000000
  -V(xc)+E(xc)   XCENC  =     -2087.09414038
  PAW double counting   =      8328.10341247    -5684.58792840
  entropy T*S    EENTRO =        -0.00000000
  eigenvalues    EBANDS =     -1236.61768657
  atomic energy  EATOM  =     11953.08265402
  Solvation  Ediel_sol  =         0.00000000
  ---------------------------------------------------
  free energy    TOTEN  =      -323.42452118 eV

  energy without entropy =     -323.42452118  energy(sigma->0) =     -323.42452118


--------------------------------------------------------------------------------------------------------




--------------------------------------- Iteration      1(  12)  ---------------------------------------


    POTLOK:  cpu time    0.2623: real time    0.2626
    SETDIJ:  cpu time    0.0110: real time    0.0110
    EDDIAG:  cpu time    2.5050: real time    2.5105
  RMM-DIIS:  cpu time   46.6501: real time   46.7700
    ORTHCH:  cpu time    0.2079: real time    0.2081
       DOS:  cpu time    0.0004: real time    0.0004
    CHARGE:  cpu time    1.1667: real time    1.1680
    MIXING:  cpu time    0.0075: real time    0.0075
    --------------------------------------------
      LOOP:  cpu time   50.8111: real time   50.9382

 eigenvalue-minimisations  :  2366
 total energy-change (2. order) : 0.1999751E-02  (-0.3342994E-02)
 number of electron     324.0000012 magnetization 
 augmentation part      -21.2937087 magnetization 

 Broyden mixing:
  rms(total) = 0.23736E-01    rms(broyden)= 0.23736E-01
  rms(prec ) = 0.27519E-01
  weight for this iteration     100.00

 eigenvalues of (default mixing * dielectric matrix)
  average eigenvalue GAMMA=   1.2244
  2.5257  1.8281  1.8281  0.8018  0.8018  0.4032  0.3820

 Free energy of the ion-electron system (eV)
  ---------------------------------------------------
  alpha Z        PSCENC =       248.20471515
  Ewald energy   TEWEN  =     65931.45125550
  -Hartree energ DENC   =    -77779.02487707
  -exchange      EXHF   =         0.00000000
  -V(xc)+E(xc)   XCENC  =     -2086.98781208
  PAW double counting   =      8329.61105776    -5686.11751397
  entropy T*S    EENTRO =        -0.00000000
  eigenvalues    EBANDS =     -1233.64200075
  atomic energy  EATOM  =     11953.08265402
  Solvation  Ediel_sol  =         0.00000000
  ---------------------------------------------------
  free energy    TOTEN  =      -323.42252143 eV

  energy without entropy =     -323.42252143  energy(sigma->0) =     -323.42252143


--------------------------------------------------------------------------------------------------------




--------------------------------------- Iteration      1(  13)  ---------------------------------------


    POTLOK:  cpu time    0.2663: real time    0.2680
    SETDIJ:  cpu time    0.0109: real time    0.0109
    EDDIAG:  cpu time    2.5030: real time    2.5125
  RMM-DIIS:  cpu time   47.4256: real time   47.5582
    ORTHCH:  cpu time    0.2069: real time    0.2071
       DOS:  cpu time    0.0004: real time    0.0004
    CHARGE:  cpu time    1.1738: real time    1.1749
    MIXING:  cpu time    0.0076: real time    0.0076
    --------------------------------------------
      LOOP:  cpu time   51.5945: real time   51.7397

 eigenvalue-minimisations  :  2409
 total energy-change (2. order) : 0.6771653E-03  (-0.2128681E-02)
 number of electron     324.0000012 magnetization 
 augmentation part      -21.1990361 magnetization 

 Broyden mixing:
  rms(total) = 0.11106E-01    rms(broyden)= 0.11106E-01
  rms(prec ) = 0.13916E-01
  weight for this iteration     100.00

 eigenvalues of (default mixing * dielectric matrix)
  average eigenvalue GAMMA=   1.3643
  2.7626  2.7626  1.7058  1.2949  0.8002  0.8002  0.4069  0.3816

 Free energy of the ion-electron system (eV)
  ---------------------------------------------------
  alpha Z        PSCENC =       248.20471515
  Ewald energy   TEWEN  =     65931.45125550
  -Hartree energ DENC   =    -77781.43063423
  -exchange      EXHF   =         0.00000000
  -V(xc)+E(xc)   XCENC  =     -2086.91520681
  PAW double counting   =      8326.26669961    -5682.75344441
  entropy T*S    EENTRO =        -0.00000000
  eigenvalues    EBANDS =     -1231.32788310
  atomic energy  EATOM  =     11953.08265402
  Solvation  Ediel_sol  =         0.00000000
  ---------------------------------------------------
  free energy    TOTEN  =      -323.42184426 eV

  energy without entropy =     -323.42184426  energy(sigma->0) =     -323.42184426


--------------------------------------------------------------------------------------------------------




--------------------------------------- Iteration      1(  14)  ---------------------------------------


    POTLOK:  cpu time    0.2636: real time    0.2638
    SETDIJ:  cpu time    0.0122: real time    0.0122
    EDDIAG:  cpu time    2.5021: real time    2.5079
  RMM-DIIS:  cpu time   42.7289: real time   42.8256
    ORTHCH:  cpu time    0.2064: real time    0.2066
       DOS:  cpu time    0.0004: real time    0.0004
    CHARGE:  cpu time    1.1677: real time    1.1689
    MIXING:  cpu time    0.0099: real time    0.0099
    --------------------------------------------
      LOOP:  cpu time   46.8912: real time   46.9953

 eigenvalue-minimisations  :  2151
 total energy-change (2. order) :-0.5084983E-03  (-0.4989016E-03)
 number of electron     324.0000012 magnetization 
 augmentation part      -21.2203469 magnetization 

 Broyden mixing:
  rms(total) = 0.58792E-02    rms(broyden)= 0.58792E-02
  rms(prec ) = 0.74879E-02
  weight for this iteration     100.00

 eigenvalues of (default mixing * dielectric matrix)
  average eigenvalue GAMMA=   1.3413
  3.3056  2.5998  1.5899  1.5899  0.7963  0.7963  0.6051  0.4058  0.3826

 Free energy of the ion-electron system (eV)
  ---------------------------------------------------
  alpha Z        PSCENC =       248.20471515
  Ewald energy   TEWEN  =     65931.45125550
  -Hartree energ DENC   =    -77791.03921829
  -exchange      EXHF   =         0.00000000
  -V(xc)+E(xc)   XCENC  =     -2086.89510207
  PAW double counting   =      8324.21428165    -5680.57042114
  entropy T*S    EENTRO =        -0.00000000
  eigenvalues    EBANDS =     -1221.87051759
  atomic energy  EATOM  =     11953.08265402
  Solvation  Ediel_sol  =         0.00000000
  ---------------------------------------------------
  free energy    TOTEN  =      -323.42235276 eV

  energy without entropy =     -323.42235276  energy(sigma->0) =     -323.42235276


--------------------------------------------------------------------------------------------------------




--------------------------------------- Iteration      1(  15)  ---------------------------------------


    POTLOK:  cpu time    0.2685: real time    0.2687
    SETDIJ:  cpu time    0.0109: real time    0.0109
    EDDIAG:  cpu time    2.5149: real time    2.5182
  RMM-DIIS:  cpu time   51.8505: real time   51.9869
    ORTHCH:  cpu time    0.2098: real time    0.2101
       DOS:  cpu time    0.0004: real time    0.0004
    CHARGE:  cpu time    1.1693: real time    1.1705
    MIXING:  cpu time    0.0080: real time    0.0080
    --------------------------------------------
      LOOP:  cpu time   56.0323: real time   56.1737

 eigenvalue-minimisations  :  2631
 total energy-change (2. order) :-0.7822030E-03  (-0.2226364E-03)
 number of electron     324.0000012 magnetization 
 augmentation part      -21.2247761 magnetization 

 Broyden mixing:
  rms(total) = 0.54039E-02    rms(broyden)= 0.54039E-02
  rms(prec ) = 0.64749E-02
  weight for this iteration     100.00

 eigenvalues of (default mixing * dielectric matrix)
  average eigenvalue GAMMA=   1.3061
  3.3834  2.4788  1.7754  1.7754  0.8502  0.7947  0.7947  0.3812  0.3982  0.4289

 Free energy of the ion-electron system (eV)
  ---------------------------------------------------
  alpha Z        PSCENC =       248.20471515
  Ewald energy   TEWEN  =     65931.45125550
  -Hartree energ DENC   =    -77793.37472080
  -exchange      EXHF   =         0.00000000
  -V(xc)+E(xc)   XCENC  =     -2086.88233083
  PAW double counting   =      8324.38606076    -5680.74617424
  entropy T*S    EENTRO =        -0.00000000
  eigenvalues    EBANDS =     -1219.54459452
  atomic energy  EATOM  =     11953.08265402
  Solvation  Ediel_sol  =         0.00000000
  ---------------------------------------------------
  free energy    TOTEN  =      -323.42313496 eV

  energy without entropy =     -323.42313496  energy(sigma->0) =     -323.42313496


--------------------------------------------------------------------------------------------------------




--------------------------------------- Iteration      1(  16)  ---------------------------------------


    POTLOK:  cpu time    0.2658: real time    0.2661
    SETDIJ:  cpu time    0.0110: real time    0.0110
    EDDIAG:  cpu time    2.5023: real time    2.5080
  RMM-DIIS:  cpu time   49.1178: real time   49.2204
    ORTHCH:  cpu time    0.2113: real time    0.2116
       DOS:  cpu time    0.0004: real time    0.0004
    CHARGE:  cpu time    1.1666: real time    1.1698
    MIXING:  cpu time    0.0080: real time    0.0080
    --------------------------------------------
      LOOP:  cpu time   53.2831: real time   53.3953

 eigenvalue-minimisations  :  2484
 total energy-change (2. order) :-0.8896712E-03  (-0.4943211E-04)
 number of electron     324.0000012 magnetization 
 augmentation part      -21.2220980 magnetization 

 Broyden mixing:
  rms(total) = 0.32752E-02    rms(broyden)= 0.32752E-02
  rms(prec ) = 0.43135E-02
  weight for this iteration     100.00

 eigenvalues of (default mixing * dielectric matrix)
  average eigenvalue GAMMA=   1.3920
  4.0323  2.3380  2.1931  2.0056  1.0774  0.8015  0.8015  0.8784  0.3783  0.4100
  0.3960

 Free energy of the ion-electron system (eV)
  ---------------------------------------------------
  alpha Z        PSCENC =       248.20471515
  Ewald energy   TEWEN  =     65931.45125550
  -Hartree energ DENC   =    -77794.89134619
  -exchange      EXHF   =         0.00000000
  -V(xc)+E(xc)   XCENC  =     -2086.86897449
  PAW double counting   =      8324.21309000    -5680.59786213
  entropy T*S    EENTRO =        -0.00000000
  eigenvalues    EBANDS =     -1218.01755650
  atomic energy  EATOM  =     11953.08265402
  Solvation  Ediel_sol  =         0.00000000
  ---------------------------------------------------
  free energy    TOTEN  =      -323.42402463 eV

  energy without entropy =     -323.42402463  energy(sigma->0) =     -323.42402463


--------------------------------------------------------------------------------------------------------




--------------------------------------- Iteration      1(  17)  ---------------------------------------


    POTLOK:  cpu time    0.2648: real time    0.2651
    SETDIJ:  cpu time    0.0109: real time    0.0109
    EDDIAG:  cpu time    2.5112: real time    2.5154
  RMM-DIIS:  cpu time   41.1798: real time   41.2801
    ORTHCH:  cpu time    0.2075: real time    0.2077
       DOS:  cpu time    0.0005: real time    0.0005
    CHARGE:  cpu time    1.1680: real time    1.1722
    MIXING:  cpu time    0.0080: real time    0.0080
    --------------------------------------------
      LOOP:  cpu time   45.3506: real time   45.4599

 eigenvalue-minimisations  :  2088
 total energy-change (2. order) :-0.1940738E-02  (-0.4743105E-04)
 number of electron     324.0000012 magnetization 
 augmentation part      -21.2167782 magnetization 

 Broyden mixing:
  rms(total) = 0.15614E-02    rms(broyden)= 0.15614E-02
  rms(prec ) = 0.20627E-02
  weight for this iteration     100.00

 eigenvalues of (default mixing * dielectric matrix)
  average eigenvalue GAMMA=   1.4455
  4.7301  2.6750  2.1532  1.6556  1.6556  1.0110  0.8037  0.8037  0.6815  0.4076
  0.3768  0.3925

 Free energy of the ion-electron system (eV)
  ---------------------------------------------------
  alpha Z        PSCENC =       248.20471515
  Ewald energy   TEWEN  =     65931.45125550
  -Hartree energ DENC   =    -77798.90209563
  -exchange      EXHF   =         0.00000000
  -V(xc)+E(xc)   XCENC  =     -2086.84765699
  PAW double counting   =      8322.64393445    -5679.04378915
  entropy T*S    EENTRO =        -0.00000000
  eigenvalues    EBANDS =     -1214.01498273
  atomic energy  EATOM  =     11953.08265402
  Solvation  Ediel_sol  =         0.00000000
  ---------------------------------------------------
  free energy    TOTEN  =      -323.42596537 eV

  energy without entropy =     -323.42596537  energy(sigma->0) =     -323.42596537


--------------------------------------------------------------------------------------------------------




--------------------------------------- Iteration      1(  18)  ---------------------------------------


    POTLOK:  cpu time    0.2666: real time    0.2670
    SETDIJ:  cpu time    0.0108: real time    0.0108
    EDDIAG:  cpu time    2.5107: real time    2.5134
  RMM-DIIS:  cpu time   43.5044: real time   43.6124
    ORTHCH:  cpu time    0.2147: real time    0.2150
       DOS:  cpu time    0.0004: real time    0.0004
    CHARGE:  cpu time    1.1625: real time    1.1637
    MIXING:  cpu time    0.0097: real time    0.0097
    --------------------------------------------
      LOOP:  cpu time   47.6797: real time   47.7923

 eigenvalue-minimisations  :  2216
 total energy-change (2. order) :-0.7163345E-03  (-0.1566462E-04)
 number of electron     324.0000012 magnetization 
 augmentation part      -21.2172861 magnetization 

 Broyden mixing:
  rms(total) = 0.11999E-02    rms(broyden)= 0.11999E-02
  rms(prec ) = 0.14993E-02
  weight for this iteration     100.00

 eigenvalues of (default mixing * dielectric matrix)
  average eigenvalue GAMMA=   1.4530
  5.1123  2.7506  2.2126  1.8479  1.8479  0.9319  0.8100  0.8100  0.7216  0.6661
  0.4084  0.3774  0.3920

 Free energy of the ion-electron system (eV)
  ---------------------------------------------------
  alpha Z        PSCENC =       248.20471515
  Ewald energy   TEWEN  =     65931.45125550
  -Hartree energ DENC   =    -77800.27703225
  -exchange      EXHF   =         0.00000000
  -V(xc)+E(xc)   XCENC  =     -2086.84520675
  PAW double counting   =      8322.53116856    -5678.92054247
  entropy T*S    EENTRO =        -0.00000000
  eigenvalues    EBANDS =     -1212.65369348
  atomic energy  EATOM  =     11953.08265402
  Solvation  Ediel_sol  =         0.00000000
  ---------------------------------------------------
  free energy    TOTEN  =      -323.42668171 eV

  energy without entropy =     -323.42668171  energy(sigma->0) =     -323.42668171


--------------------------------------------------------------------------------------------------------




--------------------------------------- Iteration      1(  19)  ---------------------------------------


    POTLOK:  cpu time    0.2662: real time    0.2675
    SETDIJ:  cpu time    0.0109: real time    0.0109
    EDDIAG:  cpu time    2.5107: real time    2.5218
  RMM-DIIS:  cpu time   45.6534: real time   45.7753
    ORTHCH:  cpu time    0.2062: real time    0.2064
       DOS:  cpu time    0.0004: real time    0.0004
    CHARGE:  cpu time    1.1650: real time    1.1700
    MIXING:  cpu time    0.0083: real time    0.0083
    --------------------------------------------
      LOOP:  cpu time   49.8212: real time   49.9607

 eigenvalue-minimisations  :  2311
 total energy-change (2. order) :-0.5651288E-03  (-0.6745769E-05)
 number of electron     324.0000012 magnetization 
 augmentation part      -21.2170206 magnetization 

 Broyden mixing:
  rms(total) = 0.11305E-02    rms(broyden)= 0.11305E-02
  rms(prec ) = 0.13513E-02
  weight for this iteration     100.00

 eigenvalues of (default mixing * dielectric matrix)
  average eigenvalue GAMMA=   1.5712
  6.5352  3.1630  2.5018  1.9156  1.9156  1.0516  1.0516  0.8029  0.8029  0.7012
  0.4080  0.3917  0.3776  0.3776

 Free energy of the ion-electron system (eV)
  ---------------------------------------------------
  alpha Z        PSCENC =       248.20471515
  Ewald energy   TEWEN  =     65931.45125550
  -Hartree energ DENC   =    -77800.95499804
  -exchange      EXHF   =         0.00000000
  -V(xc)+E(xc)   XCENC  =     -2086.84379825
  PAW double counting   =      8322.85932645    -5679.24710581
  entropy T*S    EENTRO =        -0.00000000
  eigenvalues    EBANDS =     -1211.97929586
  atomic energy  EATOM  =     11953.08265402
  Solvation  Ediel_sol  =         0.00000000
  ---------------------------------------------------
  free energy    TOTEN  =      -323.42724683 eV

  energy without entropy =     -323.42724683  energy(sigma->0) =     -323.42724683


--------------------------------------------------------------------------------------------------------




--------------------------------------- Iteration      1(  20)  ---------------------------------------


    POTLOK:  cpu time    0.2663: real time    0.2666
    SETDIJ:  cpu time    0.0112: real time    0.0112
    EDDIAG:  cpu time    2.5055: real time    2.5084
  RMM-DIIS:  cpu time   42.7698: real time   42.8565
    ORTHCH:  cpu time    0.2115: real time    0.2117
       DOS:  cpu time    0.0004: real time    0.0004
    CHARGE:  cpu time    1.1652: real time    1.1664
    MIXING:  cpu time    0.0085: real time    0.0086
    --------------------------------------------
      LOOP:  cpu time   46.9383: real time   47.0299

 eigenvalue-minimisations  :  2133
 total energy-change (2. order) :-0.4540306E-03  (-0.4266568E-05)
 number of electron     324.0000012 magnetization 
 augmentation part      -21.2170395 magnetization 

 Broyden mixing:
  rms(total) = 0.49178E-03    rms(broyden)= 0.49178E-03
  rms(prec ) = 0.57351E-03
  weight for this iteration     100.00

 eigenvalues of (default mixing * dielectric matrix)
  average eigenvalue GAMMA=   1.5815
  7.0596  3.2570  2.5020  1.8884  1.8884  1.2196  1.2196  0.7997  0.7997  0.7876
  0.7462  0.4085  0.3932  0.3796  0.3738

 Free energy of the ion-electron system (eV)
  ---------------------------------------------------
  alpha Z        PSCENC =       248.20471515
  Ewald energy   TEWEN  =     65931.45125550
  -Hartree energ DENC   =    -77801.65973988
  -exchange      EXHF   =         0.00000000
  -V(xc)+E(xc)   XCENC  =     -2086.84228478
  PAW double counting   =      8323.25136735    -5679.64040804
  entropy T*S    EENTRO =        -0.00000000
  eigenvalues    EBANDS =     -1211.27526019
  atomic energy  EATOM  =     11953.08265402
  Solvation  Ediel_sol  =         0.00000000
  ---------------------------------------------------
  free energy    TOTEN  =      -323.42770087 eV

  energy without entropy =     -323.42770087  energy(sigma->0) =     -323.42770087


--------------------------------------------------------------------------------------------------------




--------------------------------------- Iteration      1(  21)  ---------------------------------------


    POTLOK:  cpu time    0.2670: real time    0.2673
    SETDIJ:  cpu time    0.0110: real time    0.0110
    EDDIAG:  cpu time    2.5082: real time    2.5138
  RMM-DIIS:  cpu time   40.9364: real time   41.0316
    ORTHCH:  cpu time    0.2072: real time    0.2074
       DOS:  cpu time    0.0004: real time    0.0004
    CHARGE:  cpu time    1.1695: real time    1.1720
    MIXING:  cpu time    0.0099: real time    0.0099
    --------------------------------------------
      LOOP:  cpu time   45.1096: real time   45.2135

 eigenvalue-minimisations  :  1963
 total energy-change (2. order) :-0.1104132E-03  (-0.1223414E-05)
 number of electron     324.0000012 magnetization 
 augmentation part      -21.2178859 magnetization 

 Broyden mixing:
  rms(total) = 0.39021E-03    rms(broyden)= 0.39021E-03
  rms(prec ) = 0.45822E-03
  weight for this iteration     100.00

 eigenvalues of (default mixing * dielectric matrix)
  average eigenvalue GAMMA=   1.5644
  7.3334  3.3009  2.4959  1.9890  1.9890  1.6119  1.0697  0.9262  0.8022  0.8022
  0.7319  0.3770  0.4072  0.3883  0.4031  0.4031

 Free energy of the ion-electron system (eV)
  ---------------------------------------------------
  alpha Z        PSCENC =       248.20471515
  Ewald energy   TEWEN  =     65931.45125550
  -Hartree energ DENC   =    -77801.79610359
  -exchange      EXHF   =         0.00000000
  -V(xc)+E(xc)   XCENC  =     -2086.84312677
  PAW double counting   =      8323.24985677    -5679.63907846
  entropy T*S    EENTRO =        -0.00000000
  eigenvalues    EBANDS =     -1211.13798390
  atomic energy  EATOM  =     11953.08265402
  Solvation  Ediel_sol  =         0.00000000
  ---------------------------------------------------
  free energy    TOTEN  =      -323.42781128 eV

  energy without entropy =     -323.42781128  energy(sigma->0) =     -323.42781128


--------------------------------------------------------------------------------------------------------




--------------------------------------- Iteration      1(  22)  ---------------------------------------


    POTLOK:  cpu time    0.2678: real time    0.2682
    SETDIJ:  cpu time    0.0110: real time    0.0110
    EDDIAG:  cpu time    2.5093: real time    2.5152
  RMM-DIIS:  cpu time   26.5178: real time   26.5862
    ORTHCH:  cpu time    0.2078: real time    0.2080
[...]
 -0.000  -0.000   0.000  -0.000   0.000   0.011   0.000  -0.000
  0.000  -0.000  -0.000   0.000   0.000   0.000   0.011  -0.000
  0.000   0.000   0.000   0.000   0.000  -0.000  -0.000   0.011
 -0.000  -0.000  -0.001  -0.000   0.000   0.000   0.000  -0.000
  0.000   0.000   0.014   0.001  -0.000   0.000  -0.000   0.000
 -0.010  -0.000  -0.000   0.018   0.000   0.000   0.000  -0.000
  0.000  -0.000  -0.000  -0.001   0.014   0.000   0.000   0.000
 -0.001  -0.000  -0.001   0.000  -0.001  -0.000  -0.000   0.000
 total augmentation occupancy for first ion, spin component:           1
  1.935   0.204   0.001  -0.199  -0.003  -0.000  -0.042   0.006  -0.001   0.000   0.008  -0.001   0.002
  0.204   1.383   0.005   0.925  -0.010  -0.013  -0.364   0.013  -0.002  -0.001  -0.027  -0.001  -0.004
  0.001   0.005   1.332   0.005  -0.004  -0.467   0.003   0.008  -0.000   0.114  -0.001  -0.003   0.042
 -0.199   0.925   0.005   1.497  -0.014   0.002  -0.548   0.006  -0.004   0.001   0.040  -0.004   0.004
 -0.003  -0.010  -0.004  -0.014   1.340   0.008   0.005  -0.481   0.042  -0.002  -0.000   0.117  -0.002
 -0.000  -0.013  -0.467   0.002   0.008   0.316  -0.001  -0.003   0.002  -0.036   0.001   0.000  -0.006
 -0.042  -0.364   0.003  -0.548   0.005  -0.001   0.286  -0.001   0.000  -0.000  -0.044   0.002   0.000
  0.006   0.013   0.008   0.006  -0.481  -0.003  -0.001   0.309  -0.010   0.001  -0.001  -0.038   0.002
 -0.001  -0.002  -0.000  -0.004   0.042   0.002   0.000  -0.010   0.022  -0.000   0.001  -0.000   0.000
  0.000  -0.001   0.114   0.001  -0.002  -0.036  -0.000   0.001  -0.000   0.018  -0.000  -0.000  -0.000
  0.008  -0.027  -0.001   0.040  -0.000   0.001  -0.044  -0.001   0.001  -0.000   0.020  -0.000   0.000
 -0.001  -0.001  -0.003  -0.004   0.117   0.000   0.002  -0.038  -0.000  -0.000  -0.000   0.018  -0.000
  0.002  -0.004   0.042   0.004  -0.002  -0.006   0.000   0.002   0.000  -0.000   0.000  -0.000   0.021


------------------------ aborting loop because EDIFF is reached ----------------------------------------


    CHARGE:  cpu time    1.1686: real time    1.1699
    FORLOC:  cpu time    0.0760: real time    0.0761
    FORNL :  cpu time   13.6398: real time   13.6624
    STRESS:  cpu time   71.0886: real time   71.2499
    FORCOR:  cpu time    0.2967: real time    0.2969
    FORHAR:  cpu time    0.1235: real time    0.1236
    MIXING:  cpu time    0.0073: real time    0.0074
    OFIELD:  cpu time    0.0000: real time    0.0000

  Number of pair interactions contributing to vdW energy:  273122
  Edisp (eV):  -19.56392
    FORVDW:  cpu time    0.0299: real time    0.0299

  FORCE on cell =-STRESS in cart. coord.  units (eV):
  Direction    XX          YY          ZZ          XY          YZ          ZX
  --------------------------------------------------------------------------------------
  Alpha Z   248.20472   248.20472   248.20472
  Ewald   75161.36004 75260.76897-84414.08845    -1.56472    -6.82084    -2.77967
  Hartree 77511.49811 77534.20265-77168.79741    -0.34004    -1.30903     1.24915
  E(xc)   -1354.47276 -1356.76258 -1374.24118    -0.04107     0.12795     0.47232
  Local  ************************156523.24770     1.73187     7.67852     2.19661
  n-local  3552.47250  3553.55625  3738.79847    -0.71781    -0.66852    -3.69553
  augment  -761.21863  -759.18574  -801.37057     0.20240     0.03322     0.76072
  Kinetic  3290.71444  3318.13284  3240.66043     1.86999    -1.50521    -0.12355
  Fock        0.00000     0.00000     0.00000     0.00000     0.00000     0.00000
  vdW       -12.11255   -12.48575   -10.68338    -0.05745    -0.26896     0.72408
  -------------------------------------------------------------------------------------
  Total      -4.52066    27.03493   -18.26967     1.08318    -2.73287    -1.19588
  in kB      -2.50496    14.98040   -10.12346     0.60020    -1.51432    -0.66265
  external pressure =        0.78 kB  Pullay stress =        0.00 kB

  kinetic pressure (ideal gas correction) =      0.22 kB
  total pressure  =      1.00 kB
  Total+kin.    -2.304      15.196      -9.887       0.611      -1.533      -0.596

 VOLUME and BASIS-vectors are now :
 -----------------------------------------------------------------------------
  energy-cutoff  :      550.00
  volume of cell :     2891.43
      direct lattice vectors                 reciprocal lattice vectors
    10.626817380  0.000000000  0.000000000     0.094101551  0.056579620 -0.000933287
    -5.344612478  8.889001397  0.000000000     0.000000000  0.112498576 -0.000346181
     0.246947230  0.094191785 30.609501753     0.000000000  0.000000000  0.032669594

  length of vectors
    10.626817380 10.372040705 30.610642800     0.109805402  0.112499109  0.032669594


 FORCES acting on ions
    electron-ion (+dipol)            ewald-force                    non-local-force                 convergence-correction
 -----------------------------------------------------------------------------------------------
   -.245E+01 0.191E+01 0.861E+03   0.241E+01 -.202E+01 -.867E+03   0.398E+00 -.156E+00 0.532E+01   0.489E-04 0.336E-03 0.333E-03
   0.113E+00 -.456E+01 0.862E+03   -.120E+00 0.457E+01 -.867E+03   0.423E-01 0.310E+00 0.535E+01   0.103E-02 -.502E-03 -.248E-03
   -.115E+01 -.173E+01 0.860E+03   0.109E+01 0.169E+01 -.865E+03   0.122E+00 0.825E-01 0.532E+01   0.829E-03 0.138E-02 -.184E-03
   0.500E+00 -.919E+00 0.865E+03   -.540E+00 0.844E+00 -.870E+03   0.339E-01 0.242E+00 0.557E+01   0.178E-03 -.519E-03 0.947E-03
   -.334E+00 -.248E+01 0.859E+03   0.302E+00 0.236E+01 -.865E+03   0.180E+00 0.386E+00 0.536E+01   -.421E-03 -.250E-03 0.227E-03
   0.285E+00 -.269E+01 0.861E+03   -.301E+00 0.257E+01 -.866E+03   0.396E-01 0.396E+00 0.537E+01   -.615E-03 0.231E-03 0.752E-03
   0.139E+01 0.125E+01 0.862E+03   -.143E+01 -.134E+01 -.867E+03   0.785E-01 -.844E-01 0.551E+01   -.290E-03 0.157E-03 0.359E-03
   -.678E+00 0.446E+00 0.863E+03   0.637E+00 -.434E+00 -.868E+03   0.213E+00 -.134E+00 0.523E+01   -.627E-03 -.102E-02 -.680E-03
   0.327E+00 -.352E+01 0.863E+03   -.356E+00 0.349E+01 -.869E+03   0.203E+00 0.280E+00 0.546E+01   -.178E-03 0.263E-03 -.371E-03
   -.143E+01 -.191E+01 -.112E+03   0.143E+01 0.182E+01 0.107E+03   0.282E+00 0.347E+00 0.519E+01   0.508E-03 0.422E-03 0.711E-03
   -.928E+00 -.146E+01 -.114E+03   0.998E+00 0.137E+01 0.109E+03   0.807E-01 0.197E-01 0.561E+01   -.776E-03 -.373E-03 0.217E-03
   0.499E+00 -.147E+01 -.115E+03   -.463E+00 0.143E+01 0.110E+03   -.140E+00 0.175E+00 0.525E+01   -.313E-03 -.382E-03 0.315E-03
   -.171E+01 -.123E+01 -.114E+03   0.172E+01 0.111E+01 0.109E+03   0.182E+00 0.338E+00 0.531E+01   -.355E-03 0.991E-03 0.860E-03
   -.107E+01 -.277E+01 -.112E+03   0.106E+01 0.268E+01 0.106E+03   0.122E+00 0.380E+00 0.534E+01   0.870E-03 -.999E-03 0.690E-03
   0.175E+00 -.191E+01 -.116E+03   -.958E-01 0.184E+01 0.110E+03   -.755E-01 0.166E+00 0.544E+01   0.421E-03 0.476E-03 -.200E-03
   0.709E+00 -.460E+00 -.116E+03   -.711E+00 0.375E+00 0.111E+03   0.173E+00 0.187E+00 0.521E+01   -.202E-03 0.263E-03 0.875E-03
   0.225E+01 -.182E+01 -.113E+03   -.221E+01 0.169E+01 0.108E+03   -.265E+00 0.318E+00 0.516E+01   -.380E-06 -.174E-03 0.127E-02
   -.813E-01 -.788E+00 -.112E+03   0.616E-01 0.670E+00 0.107E+03   0.421E-01 0.291E+00 0.519E+01   -.280E-05 -.259E-03 0.678E-03
   0.125E+01 -.892E+00 0.114E+03   -.128E+01 0.838E+00 -.109E+03   -.127E+00 0.681E-01 -.553E+01   0.117E-03 0.320E-03 -.385E-03
   0.983E+00 -.148E+01 0.115E+03   -.969E+00 0.144E+01 -.110E+03   -.170E+00 0.875E-01 -.563E+01   0.981E-03 -.474E-03 0.207E-03
   -.166E+01 -.126E+01 0.114E+03   0.164E+01 0.123E+01 -.109E+03   0.102E+00 0.901E-01 -.536E+01   0.769E-03 0.130E-02 0.227E-03
   0.224E+01 -.534E+00 0.114E+03   -.225E+01 0.459E+00 -.109E+03   -.313E+00 0.164E+00 -.527E+01   0.227E-03 -.476E-03 -.978E-03
   -.103E+01 -.168E+01 0.116E+03   0.103E+01 0.160E+01 -.111E+03   0.149E+00 0.204E+00 -.558E+01   -.469E-03 -.297E-03 -.305E-03
   0.191E+01 -.199E+01 0.115E+03   -.197E+01 0.196E+01 -.110E+03   -.104E+00 0.177E+00 -.547E+01   -.633E-03 0.240E-03 -.818E-03
   -.417E+00 -.139E+01 0.116E+03   0.471E+00 0.135E+01 -.110E+03   -.830E-01 0.103E+00 -.548E+01   -.332E-03 0.168E-03 -.378E-03
   0.766E+00 -.179E+01 0.112E+03   -.799E+00 0.182E+01 -.107E+03   -.688E-01 0.169E+00 -.527E+01   -.615E-03 -.115E-02 0.771E-03
   -.612E+00 -.152E+01 0.114E+03   0.597E+00 0.146E+01 -.109E+03   0.246E+00 0.120E+00 -.508E+01   -.207E-03 0.294E-03 0.327E-03
   0.483E+00 -.376E+01 -.865E+03   -.463E+00 0.371E+01 0.870E+03   -.941E-01 0.532E+00 -.523E+01   0.474E-03 0.283E-03 -.625E-03
   0.887E+00 -.247E+01 -.863E+03   -.827E+00 0.239E+01 0.868E+03   -.144E+00 0.119E+00 -.530E+01   -.880E-03 -.437E-03 -.183E-03
   0.696E+00 0.182E+01 -.863E+03   -.664E+00 -.190E+01 0.868E+03   -.215E+00 -.879E-01 -.558E+01   -.469E-03 -.350E-03 -.141E-03
   -.199E+00 0.612E+00 -.861E+03   0.203E+00 -.687E+00 0.866E+03   -.121E+00 -.445E-01 -.548E+01   -.294E-03 0.101E-02 -.900E-03
   -.119E+01 -.326E+01 -.862E+03   0.116E+01 0.326E+01 0.867E+03   0.840E-01 0.197E+00 -.488E+01   0.959E-03 -.927E-03 -.708E-03
   -.721E+00 -.149E+01 -.859E+03   0.769E+00 0.143E+01 0.864E+03   0.662E-01 0.349E-01 -.530E+01   0.412E-03 0.566E-03 0.238E-03
   0.691E+00 0.382E+00 -.863E+03   -.630E+00 -.470E+00 0.868E+03   -.632E-01 0.800E-01 -.567E+01   -.188E-03 0.211E-03 -.645E-03
   0.149E+01 -.562E+01 -.863E+03   -.144E+01 0.562E+01 0.868E+03   -.246E+00 0.520E+00 -.523E+01   -.763E-04 -.108E-03 -.107E-02
   0.554E+00 0.116E+01 -.863E+03   -.593E+00 -.131E+01 0.868E+03   -.140E-01 0.135E+00 -.541E+01   0.187E-04 -.262E-03 -.425E-03
   0.346E+00 -.227E+00 0.486E+03   -.420E+00 0.200E+00 -.486E+03   -.285E+00 0.184E+00 -.261E+00   0.270E-03 0.105E-02 -.195E-03
   0.682E+00 0.273E+01 0.490E+03   -.702E+00 -.282E+01 -.490E+03   -.178E+00 0.953E-01 0.448E+00   0.374E-03 -.243E-03 -.696E-04
   -.356E+01 0.210E+01 0.486E+03   0.358E+01 -.217E+01 -.486E+03   0.291E+00 -.804E-01 -.130E-01   0.643E-03 0.464E-04 -.146E-03
   -.582E+00 0.329E+01 0.489E+03   0.600E+00 -.338E+01 -.489E+03   0.168E-01 -.242E+00 0.309E-02   0.483E-03 0.705E-03 -.144E-03
   -.148E+01 0.409E+01 0.488E+03   0.154E+01 -.430E+01 -.488E+03   0.325E-01 -.221E+00 0.692E-03   0.967E-04 -.331E-03 -.131E-03
   0.807E+00 0.225E+01 0.489E+03   -.856E+00 -.242E+01 -.489E+03   0.165E-01 -.110E+00 0.131E+00   0.146E-03 0.766E-04 -.103E-03
   0.152E+01 0.708E+00 0.489E+03   -.155E+01 -.723E+00 -.489E+03   -.246E+00 0.350E-01 -.267E+00   -.777E-03 0.409E-03 -.140E-03
   -.700E+00 0.356E+01 0.490E+03   0.697E+00 -.363E+01 -.491E+03   0.101E+00 0.955E-01 -.141E+00   -.477E-03 -.111E-02 -.727E-04
   0.306E+01 0.370E+01 0.487E+03   -.311E+01 -.382E+01 -.487E+03   -.568E+00 -.238E+00 0.248E-01   -.801E-03 -.502E-03 -.164E-03
   0.869E+00 0.157E+01 -.491E+03   -.860E+00 -.164E+01 0.491E+03   -.769E-01 -.552E-01 0.270E-01   -.248E-03 -.968E-04 0.137E-03
   -.141E+01 -.430E+00 -.492E+03   0.147E+01 0.363E+00 0.493E+03   0.239E+00 0.180E+00 0.898E-01   -.785E-03 -.523E-03 0.189E-03
   -.100E+01 0.655E+01 -.488E+03   0.103E+01 -.676E+01 0.488E+03   -.773E-02 -.548E+00 0.115E+00   -.201E-04 0.359E-04 0.281E-03
   -.544E+00 0.434E+01 -.488E+03   0.429E+00 -.458E+01 0.488E+03   0.201E-01 -.263E+00 -.794E-01   0.501E-03 0.975E-04 0.175E-03
   0.189E+01 0.471E+00 -.492E+03   -.191E+01 -.594E+00 0.492E+03   -.256E+00 0.175E+00 -.491E+00   0.393E-03 -.548E-03 0.122E-03
   -.203E+01 0.229E+01 -.486E+03   0.204E+01 -.233E+01 0.486E+03   0.222E+00 -.606E-01 0.242E+00   -.340E-03 0.815E-03 0.220E-03
   0.388E+00 0.593E+01 -.485E+03   -.357E+00 -.613E+01 0.485E+03   -.947E-01 -.495E+00 0.195E+00   -.244E-03 0.511E-03 0.197E-03
   -.194E+01 0.228E+01 -.486E+03   0.197E+01 -.242E+01 0.486E+03   0.333E+00 -.416E+00 0.113E+00   0.402E-03 -.664E-03 0.303E-03
   0.111E+01 0.165E+01 -.487E+03   -.106E+01 -.175E+01 0.487E+03   -.112E+00 0.161E+00 0.290E+00   0.324E-03 0.423E-03 0.239E-03
 -----------------------------------------------------------------------------------------------
   -.452E-01 -.441E+01 0.135E+00   0.220E-13 -.104E-13 0.244E-11   0.449E-01 0.441E+01 -.137E+00   -.155E-03 0.111E-03 0.146E-02
 
 
 POSITION                                       TOTAL-FORCE (eV/Angst)
 -----------------------------------------------------------------------------------
      0.05569      2.03531      9.82114         0.344760     -0.243015      0.243330
     -1.72280      4.96083      9.81768         0.030416      0.309510      0.240440
     -3.49035      7.94141      9.83500         0.063236      0.050044      0.223156
      3.61440      2.00310      9.78245        -0.008825      0.165513      0.537143
      1.83586      4.96914      9.83425         0.144816      0.266583      0.223130
      0.06355      7.92135      9.82631         0.025051      0.272265      0.238520
      7.15300      2.02691      9.80646         0.036827     -0.158065      0.403086
      5.36655      4.98768      9.82041         0.165868     -0.111238      0.183350
      3.60006      7.92760      9.80685         0.173354      0.245522      0.388089
      1.58749      1.53600     17.09638         0.289607      0.250074      0.069159
     -0.16819      4.51307     17.08891         0.165847     -0.071669      0.419138
     -1.93334      7.45666     17.11260        -0.085312      0.119581      0.017132
      5.14537      1.53515     17.10338         0.204892      0.217012      0.053066
      3.37219      4.47807     17.08819         0.122826      0.270877      0.162215
      1.60724      7.43893     17.10717         0.025076      0.076654      0.140313
      8.69273      1.53645     17.11869         0.183186      0.096745     -0.047318
      6.94562      4.50902     17.10171        -0.192840      0.178702     -0.036215
      5.15750      7.46973     17.09610         0.043289      0.170704      0.001828
      0.10466      2.02853     13.52494        -0.170409      0.035541     -0.341073
     -1.69001      4.97187     13.52557        -0.170430      0.055790     -0.442600
     -3.47909      7.93995     13.51564         0.058980      0.077868     -0.135318
      3.65403      2.01562     13.51213        -0.336793      0.104079     -0.138189
      1.83559      4.98833     13.51484         0.125487      0.136454     -0.328316
      0.07826      7.93757     13.51583        -0.176462      0.153605     -0.243775
      7.18172      2.01815     13.50984        -0.044616      0.078062     -0.275256
      5.39542      4.95204     13.52083        -0.118402      0.191782     -0.122801
      3.59463      7.94328     13.50050         0.206249      0.075052      0.116904
      1.63890      1.51546     20.80036        -0.070079      0.472562     -0.199744
     -0.14931      4.50197     20.78974        -0.083071      0.045437     -0.154988
     -1.91527      7.49777     20.80666        -0.176854     -0.152546     -0.483156
      5.18790      1.57359     20.78334        -0.112025     -0.100146     -0.363046
      3.39882      4.49929     20.75664         0.055358      0.189960      0.236167
      1.59033      7.48288     20.76283         0.106572     -0.007747     -0.105449
      8.70923      1.54245     20.81005        -0.003344     -0.002334     -0.570588
      6.93820      4.47924     20.78509        -0.198284      0.501641     -0.163950
      5.16041      7.48660     20.79173        -0.049330     -0.004557     -0.348391
     -5.23782      8.91741     11.68735        -0.349885      0.173320     -0.350729
     -1.68118      2.98869     11.64000        -0.204752      0.002702      0.634755
      7.13235      5.94909     11.67588         0.346531     -0.156014     -0.023600
      3.63645      0.04707     11.66578         0.030029     -0.363673     -0.016229
      1.85652      3.00709     11.66774         0.096042     -0.426836      0.007587
      0.05805      5.96225     11.66293        -0.018596     -0.273457      0.134072
      1.85307      8.91256     11.67802        -0.291418      0.015657     -0.426323
      5.38198      2.98395     11.66710         0.123249      0.022017     -0.266491
      3.65414      5.97067     11.66945        -0.652187     -0.386038      0.076260
     -0.14505      2.52043     18.94950        -0.083858     -0.129745      0.081141
     -1.94395      5.47760     18.94768         0.315899      0.143583      0.237412
     -3.70446      8.48543     18.94062         0.016301     -0.811492      0.108255
      3.38695      2.53420     18.94387        -0.061233     -0.510738     -0.084246
      1.62642      5.46131     18.97035        -0.308732      0.089091     -0.575033
     -0.18112      8.45478     18.92646         0.262821     -0.115853      0.317220
      6.94143      2.55466     18.93001        -0.081481     -0.740323      0.179163
      5.14296      5.51292     18.92747         0.377766     -0.572697      0.173498
      3.38163      8.43793     18.92760        -0.091540      0.084827      0.397042
 -----------------------------------------------------------------------------------
    total drift:                               -0.000426      0.000634     -0.000253


--------------------------------------------------------------------------------------------------------



  FREE ENERGIE OF THE ION-ELECTRON SYSTEM (eV)
  ---------------------------------------------------
  free  energy   TOTEN  =      -342.87047075 eV

  energy  without entropy=     -342.87047075  energy(sigma->0) =     -342.87047075
 
 d Force =-0.2424553E-01[-0.265E-01,-0.220E-01]  d Energy =-0.2418491E-01-0.606E-04
 d Force =-0.1303465E+02[-0.130E+02,-0.130E+02]  d Ewald  =-0.1303464E+02-0.226E-05


--------------------------------------------------------------------------------------------------------


    POTLOK:  cpu time    0.2819: real time    0.2821


--------------------------------------------------------------------------------------------------------


           RANDOM_SEED =         224468485              324                0
   IONSTEP:  cpu time    0.0001: real time    0.0001

  ENERGY OF THE ELECTRON-ION-THERMOSTAT SYSTEM (eV)
  ---------------------------------------------------
% ion-electron   TOTEN  =      -342.870471  see above
  kinetic energy EKIN   =         0.579958
  kin. lattice  EKIN_LAT=         0.000000  (temperature   84.66 K)
  nose potential ES     =        -0.014950
  nose kinetic   EPS    =         0.001741
  ---------------------------------------------------
  total energy   ETOTAL =      -342.303722 eV

  maximum distance moved by ions :      0.49E-03


 mean value of Nose-termostat <S>:     0.983 mean value of <T> :    84.655
 mean temperature <T/S>/<1/S>  :    84.655

    WAVPRE:  cpu time    0.0983: real time    0.1016
    FEWALD:  cpu time    0.0012: real time    0.0012
    ORTHCH:  cpu time    7.9578: real time    7.9795
    POTLOK:  cpu time    0.2836: real time    0.2839
    EDDIAG:  cpu time    2.5141: real time    2.5209
     LOOP+:  cpu time  468.3450: real time  469.4002
    4ORBIT:  cpu time    0.0000: real time    0.0000

 total amount of memory used by VASP MPI-rank0   365521. kBytes
=======================================================================

   base      :      30000. kBytes
   nonl-proj :     195287. kBytes
   fftplans  :      18984. kBytes
   grid      :      86187. kBytes
   one-center:        839. kBytes
   wavefun   :      34224. kBytes
 
  
  
 General timing and accounting informations for this job:
 ========================================================
  
                  Total CPU time used (sec):     5690.797
                            User time (sec):     5677.685
                          System time (sec):       13.113
                         Elapsed time (sec):     5703.882
  
                   Maximum memory used (kb):      806452.
                   Average memory used (kb):           0.
  
                          Minor page faults:       364553
                          Major page faults:            0
                 Voluntary context switches:         3822
