 vasp.6.1.0 28Jan20 (build May 20 2021 23:37:26) gamma-only                     
  
 executed on             LinuxIFC date 2023.11.04  01:31:33
 running 1440 mpi-ranks, with    1 threads/rank
 distrk:  each k-point on 1440 cores,    1 groups
 distr:  one band on NCORE=  72 cores,   20 groups


--------------------------------------------------------------------------------------------------------


 INCAR:
 POTCAR:    PAW_PBE Te 08Apr2002                  
 POTCAR:    PAW_PBE Mo 08Apr2002                  
 POTCAR:    PAW_PBE Te 08Apr2002                  
   VRHFIN =Te: s2p4                                                                                 
   LEXCH  = PE                                                                                      
   EATOM  =   223.2721 eV,   16.4100 Ry                                                             
                                                                                                    
   TITEL  = PAW_PBE Te 08Apr2002                                                                    
   LULTRA =        F    use ultrasoft PP ?                                                          
   IUNSCR =        1    unscreen: 0-lin 1-nonlin 2-no                                               
   RPACOR =    2.200    partial core radius                                                         
   POMASS =  127.600; ZVAL   =    6.000    mass and valenz                                          
   RCORE  =    2.300    outmost cutoff radius                                                       
   RWIGS  =    2.900; RWIGS  =    1.535    wigner-seitz radius (au A)                               
   ENMAX  =  174.982; ENMIN  =  131.236 eV                                                          
   ICORE  =        3    local potential                                                             
   LCOR   =        T    correct aug charges                                                         
   LPAW   =        T    paw PP                                                                      
   EAUG   =  368.792                                                                                
   DEXC   =    0.000                                                                                
   RMAX   =    2.345    core radius for proj-oper                                                   
   RAUG   =    1.300    factor for augmentation sphere                                              
   RDEP   =    2.397    radius for radial grids                                                     
   RDEPT  =    2.174    core radius for aug-charge                                                  
                                                                                                    
   Atomic configuration                                                                             
   13 entries                                                                                       
     n  l   j            E        occ.                                                              
     1  0  0.50    -31621.2075   2.0000                                                             
     2  0  0.50     -4848.7941   2.0000                                                             
     2  1  1.50     -4352.1960   6.0000                                                             
     3  0  0.50      -964.9612   2.0000                                                             
     3  1  1.50      -803.6179   6.0000                                                             
     3  2  2.50      -559.8710  10.0000                                                             
     4  0  0.50      -164.3522   2.0000                                                             
     4  1  1.50      -114.3756   6.0000                                                             
     4  2  2.50       -41.6483  10.0000                                                             
     5  0  0.50       -15.1072   2.0000                                                             
     5  1  0.50        -5.9526   4.0000                                                             
     5  2  1.50        -5.4423   0.0000                                                             
     4  3  2.50        -5.4423   0.0000                                                             
   Description                                                                                      
     l       E           TYP  RCUT    TYP  RCUT                                                     
     0    -15.1072389     23  2.300                                                                 
     0    -16.4678215     23  2.300                                                                 
     1     -5.9526306     23  2.300                                                                 
     1     -2.4873968     23  2.300                                                                 
     2     -5.4423304     23  2.300                                                                 
     3     -1.3605826     23  2.300                                                                 
  local pseudopotential read in
  partial core-charges read in
  partial kinetic energy density read in
  atomic valenz-charges read in
  non local Contribution for L=           0  read in
    real space projection operators read in
  non local Contribution for L=           0  read in
    real space projection operators read in
  non local Contribution for L=           1  read in
    real space projection operators read in
  non local Contribution for L=           1  read in
    real space projection operators read in
  non local Contribution for L=           2  read in
    real space projection operators read in
    PAW grid and wavefunctions read in
 
   number of l-projection  operators is LMAX  =           5
   number of lm-projection operators is LMMAX =          13
 
 POTCAR:    PAW_PBE Mo 08Apr2002                  
   VRHFIN =Mo: 4p5s4d                                                                               
   LEXCH  = PE                                                                                      
   EATOM  =   217.5176 eV,   15.9871 Ry                                                             
                                                                                                    
   TITEL  = PAW_PBE Mo 08Apr2002                                                                    
   LULTRA =        F    use ultrasoft PP ?                                                          
   IUNSCR =        1    unscreen: 0-lin 1-nonlin 2-no                                               
   RPACOR =    2.200    partial core radius                                                         
   POMASS =   95.940; ZVAL   =    6.000    mass and valenz                                          
   RCORE  =    2.750    outmost cutoff radius                                                       
   RWIGS  =    2.750; RWIGS  =    1.455    wigner-seitz radius (au A)                               
   ENMAX  =  224.584; ENMIN  =  168.438 eV                                                          
   RCLOC  =    2.111    cutoff for local pot                                                        
   LCOR   =        T    correct aug charges                                                         
   LPAW   =        T    paw PP                                                                      
   EAUG   =  345.278                                                                                
   DEXC   =    0.000                                                                                
   RMAX   =    2.821    core radius for proj-oper                                                   
   RAUG   =    1.300    factor for augmentation sphere                                              
   RDEP   =    2.815    radius for radial grids                                                     
   RDEPT  =    2.211    core radius for aug-charge                                                  
                                                                                                    
   Atomic configuration                                                                             
   12 entries                                                                                       
     n  l   j            E        occ.                                                              
     1  0  0.50    -19819.0341   2.0000                                                             
     2  0  0.50     -2799.0127   2.0000                                                             
     2  1  1.50     -2502.0276   6.0000                                                             
     3  0  0.50      -476.4448   2.0000                                                             
     3  1  1.50      -379.1496   6.0000                                                             
     3  2  2.50      -220.9367  10.0000                                                             
     4  0  0.50       -64.3378   2.0000                                                             
     4  1  1.50       -38.4773   6.0000                                                             
     4  2  2.50        -3.7535   5.0000                                                             
     5  0  0.50        -4.0862   1.0000                                                             
     5  1  0.50        -2.7701   0.0000                                                             
     4  3  2.50        -1.3606   0.0000                                                             
   Description                                                                                      
     l       E           TYP  RCUT    TYP  RCUT                                                     
     2     -3.7534765     23  2.500                                                                 
     2     -5.1140591     23  2.500                                                                 
     0     -4.0861560     23  2.600                                                                 
     0     13.6058260     23  2.600                                                                 
     1      5.4423304     23  2.750                                                                 
     1     27.2116520     23  2.750                                                                 
  local pseudopotential read in
  partial core-charges read in
  partial kinetic energy density read in
  atomic valenz-charges read in
  non local Contribution for L=           2  read in
    real space projection operators read in
  non local Contribution for L=           2  read in
    real space projection operators read in
  non local Contribution for L=           0  read in
    real space projection operators read in
  non local Contribution for L=           0  read in
    real space projection operators read in
  non local Contribution for L=           1  read in
    real space projection operators read in
  non local Contribution for L=           1  read in
    real space projection operators read in
    PAW grid and wavefunctions read in
 
   number of l-projection  operators is LMAX  =           6
   number of lm-projection operators is LMMAX =          18
 
 Optimization of the real space projectors (new method)

 maximal supplied QI-value         = 16.25
 optimisation between [QCUT,QGAM] = [  7.96, 16.09] = [ 17.76, 72.49] Ry 
 Optimized for a Real-space Cutoff    1.55 Angstroem

   l    n(q)    QCUT    max X(q) W(low)/X(q) W(high)/X(q)  e(spline) 
   0      7     7.963   224.858    0.39E-03    0.38E-03    0.70E-07
   0      7     7.963   205.313    0.39E-03    0.38E-03    0.71E-07
   1      7     7.963   119.695    0.39E-03    0.18E-03    0.18E-06
   1      7     7.963    84.282    0.39E-03    0.18E-03    0.18E-06
   2      6     7.963     5.599    0.31E-03    0.21E-03    0.46E-07
 Optimization of the real space projectors (new method)

 maximal supplied QI-value         = 13.61
 optimisation between [QCUT,QGAM] = [  8.03, 16.19] = [ 18.05, 73.41] Ry 
 Optimized for a Real-space Cutoff    1.97 Angstroem

   l    n(q)    QCUT    max X(q) W(low)/X(q) W(high)/X(q)  e(spline) 
   2      9     8.028    69.166    0.27E-03    0.70E-03    0.27E-06
   2      9     8.028    67.737    0.26E-03    0.70E-03    0.27E-06
   0     10     8.028    52.066    0.35E-04    0.57E-04    0.89E-07
   0     10     8.028    24.514    0.28E-04    0.49E-04    0.74E-07
   1      9     8.028    16.033    0.12E-03    0.31E-04    0.10E-06
   1      9     8.028    11.179    0.92E-04    0.27E-04    0.86E-07
  PAW_PBE Te 08Apr2002                  :
 energy of atom  1       EATOM= -223.2721
 kinetic energy error for atom=    0.0032 (will be added to EATOM!!)
  PAW_PBE Mo 08Apr2002                  :
 energy of atom  2       EATOM= -217.5176
 kinetic energy error for atom=    0.0235 (will be added to EATOM!!)
 
 
 POSCAR: # File generated with Atomsk by ningm on
  positions in direct lattice
  velocities in cartesian coordinates
 exchange correlation table for  LEXCH =        8
   RHO(1)=    0.500       N(1)  =     2000
   RHO(2)=  100.500       N(2)  =     4000
 


--------------------------------------------------------------------------------------------------------


 ion  position               nearest neighbor table
     1  0.002  0.030  0.310-  1589 2.72  1788 2.72  1591 2.72     4 3.53   177 3.54   210 3.54   397 3.54     3 3.54
                             211 3.54   398 3.62
     2  0.086  0.025  0.311-  1590 2.72  1820 2.72  1594 2.72   242 3.52     3 3.53     7 3.53   209 3.53     8 3.53
                             210 3.54   399 3.62
     3  0.060  0.056  0.310-  1591 2.72  1590 2.72  1595 2.72     8 3.53     9 3.53     2 3.53   210 3.54     1 3.54
                               4 3.54   400 3.62
     4  0.033  0.088  0.311-  1591 2.72  1596 2.72  1592 2.72    10 3.53     9 3.53     1 3.53   211 3.53     3 3.54
                               5 3.54   401 3.62
     5  0.006  0.119  0.312-  1592 2.72  1597 2.72  1821 2.72    11 3.51   211 3.52    10 3.53   212 3.53   243 3.54
                               4 3.54   402 3.62
     6  0.171  0.021  0.314-  1593 2.72  1850 2.72  1600 2.73   271 3.50     7 3.51   241 3.53    15 3.53    14 3.53
                             242 3.54   403 3.62
     7  0.144  0.052  0.313-  1594 2.72  1593 2.72  1601 2.73     6 3.51     8 3.53    15 3.53     2 3.53    16 3.53
                             242 3.53   404 3.62
     8  0.118  0.083  0.312-  1595 2.72  1594 2.72  1602 2.72    16 3.52     7 3.53     3 3.53    17 3.53     9 3.53
                               2 3.53   405 3.62
     9  0.091  0.115  0.312-  1596 2.72  1603 2.72  1595 2.72    17 3.52    18 3.53     4 3.53     3 3.53     8 3.53
                              10 3.54   406 3.62
    10  0.064  0.146  0.312-  1604 2.72  1597 2.72  1596 2.72    19 3.52    18 3.52     4 3.53     5 3.53     9 3.54
                              11 3.54   407 3.62
    11  0.037  0.177  0.314-  1605 2.72  1597 2.72  1598 2.72    20 3.50     5 3.51    19 3.52   243 3.53    12 3.54
                              10 3.54   408 3.62
    12  0.010  0.208  0.316-  1606 2.72  1598 2.72  1851 2.73    21 3.49   243 3.50    20 3.53   244 3.53    11 3.54
                             272 3.54   409 3.62
    13  0.256  0.018  0.317-  1877 2.72  1599 2.72  1609 2.73   297 3.48    14 3.49   270 3.53    25 3.53   271 3.54
                              24 3.54   410 3.62
    14  0.229  0.048  0.316-  1600 2.72  1599 2.72  1610 2.73    13 3.49    15 3.50   271 3.53    25 3.53     6 3.53
                              26 3.53   411 3.62
    15  0.203  0.079  0.315-  1601 2.72  1600 2.72  1611 2.73    14 3.50    16 3.51    26 3.52     7 3.53    27 3.53
                               6 3.53   412 3.62
    16  0.176  0.110  0.314-  1602 2.72  1601 2.72  1612 2.72    27 3.51    15 3.51     8 3.52    17 3.53     7 3.53
                              28 3.53   413 3.62
    17  0.149  0.141  0.313-  1603 2.72  1613 2.72  1602 2.72    28 3.51     9 3.52    16 3.53    29 3.53     8 3.53
                              18 3.54   414 3.62
    18  0.122  0.173  0.313-  1604 2.72  1614 2.72  1603 2.72    29 3.51    10 3.52    30 3.52     9 3.53    17 3.54
                              19 3.54   415 3.62
    19  0.095  0.204  0.314-  1615 2.72  1605 2.72  1604 2.72    30 3.51    31 3.51    10 3.52    11 3.52    18 3.54
                              20 3.54   416 3.62
    20  0.068  0.235  0.316-  1616 2.72  1605 2.72  1606 2.72    32 3.50    11 3.50    31 3.51    12 3.53    19 3.54
                              21 3.55   417 3.62
    21  0.040  0.266  0.317-  1617 2.72  1606 2.72  1607 2.73    33 3.49    12 3.49    32 3.52   272 3.53    20 3.55
                              22 3.55   418 3.62
    22  0.012  0.296  0.318-  1618 2.71  1607 2.72  1878 2.73    34 3.48   272 3.48    33 3.53   273 3.53    21 3.55
                             298 3.56   419 3.62
    23  0.342  0.016  0.319-  1901 2.71  1608 2.72  1621 2.73   320 3.47    24 3.47   296 3.53    38 3.53   297 3.56
                              37 3.56   420 3.62
    24  0.315  0.046  0.319-  1608 2.71  1609 2.72  1622 2.73    23 3.47    25 3.48    39 3.53   297 3.53    13 3.54
                              38 3.55   421 3.62
    25  0.287  0.076  0.318-  1609 2.72  1610 2.72  1623 2.73    24 3.48    26 3.49    40 3.53    14 3.53    13 3.53
                              39 3.53   422 3.62
    26  0.260  0.106  0.318-  1611 2.72  1610 2.72  1624 2.73    25 3.49    27 3.50    40 3.52    15 3.52    41 3.53
                              14 3.53   423 3.62
    27  0.234  0.137  0.316-  1612 2.71  1611 2.72  1625 2.72    26 3.50    41 3.51    16 3.51    28 3.52    15 3.53
                              42 3.54   424 3.62
    28  0.207  0.168  0.315-  1613 2.72  1626 2.72  1612 2.73    42 3.50    17 3.51    27 3.52    29 3.53    16 3.53
                              43 3.54   425 3.62
    29  0.180  0.199  0.315-  1614 2.72  1627 2.72  1613 2.73    43 3.49    18 3.51    17 3.53    28 3.53    44 3.53
                              30 3.54   426 3.62
    30  0.153  0.231  0.315-  1615 2.72  1628 2.72  1614 2.73    44 3.49    19 3.51    18 3.52    45 3.53    29 3.54
                              31 3.54   427 3.62
    31  0.126  0.262  0.316-  1629 2.72  1616 2.72  1615 2.72    45 3.50    46 3.51    19 3.51    20 3.51    30 3.54
                              32 3.54   428 3.62
    32  0.098  0.292  0.318-  1630 2.72  1616 2.72  1617 2.72    47 3.50    20 3.50    46 3.51    21 3.52    31 3.54
                              33 3.55   429 3.62
    33  0.070  0.323  0.318-  1631 2.71  1617 2.72  1618 2.73    48 3.48    21 3.49    47 3.52    22 3.53    32 3.55
                              34 3.56   430 3.62
    34  0.042  0.353  0.319-  1632 2.71  1618 2.72  1619 2.73    49 3.48    22 3.48    48 3.52   298 3.53    33 3.56
                              35 3.56   431 3.62
    35  0.014  0.383  0.319-  1633 2.71  1619 2.72  1902 2.73    50 3.47   298 3.47    49 3.53   299 3.53    34 3.56
                             321 3.57   432 3.62
    36  0.428  0.015  0.319-  1922 2.71  1620 2.72  1636 2.73   340 3.47    37 3.47   319 3.53    54 3.53   320 3.57
                              53 3.57   433 3.62
    37  0.401  0.045  0.320-  1620 2.71  1621 2.72  1637 2.73    36 3.47    38 3.47    55 3.53   320 3.53    23 3.56
                              54 3.56   434 3.62
    38  0.373  0.074  0.320-  1621 2.71  1622 2.72  1638 2.73    37 3.47    39 3.48    56 3.53    23 3.53    24 3.55
                              55 3.55   435 3.62
    39  0.346  0.104  0.320-  1622 2.72  1623 2.72  1639 2.73    38 3.48    40 3.48    57 3.53    24 3.53    25 3.53
                              56 3.54   436 3.62
    40  0.318  0.134  0.320-  1624 2.72  1623 2.72  1640 2.73    39 3.48    41 3.49    57 3.52    26 3.52    25 3.53
                              58 3.53   437 3.62
    41  0.291  0.164  0.319-  1625 2.71  1624 2.72  1641 2.73    40 3.49    58 3.50    27 3.51    42 3.51    26 3.53
                              59 3.54   438 3.62
    42  0.264  0.195  0.318-  1626 2.71  1642 2.72  1625 2.73    59 3.49    28 3.50    41 3.51    43 3.52    27 3.54
                              60 3.54   439 3.62
    43  0.238  0.226  0.317-  1627 2.71  1643 2.72  1626 2.73    60 3.49    29 3.49    42 3.52    44 3.54    28 3.54
                              61 3.54   440 3.62
    44  0.211  0.257  0.317-  1628 2.72  1644 2.72  1627 2.73    61 3.48    30 3.49    29 3.53    43 3.54    62 3.54
                              45 3.54   441 3.62
    45  0.183  0.289  0.317-  1629 2.72  1645 2.72  1628 2.73    62 3.49    31 3.50    30 3.53    63 3.53    44 3.54
                              46 3.54   442 3.62
    46  0.156  0.319  0.318-  1646 2.72  1630 2.72  1629 2.73    63 3.49    32 3.51    64 3.51    31 3.51    45 3.54
                              47 3.54   443 3.62
    47  0.128  0.350  0.319-  1647 2.72  1630 2.72  1631 2.72    32 3.50    65 3.50    64 3.50    33 3.52    46 3.54
                              48 3.55   444 3.62
    48  0.100  0.380  0.319-  1648 2.71  1631 2.72  1632 2.73    33 3.48    66 3.49    65 3.51    34 3.52    47 3.55
                              49 3.56   445 3.62
    49  0.072  0.410  0.319-  1649 2.71  1632 2.72  1633 2.73    34 3.48    67 3.48    66 3.52    35 3.53    48 3.56
                              50 3.57   446 3.62
    50  0.043  0.440  0.319-  1650 2.71  1633 2.72  1634 2.73    35 3.47    68 3.48    67 3.53   321 3.53    49 3.57
                              51 3.57   447 3.62
    51  0.014  0.470  0.319-  1651 2.71  1634 2.72  1923 2.73   321 3.47    69 3.47    68 3.53   322 3.53    50 3.57
                             341 3.57   448 3.62
    52  0.515  0.015  0.319-  1940 2.71  1635 2.72  1654 2.73   357 3.47    53 3.47    73 3.53   339 3.53    72 3.57
                             340 3.57   449 3.62
    53  0.487  0.044  0.319-  1635 2.71  1636 2.72  1655 2.73    52 3.47    54 3.47    74 3.53   340 3.53    73 3.57
                              36 3.57   450 3.62
    54  0.459  0.073  0.320-  1636 2.71  1637 2.72  1656 2.73    53 3.47    55 3.48    75 3.53    36 3.53    74 3.56
                              37 3.56   451 3.62
    55  0.432  0.103  0.321-  1637 2.71  1638 2.72  1657 2.73    54 3.48    56 3.48    76 3.53    37 3.53    38 3.55
                              75 3.55   452 3.62
    56  0.404  0.132  0.321-  1638 2.72  1639 2.72  1658 2.73    55 3.48    57 3.48    77 3.53    38 3.53    39 3.54
                              76 3.54   453 3.62
    57  0.376  0.162  0.321-  1640 2.72  1639 2.72  1659 2.73    56 3.48    58 3.49    40 3.52    77 3.52    39 3.53
                              78 3.53   454 3.62
    58  0.349  0.192  0.321-  1641 2.71  1640 2.72  1660 2.73    57 3.49    59 3.50    41 3.50    78 3.50    40 3.53
                              79 3.54   455 3.62
    59  0.322  0.223  0.320-  1642 2.71  1661 2.72  1641 2.73    79 3.49    42 3.49    58 3.50    60 3.52    41 3.54
                              80 3.55   456 3.62
    60  0.295  0.253  0.318-  1643 2.71  1662 2.72  1642 2.73    80 3.48    43 3.49    59 3.52    61 3.53    42 3.54
                              81 3.55   457 3.62
    61  0.268  0.285  0.318-  1644 2.71  1663 2.72  1643 2.73    81 3.48    44 3.48    60 3.53    62 3.54    43 3.54
                              82 3.55   458 3.62
    62  0.241  0.316  0.318-  1645 2.71  1664 2.72  1644 2.73    82 3.48    45 3.49    44 3.54    61 3.54    63 3.54
                              83 3.54   459 3.62
    63  0.214  0.347  0.319-  1646 2.72  1665 2.72  1645 2.73    83 3.48    46 3.49    45 3.53    84 3.53    62 3.54
                              64 3.54   460 3.62
    64  0.186  0.377  0.320-  1666 2.72  1647 2.72  1646 2.73    84 3.49    47 3.50    46 3.51    85 3.51    63 3.54
                              65 3.54   461 3.62
    65  0.158  0.408  0.320-  1667 2.72  1648 2.72  1647 2.72    47 3.50    85 3.50    86 3.50    48 3.51    64 3.54
                              66 3.55   462 3.62
    66  0.130  0.438  0.320-  1668 2.71  1648 2.72  1649 2.73    48 3.49    87 3.49    86 3.51    49 3.52    65 3.55
                              67 3.56   463 3.62
    67  0.101  0.468  0.320-  1669 2.71  1649 2.72  1650 2.73    49 3.48    88 3.48    87 3.52    50 3.53    66 3.56
                              68 3.57   464 3.62
    68  0.072  0.498  0.319-  1670 2.71  1650 2.72  1651 2.73    50 3.48    89 3.48    88 3.53    51 3.53    67 3.57
                              69 3.57   465 3.62
    69  0.043  0.528  0.319-  1671 2.71  1651 2.72  1652 2.73    51 3.47    90 3.47    89 3.53   341 3.53    68 3.57
                              70 3.57   466 3.62
    70  0.015  0.558  0.319-  1672 2.71  1652 2.72  1941 2.73   341 3.47    91 3.47   342 3.53    90 3.54   358 3.57
                              69 3.57   467 3.62
    71  0.602  0.014  0.319-  1955 2.71  1653 2.72  1675 2.73   371 3.47    72 3.47    95 3.53   356 3.53    94 3.57
                             357 3.57   468 3.62
    72  0.574  0.044  0.320-  1653 2.71  1654 2.72  1676 2.73    71 3.47    73 3.47    96 3.52   357 3.53    95 3.57
                              52 3.57   469 3.62
    73  0.546  0.073  0.320-  1654 2.71  1655 2.72  1677 2.73    72 3.47    74 3.48    97 3.52    52 3.53    96 3.57
                              53 3.57   470 3.62
    74  0.518  0.102  0.321-  1655 2.71  1656 2.72  1678 2.73    73 3.48    75 3.48    98 3.52    53 3.53    97 3.56
                              54 3.56   471 3.62
    75  0.490  0.131  0.321-  1656 2.71  1657 2.72  1679 2.73    74 3.48    76 3.48    99 3.52    54 3.53    98 3.55
                              55 3.55   472 3.62
    76  0.462  0.161  0.322-  1657 2.72  1658 2.72  1680 2.73    75 3.48    77 3.49   100 3.52    55 3.53    56 3.54
                              99 3.54   473 3.62
    77  0.434  0.190  0.322-  1659 2.72  1658 2.72  1681 2.73    76 3.49    78 3.49    57 3.52   100 3.52    56 3.53
                             101 3.53   474 3.62
    78  0.407  0.220  0.322-  1660 2.71  1659 2.72  1682 2.72    77 3.49    79 3.50    58 3.50   101 3.51    57 3.53
                             102 3.54   475 3.62
    79  0.379  0.250  0.321-  1661 2.71  1683 2.72  1660 2.73    59 3.49   102 3.49    78 3.50    80 3.51    58 3.54
                             103 3.55   476 3.62
    80  0.352  0.281  0.320-  1662 2.71  1684 2.72  1661 2.73    60 3.48   103 3.48    79 3.51    81 3.53    59 3.55
                             104 3.56   477 3.62
    81  0.325  0.312  0.319-  1663 2.71  1685 2.72  1662 2.73   104 3.47    61 3.48    80 3.53    82 3.54    60 3.55
                             105 3.56   478 3.62
    82  0.298  0.343  0.319-  1664 2.71  1686 2.72  1663 2.73   105 3.47    62 3.48    81 3.54    83 3.54    61 3.55
                             106 3.56   479 3.62
    83  0.271  0.374  0.319-  1665 2.72  1687 2.72  1664 2.73   106 3.48    63 3.48    84 3.54    82 3.54    62 3.54
                             107 3.54   480 3.62
    84  0.243  0.405  0.320-  1666 2.72  1688 2.72  1665 2.73   107 3.48    64 3.49    63 3.53   108 3.53    83 3.54
                              85 3.54   481 3.62
    85  0.215  0.435  0.321-  1689 2.72  1667 2.72  1666 2.73   108 3.49    65 3.50    64 3.51   109 3.51    84 3.54
                              86 3.54   482 3.62
    86  0.187  0.465  0.321-  1690 2.72  1668 2.72  1667 2.72    65 3.50   109 3.50   110 3.50    66 3.51    85 3.54
                              87 3.55   483 3.62
    87  0.159  0.495  0.321-  1691 2.71  1668 2.72  1669 2.73    66 3.49   111 3.49   110 3.51    67 3.52    86 3.55
                              88 3.56   484 3.62
    88  0.130  0.525  0.320-  1692 2.71  1669 2.72  1670 2.73    67 3.48   112 3.49   111 3.52    68 3.53    87 3.56
                              89 3.56   485 3.62
    89  0.102  0.555  0.320-  1693 2.71  1670 2.72  1671 2.73    68 3.48   113 3.48   112 3.53    69 3.53    88 3.56
                              90 3.57   486 3.62
    90  0.073  0.585  0.319-  1694 2.71  1671 2.72  1672 2.73    69 3.47   114 3.48   113 3.53    70 3.54    89 3.57
                              91 3.57   487 3.62
    91  0.044  0.615  0.319-  1695 2.71  1672 2.72  1673 2.73    70 3.47   115 3.47   358 3.53   114 3.54    92 3.57
                              90 3.57   488 3.62
    92  0.015  0.645  0.319-  1696 2.71  1673 2.72  1956 2.73   358 3.47   116 3.47   359 3.53   115 3.54   372 3.56
                              91 3.57   489 3.62
    93  0.688  0.013  0.319-  1967 2.71  1674 2.72  1699 2.73    94 3.47   382 3.48   120 3.53   370 3.54   119 3.55
                             371 3.56   490 3.62
    94  0.661  0.043  0.320-  1674 2.71  1675 2.72  1700 2.73    93 3.47    95 3.48   121 3.52   371 3.53   120 3.56
                              71 3.57   491 3.62
    95  0.633  0.072  0.320-  1675 2.71  1676 2.72  1701 2.73    94 3.48    96 3.48   122 3.52    71 3.53   121 3.56
                              72 3.57   492 3.62
    96  0.605  0.101  0.321-  1676 2.71  1677 2.72  1702 2.73    95 3.48    97 3.48   123 3.52    72 3.52   122 3.56
                              73 3.57   493 3.62
    97  0.577  0.131  0.321-  1677 2.71  1678 2.72  1703 2.73    96 3.48    98 3.49   124 3.51    73 3.52   123 3.55
                              74 3.56   494 3.62
    98  0.548  0.160  0.322-  1678 2.72  1679 2.72  1704 2.73    97 3.49    99 3.49   125 3.52    74 3.52   124 3.55
                              75 3.55   495 3.62
    99  0.520  0.189  0.322-  1679 2.72  1680 2.72  1705 2.73    98 3.49   100 3.49   126 3.52    75 3.52   125 3.54
                              76 3.54   496 3.62
   100  0.492  0.219  0.323-  1681 2.72  1680 2.72  1706 2.73    99 3.49   101 3.49    77 3.52   126 3.52    76 3.52
                             127 3.53   497 3.62
   101  0.464  0.248  0.323-  1682 2.72  1681 2.72  1707 2.72   100 3.49   102 3.50    78 3.51   127 3.51    77 3.53
                             128 3.54   498 3.62
   102  0.437  0.278  0.322-  1683 2.71  1708 2.72  1682 2.73    79 3.49   128 3.50   101 3.50   103 3.51    78 3.54
                             129 3.55   499 3.62
   103  0.409  0.309  0.321-  1684 2.71  1709 2.72  1683 2.73    80 3.48   129 3.48   102 3.51   104 3.52    79 3.55
                             130 3.56   500 3.62
   104  0.382  0.339  0.320-  1685 2.71  1710 2.72  1684 2.73    81 3.47   130 3.48   103 3.52   105 3.53    80 3.56
                             131 3.57   501 3.62
   105  0.355  0.370  0.319-  1686 2.71  1711 2.72  1685 2.73   131 3.47    82 3.47   104 3.53   106 3.54    81 3.56
                             132 3.57   502 3.62
   106  0.328  0.402  0.319-  1687 2.71  1712 2.72  1686 2.73   132 3.47    83 3.48   107 3.54   105 3.54    82 3.56
                             133 3.56   503 3.62
   107  0.301  0.432  0.320-  1688 2.72  1713 2.72  1687 2.73   133 3.48    84 3.48   108 3.53   106 3.54   134 3.54
                              83 3.54   504 3.62
   108  0.273  0.463  0.321-  1714 2.72  1689 2.72  1688 2.73   134 3.49    85 3.49    84 3.53   135 3.53   107 3.53
                             109 3.53   505 3.62
   109  0.245  0.493  0.321-  1715 2.72  1690 2.72  1689 2.72   135 3.50    86 3.50    85 3.51   136 3.52   108 3.53
                             110 3.54   506 3.62
   110  0.217  0.523  0.321-  1716 2.72  1691 2.72  1690 2.72    86 3.50   136 3.51   137 3.51    87 3.51   109 3.54
                             111 3.54   507 3.62
   111  0.188  0.553  0.321-  1717 2.72  1691 2.72  1692 2.73    87 3.49   138 3.50   137 3.51    88 3.52   110 3.54
                             112 3.55   508 3.62
   112  0.160  0.582  0.320-  1718 2.72  1692 2.72  1693 2.73    88 3.49   139 3.49   138 3.52    89 3.53   111 3.55
                             113 3.55   509 3.62
   113  0.131  0.612  0.320-  1719 2.71  1693 2.72  1694 2.73    89 3.48   140 3.48   139 3.53    90 3.53   112 3.55
                             114 3.56   510 3.62
   114  0.102  0.642  0.319-  1720 2.71  1694 2.72  1695 2.73    90 3.48   141 3.48   140 3.53    91 3.54   113 3.56
                             115 3.56   511 3.62
   115  0.073  0.672  0.319-  1721 2.71  1695 2.72  1696 2.73    91 3.47   142 3.48   141 3.54    92 3.54   116 3.56
                             114 3.56   512 3.62
   116  0.045  0.702  0.319-  1722 2.71  1696 2.72  1697 2.73    92 3.47   143 3.48   372 3.54   142 3.54   117 3.55
                             115 3.56   513 3.62
   117  0.017  0.732  0.318-  1723 2.71  1697 2.72  1968 2.73   372 3.48   144 3.48   373 3.53   143 3.54   383 3.54
                             116 3.55   514 3.62
   118  0.774  0.011  0.317-  1976 2.71  1698 2.72  1726 2.73   119 3.49   390 3.49   148 3.52   381 3.54   147 3.54
                             382 3.54   515 3.62
   119  0.747  0.041  0.318-  1698 2.71  1699 2.72  1727 2.73   120 3.48   118 3.49   149 3.52   382 3.53   148 3.54
                              93 3.55   516 3.62
   120  0.719  0.071  0.320-  1699 2.71  1700 2.72  1728 2.73   119 3.48   121 3.48   150 3.51    93 3.53   149 3.55
                              94 3.56   517 3.62
   121  0.691  0.101  0.321-  1700 2.71  1701 2.72  1729 2.73   120 3.48   122 3.48   151 3.51    94 3.52   150 3.55
                              95 3.56   518 3.62
   122  0.663  0.130  0.321-  1701 2.71  1702 2.72  1730 2.73   121 3.48   123 3.49   152 3.51    95 3.52   151 3.55
                              96 3.56   519 3.62
   123  0.635  0.159  0.322-  1702 2.71  1703 2.72  1731 2.73   122 3.49   124 3.49   153 3.51    96 3.52   152 3.55
                              97 3.55   520 3.62
   124  0.607  0.189  0.322-  1703 2.72  1704 2.72  1732 2.73   123 3.49   125 3.50   154 3.51    97 3.51   153 3.54
                              98 3.55   521 3.62
   125  0.578  0.218  0.323-  1704 2.72  1705 2.72  1733 2.73   124 3.50   126 3.50   155 3.52    98 3.52   154 3.53
                              99 3.54   522 3.62
   126  0.550  0.247  0.323-  1706 2.72  1705 2.72  1734 2.73   125 3.50   127 3.50    99 3.52   100 3.52   155 3.52
                             156 3.52   523 3.62
   127  0.522  0.277  0.323-  1707 2.72  1706 2.72  1735 2.72   126 3.50   128 3.50   101 3.51   156 3.51   100 3.53
                             157 3.53   524 3.62
   128  0.494  0.307  0.322-  1708 2.71  1736 2.72  1707 2.73   102 3.50   127 3.50   157 3.50   129 3.51   101 3.54
                             158 3.55   525 3.62
   129  0.467  0.337  0.321-  1709 2.71  1737 2.72  1708 2.73   103 3.48   158 3.49   128 3.51   130 3.52   102 3.55
                             159 3.56   526 3.62
   130  0.440  0.367  0.320-  1710 2.71  1738 2.72  1709 2.73   104 3.48   159 3.48   129 3.52   131 3.53   103 3.56
                             160 3.57   527 3.62
   131  0.412  0.398  0.319-  1711 2.71  1739 2.72  1710 2.73   105 3.47   160 3.47   130 3.53   132 3.53   104 3.57
                             161 3.57   528 3.62
   132  0.385  0.429  0.319-  1712 2.71  1740 2.72  1711 2.73   161 3.47   106 3.47   131 3.53   133 3.54   105 3.57
                             162 3.57   529 3.62
   133  0.358  0.460  0.319-  1713 2.71  1741 2.72  1712 2.73   162 3.48   107 3.48   134 3.53   132 3.54   163 3.56
                             106 3.56   530 3.62
   134  0.330  0.491  0.320-  1714 2.72  1742 2.72  1713 2.73   163 3.48   108 3.49   135 3.53   133 3.53   164 3.54
                             107 3.54   531 3.62
   135  0.303  0.521  0.321-  1715 2.72  1743 2.72  1714 2.73   164 3.49   109 3.50   134 3.53   136 3.53   165 3.53
                             108 3.53   532 3.62
   136  0.274  0.551  0.322-  1744 2.72  1716 2.72  1715 2.72   165 3.50   110 3.51   109 3.52   166 3.52   135 3.53
                             137 3.53   533 3.62
   137  0.246  0.581  0.322-  1745 2.72  1717 2.72  1716 2.72   110 3.51   167 3.51   166 3.51   111 3.51   136 3.53
                             138 3.54   534 3.62
   138  0.218  0.610  0.321-  1746 2.72  1717 2.72  1718 2.73   111 3.50   168 3.50   167 3.52   112 3.52   137 3.54
                             139 3.54   535 3.62
   139  0.189  0.640  0.321-  1747 2.72  1718 2.72  1719 2.73   112 3.49   169 3.49   168 3.52   113 3.53   138 3.54
                             140 3.54   536 3.62
   140  0.160  0.670  0.320-  1748 2.72  1719 2.72  1720 2.73   113 3.48   170 3.49   169 3.53   114 3.53   139 3.54
                             141 3.54   537 3.62
   141  0.132  0.699  0.320-  1749 2.72  1720 2.72  1721 2.73   114 3.48   171 3.48   170 3.53   115 3.54   140 3.54
                             142 3.54   538 3.62
   142  0.103  0.729  0.319-  1750 2.72  1721 2.72  1722 2.73   115 3.48   172 3.48   171 3.54   116 3.54   143 3.54
                             141 3.54   539 3.62
   143  0.075  0.759  0.318-  1751 2.71  1722 2.72  1723 2.73   116 3.48   173 3.49   144 3.54   117 3.54   172 3.54
                             142 3.54   540 3.62
   144  0.047  0.789  0.317-  1752 2.72  1723 2.72  1724 2.73   117 3.48   174 3.49   145 3.53   383 3.54   143 3.54
                             173 3.54   541 3.62
   145  0.019  0.820  0.315-  1753 2.72  1724 2.72  1977 2.73   383 3.49   175 3.51   391 3.53   384 3.53   144 3.53
                             174 3.54   542 3.62
   146  0.859  0.008  0.313-  1982 2.72  1725 2.72  1756 2.72   147 3.51   395 3.52   179 3.53   390 3.53   178 3.53
                             389 3.54   543 3.62
   147  0.832  0.039  0.315-  1725 2.72  1726 2.72  1757 2.73   148 3.50   146 3.51   180 3.52   390 3.53   179 3.53
                             118 3.54   544 3.62
   148  0.805  0.069  0.318-  1726 2.71  1727 2.72  1758 2.73   149 3.49   147 3.50   181 3.51   118 3.52   180 3.54
                             119 3.54   545 3.62
   149  0.777  0.099  0.320-  1727 2.71  1728 2.72  1759 2.73   150 3.49   148 3.49   182 3.50   119 3.52   181 3.54
                             120 3.55   546 3.62
   150  0.750  0.129  0.321-  1728 2.71  1729 2.72  1760 2.73   149 3.49   151 3.49   183 3.50   120 3.51   182 3.54
                             121 3.55   547 3.62
   151  0.722  0.158  0.322-  1729 2.71  1730 2.72  1761 2.73   150 3.49   152 3.50   184 3.50   121 3.51   183 3.54
                             122 3.55   548 3.62
   152  0.693  0.188  0.322-  1730 2.71  1731 2.72  1762 2.73   151 3.50   185 3.50   153 3.50   122 3.51   184 3.54
                             123 3.55   549 3.62
   153  0.665  0.217  0.323-  1731 2.72  1732 2.72  1763 2.73   152 3.50   154 3.51   186 3.51   123 3.51   185 3.53
                             124 3.54   550 3.62
   154  0.637  0.246  0.323-  1732 2.72  1733 2.72  1764 2.73   153 3.51   155 3.51   124 3.51   187 3.51   186 3.53
                             125 3.53   551 3.62
   155  0.608  0.276  0.323-  1733 2.72  1734 2.72  1765 2.72   154 3.51   156 3.51   125 3.52   188 3.52   187 3.52
                             126 3.52   552 3.62
   156  0.580  0.305  0.323-  1735 2.72  1734 2.72  1766 2.72   157 3.51   155 3.51   127 3.51   188 3.52   126 3.52
                             189 3.53   553 3.62
   157  0.552  0.335  0.323-  1736 2.72  1767 2.72  1735 2.73   128 3.50   189 3.51   156 3.51   158 3.51   127 3.53
                             190 3.54   554 3.62
   158  0.524  0.365  0.322-  1737 2.71  1768 2.72  1736 2.73   129 3.49   190 3.49   157 3.51   159 3.52   128 3.55
                             191 3.55   555 3.62
   159  0.497  0.395  0.321-  1738 2.71  1769 2.72  1737 2.73   130 3.48   191 3.48   158 3.52   160 3.52   129 3.56
                             192 3.57   556 3.62
   160  0.470  0.426  0.320-  1739 2.71  1770 2.72  1738 2.73   131 3.47   192 3.47   159 3.52   161 3.53   130 3.57
                             193 3.57   557 3.62
   161  0.442  0.457  0.319-  1740 2.71  1771 2.72  1739 2.73   193 3.47   132 3.47   160 3.53   162 3.54   131 3.57
                             194 3.57   558 3.62
   162  0.415  0.488  0.319-  1741 2.71  1772 2.72  1740 2.73   194 3.47   133 3.48   163 3.53   161 3.54   195 3.57
                             132 3.57   559 3.62
   163  0.388  0.519  0.320-  1742 2.71  1773 2.72  1741 2.73   195 3.48   134 3.48   164 3.53   162 3.53   196 3.55
                             133 3.56   560 3.62
   164  0.360  0.549  0.321-  1743 2.72  1774 2.72  1742 2.73   196 3.49   135 3.49   165 3.52   163 3.53   197 3.54
                             134 3.54   561 3.62
   165  0.332  0.579  0.322-  1744 2.72  1775 2.72  1743 2.72   197 3.50   136 3.50   166 3.52   164 3.52   198 3.53
                             135 3.53   562 3.62
   166  0.304  0.609  0.322-  1776 2.72  1745 2.72  1744 2.72   198 3.51   137 3.51   199 3.52   136 3.52   165 3.52
                             167 3.52   563 3.62
   167  0.275  0.638  0.322-  1777 2.72  1745 2.72  1746 2.72   137 3.51   200 3.51   199 3.52   138 3.52   166 3.52
                             168 3.53   564 3.62
   168  0.247  0.668  0.322-  1778 2.72  1746 2.72  1747 2.72   138 3.50   201 3.50   200 3.52   139 3.52   167 3.53
                             169 3.53   565 3.62
   169  0.218  0.697  0.321-  1779 2.72  1747 2.72  1748 2.73   139 3.49   202 3.50   140 3.53   201 3.53   168 3.53
                             170 3.53   566 3.62
   170  0.190  0.727  0.321-  1748 2.72  1780 2.72  1749 2.73   140 3.49   203 3.49   171 3.53   169 3.53   141 3.53
                             202 3.53   567 3.62
   171  0.161  0.757  0.320-  1781 2.72  1749 2.72  1750 2.73   141 3.48   204 3.49   172 3.53   170 3.53   142 3.54
                             203 3.54   568 3.62
   172  0.133  0.786  0.319-  1782 2.72  1750 2.72  1751 2.73   142 3.48   205 3.49   173 3.53   171 3.53   143 3.54
                             204 3.54   569 3.62
   173  0.105  0.817  0.317-  1783 2.72  1751 2.72  1752 2.73   143 3.49   206 3.50   174 3.53   172 3.53   144 3.54
                             205 3.54   570 3.62
   174  0.077  0.847  0.315-  1784 2.72  1752 2.72  1753 2.73   144 3.49   207 3.51   175 3.52   173 3.53   145 3.54
                             206 3.54   571 3.62
   175  0.050  0.878  0.313-  1785 2.72  1753 2.72  1754 2.72   145 3.51   208 3.52   174 3.52   176 3.53   391 3.54
                             207 3.54   572 3.62
   176  0.023  0.909  0.312-  1786 2.72  1754 2.72  1983 2.72   391 3.52   175 3.53   209 3.53   396 3.53   392 3.53
                             208 3.54   573 3.62
   177  0.944  0.003  0.310-  1985 2.72  1788 2.72  1755 2.72   178 3.53   395 3.53   211 3.53     1 3.54   397 3.54
                             394 3.54   574 3.62
   178  0.917  0.035  0.312-  1755 2.72  1789 2.72  1756 2.72   179 3.52   212 3.53   177 3.53   146 3.53   395 3.53
                             211 3.53   575 3.62
   179  0.890  0.066  0.314-  1756 2.72  1790 2.72  1757 2.72   180 3.51   213 3.51   178 3.52   146 3.53   212 3.53
                             147 3.53   576 3.62
   180  0.863  0.097  0.316-  1757 2.71  1791 2.72  1758 2.72   214 3.50   181 3.51   179 3.51   147 3.52   213 3.53
                             148 3.54   577 3.62
   181  0.836  0.127  0.319-  1758 2.71  1792 2.72  1759 2.73   215 3.49   182 3.50   180 3.51   148 3.51   214 3.53
                             149 3.54   578 3.62
   182  0.808  0.157  0.321-  1759 2.71  1793 2.72  1760 2.73   216 3.49   149 3.50   181 3.50   183 3.50   215 3.53
                             150 3.54   579 3.62
   183  0.780  0.187  0.322-  1760 2.71  1794 2.72  1761 2.72   217 3.49   150 3.50   182 3.50   184 3.51   216 3.53
                             151 3.54   580 3.62
   184  0.752  0.216  0.323-  1761 2.72  1795 2.72  1762 2.72   218 3.49   151 3.50   183 3.51   185 3.51   217 3.53
                             152 3.54   581 3.62
   185  0.723  0.245  0.323-  1762 2.72  1796 2.72  1763 2.72   219 3.50   152 3.50   184 3.51   186 3.51   218 3.53
                             153 3.53   582 3.62
   186  0.695  0.275  0.323-  1763 2.72  1797 2.72  1764 2.72   153 3.51   220 3.51   185 3.51   187 3.52   219 3.52
                             154 3.53   583 3.62
   187  0.666  0.304  0.323-  1764 2.72  1765 2.72  1798 2.72   154 3.51   221 3.52   188 3.52   186 3.52   220 3.52
                             155 3.52   584 3.62
   188  0.638  0.334  0.323-  1766 2.72  1799 2.72  1765 2.72   189 3.51   187 3.52   221 3.52   156 3.52   155 3.52
                             222 3.52   585 3.62
   189  0.610  0.363  0.323-  1767 2.72  1800 2.72  1766 2.73   157 3.51   222 3.51   190 3.51   188 3.51   156 3.53
                             223 3.53   586 3.62
   190  0.582  0.393  0.322-  1768 2.72  1801 2.72  1767 2.73   158 3.49   223 3.50   189 3.51   191 3.51   157 3.54
                             224 3.55   587 3.62
   191  0.554  0.423  0.321-  1769 2.71  1802 2.72  1768 2.73   159 3.48   224 3.49   190 3.51   192 3.52   158 3.55
                             225 3.56   588 3.62
   192  0.527  0.454  0.320-  1770 2.71  1803 2.72  1769 2.73   160 3.47   225 3.48   191 3.52   193 3.53   159 3.57
                             226 3.57   589 3.62
   193  0.500  0.485  0.319-  1771 2.71  1804 2.72  1770 2.73   161 3.47   226 3.47   192 3.53   194 3.53   160 3.57
                             227 3.57   590 3.62
   194  0.472  0.516  0.319-  1772 2.71  1805 2.72  1771 2.73   227 3.47   162 3.47   195 3.53   193 3.53   228 3.57
                             161 3.57   591 3.62
   195  0.445  0.547  0.320-  1773 2.71  1806 2.72  1772 2.73   228 3.48   163 3.48   196 3.53   194 3.53   229 3.56
                             162 3.57   592 3.62
   196  0.418  0.577  0.320-  1774 2.72  1807 2.72  1773 2.73   229 3.49   164 3.49   197 3.52   195 3.53   230 3.55
                             163 3.55   593 3.62
   197  0.390  0.607  0.321-  1775 2.72  1808 2.72  1774 2.73   230 3.50   165 3.50   198 3.52   196 3.52   231 3.54
                             164 3.54   594 3.62
   198  0.362  0.637  0.322-  1776 2.72  1809 2.72  1775 2.72   231 3.51   166 3.51   199 3.52   197 3.52   232 3.52
                             165 3.53   595 3.62
   199  0.333  0.667  0.322-  1810 2.72  1777 2.72  1776 2.72   233 3.52   167 3.52   198 3.52   200 3.52   166 3.52
                             232 3.52   596 3.62
   200  0.305  0.696  0.322-  1777 2.72  1811 2.72  1778 2.72   167 3.51   234 3.51   199 3.52   201 3.52   168 3.52
                             233 3.52   597 3.62
   201  0.276  0.726  0.322-  1778 2.72  1812 2.72  1779 2.72   168 3.50   235 3.51   202 3.52   200 3.52   169 3.53
                             234 3.53   598 3.62
   202  0.248  0.755  0.321-  1779 2.72  1813 2.72  1780 2.72   169 3.50   236 3.50   203 3.51   201 3.52   170 3.53
                             235 3.54   599 3.62
   203  0.220  0.785  0.321-  1780 2.72  1814 2.72  1781 2.73   170 3.49   237 3.50   204 3.51   202 3.51   171 3.54
                             236 3.54   600 3.62
   204  0.191  0.814  0.320-  1781 2.72  1815 2.72  1782 2.73   171 3.49   238 3.50   205 3.51   203 3.51   172 3.54
                             237 3.54   601 3.62
   205  0.163  0.844  0.318-  1782 2.72  1816 2.72  1783 2.73   172 3.49   239 3.51   204 3.51   206 3.51   173 3.54
                             238 3.54   602 3.62
   206  0.136  0.874  0.316-  1783 2.72  1817 2.72  1784 2.72   173 3.50   205 3.51   207 3.51   240 3.51   174 3.54
                             239 3.54   603 3.62
   207  0.108  0.905  0.314-  1784 2.72  1818 2.72  1785 2.72   174 3.51   206 3.51   208 3.52   241 3.52   175 3.54
                             240 3.54   604 3.62
   208  0.082  0.936  0.312-  1785 2.72  1819 2.72  1786 2.72   207 3.52   175 3.52   209 3.53   242 3.53   176 3.54
                             241 3.54   605 3.62
   209  0.055  0.967  0.311-  1787 2.72  1786 2.72  1820 2.72   208 3.53   176 3.53   210 3.53     2 3.53   396 3.54
                             242 3.54   606 3.62
   210  0.028  0.998  0.310-  1589 2.72  1590 2.72  1787 2.72   209 3.53     3 3.54     1 3.54   397 3.54   396 3.54
                               2 3.54   607 3.62
   211  0.975  0.061  0.311-  1788 2.72  1592 2.72  1789 2.72     5 3.52   177 3.53   212 3.53     4 3.53   178 3.53
                               1 3.54   608 3.62
   212  0.948  0.093  0.313-  1789 2.72  1821 2.72  1790 2.73   243 3.51   178 3.53   213 3.53   211 3.53   179 3.53
                               5 3.53   609 3.62
   213  0.921  0.124  0.315-  1790 2.72  1822 2.72  1791 2.73   244 3.50   179 3.51   214 3.52   212 3.53   180 3.53
                             243 3.53   610 3.62
   214  0.894  0.154  0.318-  1791 2.72  1823 2.72  1792 2.73   245 3.49   180 3.50   215 3.52   213 3.52   181 3.53
                             244 3.53   611 3.62
   215  0.866  0.184  0.320-  1792 2.72  1824 2.72  1793 2.73   246 3.48   181 3.49   216 3.52   214 3.52   245 3.53
                             182 3.53   612 3.62
   216  0.838  0.214  0.321-  1793 2.72  1825 2.72  1794 2.73   247 3.48   182 3.49   215 3.52   217 3.52   246 3.53
                             183 3.53   613 3.62
   217  0.810  0.244  0.322-  1794 2.72  1826 2.72  1795 2.73   248 3.49   183 3.49   216 3.52   218 3.52   247 3.53
                             184 3.53   614 3.62
   218  0.781  0.274  0.323-  1795 2.72  1827 2.72  1796 2.73   249 3.49   184 3.49   217 3.52   219 3.52   248 3.52
                             185 3.53   615 3.62
   219  0.753  0.303  0.323-  1796 2.72  1828 2.72  1797 2.73   250 3.50   185 3.50   249 3.52   218 3.52   220 3.52
                             186 3.52   616 3.62
   220  0.724  0.333  0.323-  1829 2.72  1797 2.72  1798 2.72   251 3.51   186 3.51   250 3.52   187 3.52   221 3.52
                             219 3.52   617 3.62
   221  0.696  0.362  0.323-  1830 2.72  1798 2.72  1799 2.72   251 3.51   187 3.52   188 3.52   252 3.52   222 3.52
                             220 3.52   618 3.62
   222  0.667  0.392  0.323-  1800 2.72  1831 2.72  1799 2.72   189 3.51   252 3.51   223 3.52   221 3.52   188 3.52
                             253 3.52   619 3.62
   223  0.639  0.422  0.323-  1801 2.72  1832 2.72  1800 2.73   190 3.50   253 3.50   222 3.52   224 3.52   189 3.53
                             254 3.54   620 3.62
   224  0.612  0.452  0.322-  1802 2.72  1833 2.72  1801 2.73   191 3.49   254 3.49   223 3.52   225 3.52   190 3.55
                             255 3.55   621 3.62
   225  0.584  0.482  0.321-  1803 2.71  1834 2.72  1802 2.73   192 3.48   255 3.48   224 3.52   226 3.53   191 3.56
                             256 3.56   622 3.62
   226  0.557  0.513  0.319-  1804 2.71  1835 2.72  1803 2.73   193 3.47   256 3.47   225 3.53   227 3.53   192 3.57
                             257 3.57   623 3.62
   227  0.530  0.544  0.319-  1805 2.71  1836 2.72  1804 2.73   257 3.47   194 3.47   228 3.53   226 3.53   258 3.57
                             193 3.57   624 3.62
   228  0.502  0.575  0.319-  1806 2.71  1837 2.72  1805 2.73   258 3.48   195 3.48   229 3.53   227 3.53   259 3.57
                             194 3.57   625 3.62
   229  0.475  0.605  0.320-  1807 2.71  1838 2.72  1806 2.73   259 3.48   196 3.49   230 3.52   228 3.53   260 3.56
                             195 3.56   626 3.62
   230  0.447  0.636  0.321-  1808 2.72  1839 2.72  1807 2.73   260 3.49   197 3.50   231 3.51   229 3.52   261 3.54
                             196 3.55   627 3.62
   231  0.419  0.665  0.322-  1809 2.72  1808 2.72  1840 2.72   261 3.51   198 3.51   232 3.51   230 3.51   262 3.53
                             197 3.54   628 3.62
   232  0.391  0.695  0.322-  1810 2.72  1809 2.72  1841 2.72   233 3.51   231 3.51   199 3.52   262 3.52   263 3.52
                             198 3.52   629 3.62
   233  0.363  0.725  0.322-  1810 2.72  1811 2.72  1842 2.72   234 3.51   232 3.51   199 3.52   264 3.52   200 3.52
                             263 3.53   630 3.62
   234  0.335  0.754  0.322-  1811 2.72  1843 2.72  1812 2.72   235 3.51   233 3.51   200 3.51   265 3.51   201 3.53
                             264 3.54   631 3.62
   235  0.306  0.783  0.321-  1812 2.72  1844 2.72  1813 2.72   236 3.50   201 3.51   234 3.51   266 3.51   202 3.54
                             265 3.54   632 3.62
   236  0.278  0.813  0.321-  1813 2.72  1845 2.72  1814 2.72   237 3.50   202 3.50   235 3.50   267 3.51   203 3.54
                             266 3.55   633 3.62
   237  0.250  0.842  0.320-  1814 2.72  1846 2.72  1815 2.72   238 3.50   203 3.50   236 3.50   268 3.51   204 3.54
                             267 3.55   634 3.62
   238  0.222  0.872  0.319-  1815 2.72  1816 2.72  1847 2.72   239 3.50   237 3.50   204 3.50   269 3.52   205 3.54
                             268 3.55   635 3.62
   239  0.194  0.902  0.318-  1816 2.72  1817 2.72  1848 2.72   238 3.50   240 3.50   205 3.51   270 3.52   206 3.54
                             269 3.55   636 3.62
   240  0.167  0.932  0.316-  1817 2.72  1818 2.72  1849 2.72   239 3.50   241 3.50   206 3.51   271 3.53   207 3.54
                             270 3.55   637 3.62
   241  0.140  0.963  0.314-  1818 2.72  1819 2.72  1850 2.72   240 3.50   242 3.51   207 3.52     6 3.53   271 3.54
                             208 3.54   638 3.62
   242  0.113  0.994  0.312-  1820 2.72  1819 2.72  1593 2.72   241 3.51     2 3.52   208 3.53     7 3.53     6 3.54
                             209 3.54   639 3.62
   243  0.979  0.151  0.314-  1821 2.72  1598 2.72  1822 2.73    12 3.50   212 3.51    11 3.53   213 3.53   244 3.53
                               5 3.54   640 3.62
   244  0.952  0.181  0.316-  1822 2.72  1851 2.72  1823 2.73   272 3.49   213 3.50    12 3.53   245 3.53   243 3.53
                             214 3.53   641 3.62
   245  0.924  0.212  0.318-  1852 2.72  1823 2.72  1824 2.73   273 3.48   214 3.49   215 3.53   244 3.53   272 3.53
                             246 3.53   642 3.62
   246  0.896  0.242  0.320-  1853 2.72  1824 2.72  1825 2.73   274 3.48   215 3.48   216 3.53   273 3.53   245 3.53
                             247 3.54   643 3.62
   247  0.868  0.272  0.321-  1854 2.72  1825 2.72  1826 2.73   275 3.48   216 3.48   217 3.53   274 3.53   246 3.54
                             248 3.54   644 3.62
   248  0.839  0.301  0.322-  1855 2.72  1826 2.72  1827 2.73   276 3.48   217 3.49   218 3.52   275 3.53   247 3.54
                             249 3.54   645 3.62
   249  0.811  0.331  0.322-  1856 2.72  1827 2.72  1828 2.73   277 3.49   218 3.49   219 3.52   276 3.52   250 3.54
                             248 3.54   646 3.62
   250  0.782  0.361  0.323-  1857 2.72  1828 2.72  1829 2.73   278 3.50   219 3.50   220 3.52   277 3.52   251 3.53
                             249 3.54   647 3.62
   251  0.754  0.390  0.323-  1858 2.72  1829 2.72  1830 2.73   279 3.51   220 3.51   278 3.51   221 3.51   252 3.53
                             250 3.53   648 3.62
   252  0.725  0.420  0.323-  1859 2.72  1831 2.72  1830 2.72   279 3.51   222 3.51   280 3.51   221 3.52   253 3.52
                             251 3.53   649 3.62
   253  0.697  0.450  0.323-  1860 2.72  1832 2.72  1831 2.73   223 3.50   280 3.50   254 3.52   281 3.52   222 3.52
                             252 3.52   650 3.62
   254  0.669  0.480  0.322-  1833 2.72  1861 2.72  1832 2.73   224 3.49   281 3.49   253 3.52   255 3.52   223 3.54
                             282 3.54   651 3.62
   255  0.641  0.510  0.321-  1834 2.71  1862 2.72  1833 2.73   225 3.48   282 3.48   254 3.52   256 3.53   224 3.55
                             283 3.55   652 3.62
   256  0.614  0.541  0.320-  1835 2.71  1863 2.72  1834 2.73   226 3.47   283 3.48   255 3.53   257 3.53   225 3.56
                             284 3.56   653 3.62
   257  0.587  0.572  0.319-  1836 2.71  1864 2.72  1835 2.73   227 3.47   284 3.47   258 3.53   256 3.53   285 3.57
                             226 3.57   654 3.62
   258  0.560  0.603  0.319-  1837 2.71  1865 2.72  1836 2.73   285 3.47   228 3.48   259 3.53   257 3.53   286 3.57
                             227 3.57   655 3.62
   259  0.532  0.633  0.320-  1838 2.71  1866 2.72  1837 2.73   286 3.48   229 3.48   260 3.52   258 3.53   287 3.56
                             228 3.57   656 3.62
   260  0.505  0.664  0.321-  1839 2.71  1867 2.72  1838 2.73   287 3.49   230 3.49   261 3.51   259 3.52   288 3.55
                             229 3.56   657 3.62
   261  0.477  0.694  0.321-  1840 2.72  1839 2.72  1868 2.72   288 3.50   262 3.51   231 3.51   260 3.51   289 3.54
                             230 3.54   658 3.62
   262  0.449  0.724  0.322-  1841 2.72  1840 2.72  1869 2.72   263 3.50   261 3.51   289 3.52   232 3.52   290 3.53
                             231 3.53   659 3.62
   263  0.421  0.753  0.322-  1841 2.72  1842 2.72  1870 2.72   264 3.50   262 3.50   232 3.52   291 3.52   233 3.53
                             290 3.53   660 3.62
   264  0.393  0.782  0.321-  1842 2.72  1843 2.72  1871 2.73   265 3.50   263 3.50   233 3.52   292 3.52   234 3.54
                             291 3.54   661 3.62
   265  0.364  0.812  0.321-  1843 2.72  1844 2.72  1872 2.73   266 3.49   264 3.50   234 3.51   293 3.52   235 3.54
                             292 3.55   662 3.62
   266  0.336  0.841  0.321-  1844 2.71  1845 2.72  1873 2.73   267 3.49   265 3.49   235 3.51   294 3.52   236 3.55
                             293 3.56   663 3.62
   267  0.308  0.870  0.320-  1845 2.71  1846 2.72  1874 2.73   268 3.49   266 3.49   236 3.51   295 3.52   237 3.55
                             294 3.56   664 3.62
   268  0.280  0.900  0.319-  1846 2.71  1847 2.72  1875 2.73   269 3.48   267 3.49   237 3.51   296 3.52   238 3.55
                             295 3.56   665 3.62
   269  0.252  0.930  0.318-  1847 2.71  1848 2.72  1876 2.73   268 3.48   270 3.49   238 3.52   297 3.53   239 3.55
                             296 3.56   666 3.62
   270  0.225  0.960  0.317-  1848 2.72  1849 2.72  1877 2.73   269 3.49   271 3.49   239 3.52    13 3.53   240 3.55
                             297 3.55   667 3.62
   271  0.198  0.990  0.316-  1849 2.72  1850 2.72  1599 2.73   270 3.49     6 3.50   240 3.53    14 3.53   241 3.54
                              13 3.54   668 3.62
   272  0.982  0.239  0.317-  1607 2.72  1851 2.72  1852 2.73    22 3.48   244 3.49    21 3.53   245 3.53    12 3.54
                             273 3.54   669 3.62
   273  0.954  0.269  0.319-  1878 2.71  1852 2.72  1853 2.73   298 3.47   245 3.48   246 3.53    22 3.53   272 3.54
                             274 3.55   670 3.62
   274  0.926  0.299  0.320-  1879 2.71  1853 2.72  1854 2.73   299 3.47   246 3.48   247 3.53   298 3.53   273 3.55
                             275 3.55   671 3.62
   275  0.897  0.329  0.321-  1880 2.71  1854 2.72  1855 2.73   300 3.48   247 3.48   248 3.53   299 3.53   274 3.55
                             276 3.55   672 3.62
   276  0.869  0.359  0.321-  1881 2.71  1855 2.72  1856 2.73   301 3.48   248 3.48   249 3.52   300 3.53   277 3.55
                             275 3.55   673 3.62
   277  0.840  0.388  0.322-  1882 2.72  1856 2.72  1857 2.73   302 3.49   249 3.49   250 3.52   301 3.52   278 3.55
                             276 3.55   674 3.62
   278  0.811  0.418  0.322-  1883 2.72  1857 2.72  1858 2.73   303 3.49   250 3.50   251 3.51   302 3.51   279 3.54
                             277 3.55   675 3.62
   279  0.783  0.448  0.323-  1884 2.72  1858 2.72  1859 2.73   304 3.50   251 3.51   252 3.51   303 3.51   280 3.53
                             278 3.54   676 3.62
   280  0.755  0.478  0.323-  1885 2.72  1860 2.72  1859 2.72   253 3.50   304 3.50   305 3.51   252 3.51   281 3.53
                             279 3.53   677 3.62
   281  0.726  0.508  0.323-  1886 2.72  1861 2.72  1860 2.73   254 3.49   305 3.49   306 3.52   253 3.52   282 3.52
                             280 3.53   678 3.62
   282  0.699  0.538  0.322-  1862 2.72  1887 2.72  1861 2.73   255 3.48   306 3.49   281 3.52   283 3.53   307 3.54
                             254 3.54   679 3.62
   283  0.671  0.568  0.321-  1863 2.71  1888 2.72  1862 2.73   256 3.48   307 3.48   282 3.53   284 3.53   308 3.55
                             255 3.55   680 3.62
   284  0.644  0.599  0.320-  1864 2.71  1889 2.72  1863 2.73   257 3.47   308 3.47   283 3.53   285 3.53   309 3.56
                             256 3.56   681 3.62
   285  0.617  0.630  0.319-  1865 2.71  1890 2.72  1864 2.73   258 3.47   309 3.47   286 3.53   284 3.53   310 3.56
                             257 3.57   682 3.62
   286  0.590  0.661  0.319-  1866 2.71  1891 2.72  1865 2.73   310 3.48   259 3.48   287 3.52   285 3.53   311 3.56
                             258 3.57   683 3.62
   287  0.562  0.692  0.320-  1867 2.71  1892 2.72  1866 2.73   311 3.49   260 3.49   288 3.51   286 3.52   312 3.55
                             259 3.56   684 3.62
   288  0.535  0.722  0.321-  1868 2.72  1867 2.72  1893 2.72   312 3.50   289 3.50   261 3.50   287 3.51   313 3.54
                             260 3.55   685 3.62
   289  0.507  0.752  0.321-  1869 2.72  1868 2.72  1894 2.72   290 3.50   288 3.50   313 3.51   262 3.52   314 3.53
                             261 3.54   686 3.62
   290  0.479  0.782  0.321-  1869 2.72  1870 2.72  1895 2.73   291 3.49   289 3.50   315 3.53   262 3.53   263 3.53
                             314 3.53   687 3.62
   291  0.451  0.811  0.321-  1870 2.72  1871 2.72  1896 2.73   292 3.49   290 3.49   263 3.52   316 3.53   264 3.54
                             315 3.54   688 3.62
   292  0.423  0.840  0.320-  1871 2.72  1872 2.72  1897 2.73   293 3.49   291 3.49   264 3.52   317 3.53   265 3.55
                             316 3.55   689 3.62
   293  0.395  0.870  0.320-  1872 2.71  1873 2.72  1898 2.73   294 3.48   292 3.49   265 3.52   318 3.53   266 3.56
                             317 3.56   690 3.62
   294  0.367  0.899  0.320-  1873 2.71  1874 2.72  1899 2.73   295 3.48   293 3.48   266 3.52   319 3.53   267 3.56
                             318 3.57   691 3.62
   295  0.339  0.928  0.319-  1874 2.71  1875 2.72  1900 2.73   296 3.48   294 3.48   267 3.52   320 3.53   268 3.56
                             319 3.57   692 3.62
   296  0.311  0.958  0.319-  1875 2.71  1876 2.72  1901 2.73   295 3.48   297 3.48   268 3.52    23 3.53   269 3.56
                             320 3.56   693 3.62
   297  0.284  0.988  0.318-  1876 2.71  1877 2.72  1608 2.73   296 3.48    13 3.48   269 3.53    24 3.53   270 3.55
                              23 3.56   694 3.62
   298  0.984  0.326  0.319-  1619 2.71  1878 2.72  1879 2.73    35 3.47   273 3.47    34 3.53   274 3.53    22 3.56
                             299 3.56   695 3.62
   299  0.955  0.356  0.320-  1902 2.71  1879 2.72  1880 2.73   321 3.47   274 3.47   275 3.53    35 3.53   298 3.56
                             300 3.56   696 3.62
   300  0.927  0.386  0.320-  1903 2.71  1880 2.72  1881 2.73   322 3.47   275 3.48   276 3.53   321 3.53   301 3.56
                             299 3.56   697 3.62
   301  0.898  0.416  0.321-  1904 2.71  1881 2.72  1882 2.73   323 3.48   276 3.48   277 3.52   322 3.53   302 3.56
                             300 3.56   698 3.62
   302  0.869  0.446  0.321-  1905 2.71  1882 2.72  1883 2.73   324 3.48   277 3.49   278 3.51   323 3.52   303 3.55
                             301 3.56   699 3.62
   303  0.841  0.476  0.322-  1906 2.71  1883 2.72  1884 2.73   325 3.49   278 3.49   279 3.51   324 3.52   304 3.55
                             302 3.55   700 3.62
   304  0.812  0.506  0.322-  1907 2.71  1884 2.72  1885 2.73   326 3.50   280 3.50   279 3.50   325 3.51   305 3.54
                             303 3.55   701 3.62
   305  0.784  0.536  0.323-  1908 2.72  1886 2.72  1885 2.72   281 3.49   326 3.50   327 3.51   280 3.51   306 3.53
                             304 3.54   702 3.62
   306  0.756  0.566  0.322-  1909 2.72  1887 2.72  1886 2.73   282 3.49   327 3.49   328 3.52   281 3.52   307 3.53
                             305 3.53   703 3.62
   307  0.728  0.596  0.321-  1888 2.72  1910 2.72  1887 2.73   283 3.48   328 3.48   306 3.53   308 3.53   329 3.54
                             282 3.54   704 3.62
   308  0.701  0.627  0.320-  1889 2.71  1911 2.72  1888 2.73   284 3.47   329 3.48   307 3.53   309 3.53   330 3.55
                             283 3.55   705 3.62
   309  0.674  0.658  0.319-  1890 2.71  1912 2.72  1889 2.73   285 3.47   330 3.47   310 3.53   308 3.53   331 3.56
                             284 3.56   706 3.62
   310  0.647  0.689  0.319-  1891 2.71  1913 2.72  1890 2.73   286 3.48   331 3.48   311 3.52   309 3.53   332 3.56
                             285 3.56   707 3.62
   311  0.620  0.720  0.319-  1892 2.71  1914 2.72  1891 2.73   332 3.48   287 3.49   312 3.51   310 3.52   333 3.55
                             286 3.56   708 3.62
   312  0.592  0.750  0.320-  1893 2.72  1892 2.72  1915 2.72   333 3.50   313 3.50   288 3.50   311 3.51   334 3.54
                             287 3.55   709 3.62
   313  0.565  0.780  0.321-  1894 2.72  1893 2.72  1916 2.73   314 3.49   312 3.50   334 3.51   289 3.51   335 3.54
                             288 3.54   710 3.62
   314  0.537  0.810  0.321-  1895 2.72  1894 2.72  1917 2.73   315 3.49   313 3.49   335 3.53   290 3.53   336 3.53
                             289 3.53   711 3.62
   315  0.509  0.840  0.320-  1895 2.72  1896 2.72  1918 2.73   316 3.48   314 3.49   290 3.53   337 3.53   291 3.54
                             336 3.54   712 3.62
   316  0.481  0.869  0.320-  1896 2.71  1897 2.72  1919 2.73   317 3.48   315 3.48   291 3.53   338 3.53   292 3.55
                             337 3.56   713 3.62
   317  0.453  0.898  0.320-  1897 2.71  1898 2.72  1920 2.73   318 3.48   316 3.48   292 3.53   339 3.53   293 3.56
                             338 3.57   714 3.62
   318  0.425  0.928  0.319-  1898 2.71  1899 2.72  1921 2.73   319 3.48   317 3.48   293 3.53   340 3.53   294 3.57
                             339 3.57   715 3.62
   319  0.397  0.957  0.319-  1899 2.71  1900 2.72  1922 2.73   320 3.47   318 3.48   294 3.53    36 3.53   295 3.57
                             340 3.57   716 3.62
   320  0.370  0.986  0.319-  1900 2.71  1901 2.72  1620 2.73   319 3.47    23 3.47   295 3.53    37 3.53   296 3.56
                              36 3.57   717 3.62
   321  0.985  0.413  0.319-  1634 2.71  1902 2.72  1903 2.73    51 3.47   299 3.47    50 3.53   300 3.53    35 3.57
                             322 3.57   718 3.62
   322  0.956  0.443  0.319-  1923 2.71  1903 2.72  1904 2.73   341 3.47   300 3.47   301 3.53    51 3.53   323 3.57
                             321 3.57   719 3.62
   323  0.927  0.473  0.320-  1924 2.71  1904 2.72  1905 2.73   342 3.47   301 3.48   302 3.52   341 3.53   324 3.57
                             322 3.57   720 3.62
   324  0.899  0.503  0.321-  1925 2.71  1905 2.72  1906 2.73   343 3.48   302 3.48   303 3.52   342 3.52   325 3.56
                             323 3.57   721 3.62
   325  0.870  0.533  0.321-  1926 2.71  1906 2.72  1907 2.73   344 3.48   303 3.49   304 3.51   343 3.52   326 3.55
                             324 3.56   722 3.62
   326  0.842  0.563  0.322-  1927 2.71  1907 2.72  1908 2.73   345 3.49   304 3.50   305 3.50   344 3.51   327 3.54
                             325 3.55   723 3.62
   327  0.813  0.593  0.322-  1928 2.71  1909 2.72  1908 2.72   306 3.49   345 3.50   346 3.50   305 3.51   328 3.53
                             326 3.54   724 3.62
   328  0.786  0.624  0.321-  1929 2.72  1910 2.72  1909 2.73   307 3.48   346 3.49   347 3.52   306 3.52   329 3.53
                             327 3.53   725 3.62
   329  0.758  0.654  0.320-  1911 2.72  1930 2.72  1910 2.73   308 3.48   347 3.48   328 3.53   330 3.53   348 3.53
                             307 3.54   726 3.62
   330  0.731  0.685  0.319-  1912 2.71  1931 2.72  1911 2.73   309 3.47   348 3.48   329 3.53   331 3.53   349 3.54
                             308 3.55   727 3.62
   331  0.704  0.716  0.318-  1913 2.71  1932 2.72  1912 2.73   310 3.48   349 3.48   332 3.53   330 3.53   350 3.55
                             309 3.56   728 3.62
   332  0.677  0.748  0.318-  1914 2.71  1933 2.72  1913 2.73   311 3.48   350 3.49   333 3.52   331 3.53   351 3.55
                             310 3.56   729 3.62
   333  0.650  0.778  0.319-  1915 2.72  1934 2.72  1914 2.72   351 3.50   312 3.50   334 3.50   332 3.52   352 3.54
                             311 3.55   730 3.62
   334  0.623  0.809  0.320-  1916 2.72  1915 2.72  1935 2.73   335 3.49   333 3.50   352 3.51   313 3.51   353 3.54
                             312 3.54   731 3.62
   335  0.595  0.839  0.320-  1916 2.72  1917 2.72  1936 2.73   336 3.48   334 3.49   353 3.53   314 3.53   354 3.54
                             313 3.54   732 3.62
   336  0.568  0.868  0.320-  1917 2.72  1918 2.72  1937 2.73   337 3.48   335 3.48   314 3.53   355 3.54   315 3.54
                             354 3.54   733 3.62
   337  0.540  0.898  0.319-  1918 2.71  1919 2.72  1938 2.73   338 3.48   336 3.48   315 3.53   356 3.54   316 3.56
                             355 3.56   734 3.62
   338  0.512  0.927  0.319-  1919 2.71  1920 2.72  1939 2.73   339 3.47   337 3.48   316 3.53   357 3.54   317 3.57
                             356 3.57   735 3.62
   339  0.484  0.957  0.319-  1920 2.71  1921 2.72  1940 2.73   340 3.47   338 3.47   317 3.53    52 3.53   318 3.57
                             357 3.57   736 3.62
   340  0.456  0.986  0.319-  1921 2.71  1922 2.72  1635 2.73    36 3.47   339 3.47   318 3.53    53 3.53   319 3.57
                              52 3.57   737 3.62
   341  0.985  0.500  0.319-  1652 2.71  1923 2.72  1924 2.73    70 3.47   322 3.47   323 3.53    69 3.53   342 3.57
                              51 3.57   738 3.62
   342  0.956  0.530  0.320-  1941 2.71  1924 2.72  1925 2.73   358 3.47   323 3.47   324 3.52    70 3.53   343 3.57
                             341 3.57   739 3.62
   343  0.928  0.560  0.320-  1942 2.71  1925 2.72  1926 2.73   359 3.48   324 3.48   325 3.52   358 3.53   344 3.56
                             342 3.57   740 3.62
   344  0.899  0.591  0.321-  1943 2.71  1926 2.72  1927 2.73   360 3.48   325 3.48   326 3.51   359 3.52   345 3.55
                             343 3.56   741 3.62
   345  0.871  0.621  0.321-  1944 2.71  1927 2.72  1928 2.73   361 3.49   326 3.49   327 3.50   360 3.51   346 3.54
                             344 3.55   742 3.62
   346  0.843  0.651  0.321-  1945 2.71  1929 2.72  1928 2.73   328 3.49   361 3.50   362 3.50   327 3.50   347 3.53
                             345 3.54   743 3.62
   347  0.816  0.682  0.320-  1946 2.72  1930 2.72  1929 2.73   329 3.48   362 3.49   328 3.52   363 3.52   348 3.53
                             346 3.53   744 3.62
   348  0.788  0.713  0.318-  1931 2.72  1947 2.72  1930 2.73   330 3.48   363 3.49   347 3.53   364 3.53   349 3.53
                             329 3.53   745 3.62
   349  0.761  0.744  0.317-  1932 2.72  1948 2.72  1931 2.73   331 3.48   364 3.49   350 3.53   348 3.53   365 3.54
                             330 3.54   746 3.62
   350  0.734  0.775  0.317-  1933 2.72  1949 2.72  1932 2.73   332 3.49   365 3.49   351 3.52   349 3.53   366 3.55
                             331 3.55   747 3.62
   351  0.708  0.806  0.318-  1934 2.72  1950 2.72  1933 2.72   333 3.50   366 3.50   352 3.51   350 3.52   367 3.54
                             332 3.55   748 3.62
   352  0.681  0.837  0.318-  1935 2.72  1934 2.72  1951 2.73   353 3.49   351 3.51   334 3.51   367 3.51   368 3.54
                             333 3.54   749 3.62
   353  0.653  0.867  0.319-  1935 2.72  1936 2.72  1952 2.73   354 3.48   352 3.49   368 3.53   335 3.53   369 3.54
                             334 3.54   750 3.62
   354  0.626  0.897  0.319-  1936 2.72  1937 2.72  1953 2.73   355 3.48   353 3.48   335 3.54   370 3.54   369 3.54
                             336 3.54   751 3.62
   355  0.598  0.927  0.319-  1937 2.71  1938 2.72  1954 2.73   356 3.47   354 3.48   336 3.54   371 3.54   370 3.56
                             337 3.56   752 3.62
   356  0.571  0.956  0.319-  1938 2.71  1939 2.72  1955 2.73   357 3.47   355 3.47    71 3.53   337 3.54   371 3.57
                             338 3.57   753 3.62
   357  0.543  0.985  0.319-  1939 2.71  1940 2.72  1653 2.73    52 3.47   356 3.47    72 3.53   338 3.54    71 3.57
                             339 3.57   754 3.62
   358  0.986  0.588  0.319-  1673 2.71  1941 2.72  1942 2.73    92 3.47   342 3.47   343 3.53    91 3.53   359 3.57
                              70 3.57   755 3.62
   359  0.957  0.618  0.320-  1956 2.71  1942 2.72  1943 2.73   372 3.47   343 3.48   344 3.52    92 3.53   360 3.56
                             358 3.57   756 3.62
   360  0.929  0.648  0.320-  1957 2.71  1943 2.72  1944 2.73   373 3.48   344 3.48   345 3.51   372 3.53   361 3.55
                             359 3.56   757 3.62
   361  0.901  0.678  0.320-  1958 2.71  1944 2.72  1945 2.73   345 3.49   374 3.49   346 3.50   373 3.52   362 3.54
                             360 3.55   758 3.62
   362  0.873  0.709  0.319-  1959 2.71  1946 2.72  1945 2.73   347 3.49   346 3.50   375 3.51   374 3.51   363 3.53
                             361 3.54   759 3.62
   363  0.846  0.740  0.318-  1960 2.72  1947 2.72  1946 2.73   348 3.49   375 3.50   347 3.52   376 3.52   362 3.53
                             364 3.53   760 3.62
   364  0.819  0.771  0.316-  1961 2.72  1948 2.72  1947 2.73   349 3.49   376 3.50   365 3.53   348 3.53   377 3.53
                             363 3.53   761 3.62
   365  0.792  0.802  0.316-  1949 2.72  1962 2.72  1948 2.73   350 3.49   377 3.50   366 3.53   364 3.53   378 3.54
                             349 3.54   762 3.62
   366  0.765  0.833  0.316-  1950 2.72  1963 2.72  1949 2.72   351 3.50   378 3.50   367 3.51   365 3.53   379 3.54
                             350 3.55   763 3.62
   367  0.738  0.864  0.316-  1951 2.72  1950 2.72  1964 2.72   368 3.50   352 3.51   379 3.51   366 3.51   380 3.54
                             351 3.54   764 3.62
   368  0.711  0.895  0.317-  1951 2.72  1952 2.72  1965 2.73   369 3.49   367 3.50   380 3.53   353 3.53   381 3.54
                             352 3.54   765 3.62
   369  0.684  0.925  0.318-  1952 2.71  1953 2.72  1966 2.73   370 3.48   368 3.49   381 3.54   382 3.54   353 3.54
                             354 3.54   766 3.62
   370  0.657  0.955  0.319-  1953 2.71  1954 2.72  1967 2.73   371 3.47   369 3.48    93 3.54   354 3.54   382 3.55
                             355 3.56   767 3.62
   371  0.630  0.985  0.319-  1954 2.71  1955 2.72  1674 2.73    71 3.47   370 3.47    94 3.53   355 3.54    93 3.56
                             356 3.57   768 3.62
   372  0.987  0.675  0.319-  1697 2.71  1956 2.72  1957 2.73   359 3.47   117 3.48   360 3.53   116 3.54   373 3.55
                              92 3.56   769 3.62
   373  0.959  0.705  0.318-  1968 2.71  1957 2.72  1958 2.73   360 3.48   383 3.49   361 3.52   117 3.53   374 3.54
                             372 3.55   770 3.62
   374  0.931  0.736  0.318-  1969 2.71  1958 2.72  1959 2.73   361 3.49   384 3.50   362 3.51   383 3.52   375 3.54
                             373 3.54   771 3.62
   375  0.903  0.766  0.316-  1970 2.71  1960 2.72  1959 2.72   363 3.50   362 3.51   385 3.51   384 3.52   376 3.53
                             374 3.54   772 3.62
   376  0.876  0.797  0.315-  1971 2.72  1961 2.72  1960 2.73   364 3.50   385 3.51   363 3.52   386 3.53   375 3.53
                             377 3.53   773 3.62
   377  0.849  0.829  0.314-  1972 2.72  1962 2.72  1961 2.73   365 3.50   386 3.51   378 3.53   376 3.53   364 3.53
                             387 3.54   774 3.62
   378  0.823  0.860  0.314-  1963 2.72  1973 2.72  1962 2.72   366 3.50   387 3.51   379 3.52   377 3.53   365 3.54
                             388 3.54   775 3.62
   379  0.796  0.892  0.314-  1964 2.72  1963 2.72  1974 2.72   380 3.51   367 3.51   388 3.52   378 3.52   389 3.54
                             366 3.54   776 3.62
   380  0.769  0.923  0.315-  1964 2.72  1965 2.72  1975 2.73   381 3.49   379 3.51   389 3.52   368 3.53   390 3.54
                             367 3.54   777 3.62
   381  0.743  0.953  0.317-  1965 2.72  1966 2.72  1976 2.73   382 3.48   380 3.49   390 3.53   118 3.54   369 3.54
                             368 3.54   778 3.62
   382  0.715  0.983  0.318-  1966 2.71  1967 2.72  1698 2.73    93 3.48   381 3.48   119 3.53   369 3.54   118 3.54
                             370 3.55   779 3.62
   383  0.989  0.762  0.317-  1724 2.71  1968 2.72  1969 2.73   373 3.49   145 3.49   374 3.52   144 3.54   384 3.54
                             117 3.54   780 3.62
   384  0.961  0.793  0.315-  1977 2.72  1969 2.72  1970 2.73   374 3.50   391 3.51   375 3.52   145 3.53   385 3.53
                             383 3.54   781 3.62
   385  0.934  0.824  0.314-  1978 2.72  1971 2.72  1970 2.72   375 3.51   376 3.51   392 3.52   391 3.53   386 3.53
                             384 3.53   782 3.62
   386  0.907  0.856  0.313-  1979 2.72  1972 2.72  1971 2.73   377 3.51   392 3.53   376 3.53   393 3.53   385 3.53
                             387 3.53   783 3.62
   387  0.881  0.887  0.312-  1980 2.72  1973 2.72  1972 2.72   378 3.51   393 3.52   388 3.53   386 3.53   377 3.54
                             394 3.54   784 3.62
   388  0.854  0.918  0.312-  1974 2.72  1973 2.72  1981 2.72   379 3.52   389 3.52   394 3.53   387 3.53   395 3.54
                             378 3.54   785 3.62
   389  0.827  0.950  0.313-  1974 2.72  1975 2.72  1982 2.72   390 3.51   388 3.52   380 3.52   395 3.53   146 3.54
                             379 3.54   786 3.62
   390  0.801  0.981  0.315-  1975 2.72  1976 2.72  1725 2.73   118 3.49   389 3.51   146 3.53   147 3.53   381 3.53
                             380 3.54   787 3.62
   391  0.992  0.851  0.313-  1754 2.72  1977 2.72  1978 2.72   384 3.51   176 3.52   385 3.53   145 3.53   392 3.53
                             175 3.54   788 3.62
   392  0.965  0.882  0.312-  1983 2.72  1979 2.72  1978 2.72   385 3.52   386 3.53   396 3.53   391 3.53   176 3.53
                             393 3.53   789 3.62
   393  0.939  0.914  0.311-  1984 2.72  1980 2.72  1979 2.72   387 3.52   396 3.53   386 3.53   394 3.53   392 3.53
                             397 3.54   790 3.62
   394  0.912  0.945  0.311-  1985 2.72  1981 2.72  1980 2.72   388 3.53   395 3.53   397 3.53   393 3.53   177 3.54
                             387 3.54   791 3.62
   395  0.885  0.977  0.312-  1981 2.72  1982 2.72  1755 2.72   146 3.52   389 3.53   394 3.53   177 3.53   178 3.53
                             388 3.54   792 3.62
   396  0.997  0.940  0.310-  1787 2.72  1984 2.72  1983 2.72   392 3.53   176 3.53   393 3.53   397 3.54   210 3.54
                             209 3.54   793 3.62
   397  0.970  0.972  0.310-  1589 2.72  1984 2.72  1985 2.72   394 3.53   396 3.54     1 3.54   210 3.54   177 3.54
                             393 3.54   794 3.62
   398  0.002  0.030  0.430-  1591 2.72  1788 2.72  1589 2.72   400 3.50   607 3.50   794 3.50   401 3.51   574 3.51
                             608 3.51     1 3.62
   399  0.086  0.025  0.431-  1820 2.72  1590 2.72  1594 2.72   400 3.50   639 3.50   607 3.51   606 3.51   404 3.51
                             405 3.51     2 3.62
   400  0.059  0.056  0.431-  1595 2.72  1590 2.72  1591 2.72   399 3.50   398 3.50   405 3.51   607 3.51   401 3.51
                             406 3.51     3 3.62
[...]
    -16.30182     47.33692     18.55004        -0.001826     -0.002422      0.004008
    -19.37001     49.03364     18.59672        -0.002510     -0.003069      0.007386
    -22.44854     50.71011     18.66030        -0.002376     -0.004169      0.006823
    -25.53905     52.36479     18.73290        -0.003137     -0.004647      0.006936
    -28.64509     53.99794     18.80584        -0.003722     -0.002835      0.004251
    -31.76294     55.61526     18.86234        -0.003489     -0.002629      0.005691
     66.83010      5.12320     18.86198         0.004095      0.002113      0.004296
     63.70972      6.74103     18.81084         0.003553      0.002360      0.004776
     60.60177      8.37537     18.75081         0.002930      0.002890      0.005358
     57.50769     10.02995     18.69307         0.003676      0.003237      0.005558
     54.42716     11.70716     18.64209         0.003674      0.004106      0.007220
     51.35856     13.40555     18.60139         0.002701      0.002364      0.005953
     48.29735     15.11798     18.57245         0.001098      0.001841      0.003852
     45.23883     16.83961     18.55384         0.001065      0.000508      0.003439
     42.18233     18.56599     18.54357         0.000424      0.001629      0.001848
     39.12488     20.29336     18.53790        -0.000086      0.000516      0.001235
     36.06392     22.01838     18.53491        -0.000137     -0.000239      0.001139
     32.99850     23.73646     18.53790        -0.000404     -0.000332      0.001235
     29.92405     25.44173     18.55107        -0.000642     -0.000561      0.002400
     26.83818     27.13009     18.57448        -0.001198     -0.000896      0.002670
     23.74080     28.79893     18.60162        -0.001566     -0.000335      0.003761
     20.63217     30.45080     18.61976        -0.000538     -0.000192      0.003305
     17.51829     32.09639     18.61684        -0.000425      0.000447      0.003095
     14.40505     33.74538     18.59126         0.000034      0.000531      0.002204
     11.29748     35.40935     18.55407         0.000377     -0.000256      0.000388
      8.20065     37.09321     18.51950        -0.000534      0.001082     -0.001598
      5.11304     38.79680     18.49705         0.000605      0.000723     -0.000976
      2.03497     40.51551     18.48886        -0.000000      0.000178     -0.001591
     -1.03719     42.24371     18.48886        -0.000154     -0.000089     -0.001591
     -4.10603     43.97712     18.49206         0.000174     -0.000354     -0.001344
     -7.17423     45.71200     18.49828        -0.000731     -0.001062     -0.001497
    -10.24313     47.44474     18.50938        -0.001677     -0.001790      0.002068
    -13.31577     49.16996     18.53216        -0.001330     -0.003256      0.003234
    -16.39384     50.88235     18.57059        -0.003337     -0.003466      0.006474
    -19.48125     52.57606     18.62736        -0.002004     -0.003666      0.006466
    -22.57754     54.24727     18.69842        -0.002495     -0.004400      0.006605
    -25.68656     55.89494     18.77554        -0.003247     -0.004150      0.005219
    -28.80669     57.52111     18.84517        -0.001736     -0.002878      0.004618
    -31.93499     59.13398     18.89298        -0.000802     -0.002219      0.004229
     63.56375     10.26953     18.75455         0.004419      0.002394      0.004441
     60.47213     11.91248     18.70359         0.005053      0.002978      0.005192
     57.39795     13.57462     18.65931         0.002286      0.003350      0.004927
     54.33574     15.25677     18.62174         0.002928      0.002041      0.004657
     51.28269     16.95535     18.59325         0.002207      0.002539      0.004123
     48.23421     18.66606     18.57296         0.000693      0.001186      0.004278
     45.18756     20.38304     18.55977        -0.000282      0.001678      0.003055
     42.13891     22.10327     18.55107        -0.000165      0.000836      0.002400
     39.08742     23.82315     18.54428        -0.000369      0.001068      0.001737
     36.03048     25.53994     18.54016        -0.000613     -0.000068      0.000977
     32.96572     27.24797     18.54357        -0.001623     -0.000447      0.001848
     29.88949     28.94205     18.55977        -0.001312     -0.001084      0.003055
     26.80080     30.61695     18.58551        -0.002084     -0.000215      0.002387
     23.69859     32.27543     18.61002        -0.000853     -0.000612      0.003436
     20.58746     33.92065     18.61904        -0.000988      0.000438      0.004230
     17.47214     35.56599     18.60522        -0.000911      0.001050      0.002963
     14.35848     37.22137     18.57243         0.000145      0.000971      0.001686
     11.25357     38.89604     18.53482        -0.000683      0.001319      0.000818
      8.15812     40.59233     18.50565        -0.000270      0.000785      0.000305
      5.07056     42.30649     18.49206        -0.000394      0.000026     -0.001344
      1.98972     44.03397     18.49115        -0.000400      0.000066     -0.001795
     -1.08778     45.76875     18.49705        -0.000929      0.000163     -0.000976
     -4.16530     47.50810     18.50565        -0.000545     -0.000626      0.000305
     -7.24341     49.24732     18.51751        -0.001328     -0.001081      0.000484
    -10.32662     50.98163     18.53527        -0.000735     -0.001229      0.002188
    -13.41482     52.70838     18.56358        -0.001990     -0.002615      0.004637
    -16.50981     54.41963     18.60617        -0.002647     -0.004362      0.005932
    -19.61453     56.10901     18.66533        -0.001179     -0.004181      0.005339
    -22.72724     57.77561     18.73493        -0.001181     -0.004678      0.005967
    -25.84981     59.41786     18.80502        -0.000532     -0.005154      0.005075
     60.36714     15.45909     18.66054         0.003720      0.001375      0.006858
     57.30886     17.12959     18.63495         0.001966      0.001720      0.003997
     54.26125     18.81628     18.61402         0.002345      0.002053      0.005011
     51.22090     20.51456     18.59841         0.001915      0.000998      0.003177
     48.18241     22.22048     18.58551         0.000856      0.001913      0.002387
     45.14401     23.93153     18.57448        -0.000177      0.001486      0.002670
     42.10185     25.64392     18.56431        -0.000363      0.000672      0.001411
     39.05463     27.35498     18.55417        -0.001188      0.000889      0.002523
     35.99904     29.06167     18.54863        -0.001374      0.000487      0.001620
     32.93255     30.75817     18.55384        -0.000972      0.000668      0.003439
     29.85312     32.43902     18.57296        -0.001374      0.000007      0.004278
     26.75892     34.10132     18.59841        -0.001822      0.001159      0.003177
     23.65264     35.74965     18.61571        -0.002692      0.000720      0.004429
     20.53694     37.39094     18.61351        -0.000730      0.001365      0.003145
     17.41963     39.03941     18.58866         0.000123      0.001203      0.001924
     14.30773     40.70297     18.55181        -0.000340      0.002137      0.001772
     11.20338     42.38845     18.51751        -0.000272      0.001690      0.000484
      8.10711     44.09619     18.49828        -0.000555      0.001164     -0.001497
      5.01743     45.81938     18.49573        -0.000935      0.000945     -0.000431
      1.93044     47.55367     18.50486        -0.000830      0.000604     -0.000089
     -1.15624     49.29449     18.51950        -0.000670     -0.001004     -0.001598
     -4.24399     51.03699     18.53482        -0.000800     -0.001251      0.000818
     -7.33592     52.77850     18.55181        -0.001681     -0.001363      0.001772
    -10.43279     54.51437     18.57185        -0.000355     -0.002657      0.003743
    -13.53675     56.23912     18.60051        -0.000907     -0.003015      0.005180
    -16.64735     57.94752     18.64113        -0.002233     -0.004014      0.006735
    -19.76425     59.63425     18.69449        -0.000648     -0.005255      0.005109
     57.23868     20.69140     18.62098         0.001893      0.000834      0.004505
     54.20154     22.38052     18.61571         0.001969      0.001972      0.004429
     51.16979     24.07783     18.61002        -0.000103      0.001045      0.003436
     48.13796     25.77952     18.60162         0.000493      0.001523      0.003761
     45.10420     27.48388     18.59083        -0.000576      0.000901      0.003053
     42.06560     29.18792     18.57855        -0.000472      0.000599      0.001983
     39.02012     30.88976     18.56697        -0.002338      0.000882      0.002794
     35.96405     32.58440     18.56341        -0.001753      0.000303      0.002892
     32.89427     34.26774     18.57245        -0.002143      0.000030      0.003852
     29.81039     35.93444     18.59325        -0.003302      0.000642      0.004123
     26.70951     37.58348     18.61402        -0.002951      0.001005      0.005011
     23.59688     39.22445     18.62098        -0.001669      0.001222      0.004505
     20.47781     40.86439     18.60539        -0.001454      0.001275      0.003687
     17.35947     42.51700     18.57185        -0.002124      0.001636      0.003743
     14.24695     44.19143     18.53527        -0.000697      0.001251      0.002188
     11.14216     45.88757     18.50938        -0.000712      0.002347      0.002068
      8.04241     47.60433     18.50358        -0.000116      0.001164      0.001003
      4.94663     49.33449     18.51416        -0.000846      0.001230      0.000082
      1.85060     51.07474     18.53283        -0.001285      0.000286      0.000825
     -1.24639     52.81836     18.55407         0.000034      0.000454      0.000388
     -4.34614     54.56325     18.57243        -0.000914     -0.000360      0.001686
     -7.45118     56.30526     18.58866        -0.001103     -0.000495      0.001924
    -10.56075     58.04123     18.60539        -0.000378     -0.001896      0.003687
    -13.67629     59.76386     18.62824        -0.000103     -0.003534      0.005235
     54.15017     25.94954     18.61904         0.000873      0.000636      0.004230
     51.12283     27.64575     18.61976         0.000102      0.000562      0.003305
     48.09512     29.34283     18.61456        -0.000543      0.000675      0.004249
     45.06385     31.04020     18.60528        -0.001331      0.000125      0.003222
     42.02674     32.73559     18.59354        -0.001950      0.000729      0.004777
     38.98086     34.42633     18.58576        -0.002967      0.001041      0.004494
     35.92152     36.10771     18.58798        -0.001890      0.000136      0.004145
     32.84667     37.77504     18.60139        -0.003398      0.001157      0.005953
     29.75488     39.42775     18.62174        -0.003232      0.001516      0.004657
     26.64642     41.06613     18.63495        -0.002473      0.000843      0.003997
     23.52741     42.70122     18.62824        -0.003009      0.001856      0.005235
     20.40513     44.34274     18.60051        -0.002158      0.002293      0.005180
     17.28646     46.00251     18.56358        -0.001269      0.003031      0.004637
     14.17257     47.68594     18.53216        -0.002155      0.002780      0.003234
     11.06362     49.39263     18.51975        -0.000431      0.001706      0.002377
      7.95807     51.11643     18.52722        -0.001038      0.001743      0.001806
      4.85365     52.85217     18.54714        -0.000712      0.001067      0.000928
      1.74844     54.59527     18.57105        -0.000982     -0.000057      0.001716
     -1.35913     56.34157     18.59126        -0.000477     -0.000236      0.002204
     -4.46937     58.08745     18.60522        -0.000454     -0.001314      0.002963
     -7.58222     59.82917     18.61351        -0.000817     -0.001314      0.003145
     51.07895     31.21439     18.62205        -0.000533      0.001103      0.002219
     48.05205     32.90882     18.62106        -0.001155      0.000065      0.003556
     45.02020     34.59878     18.61669        -0.001146      0.001039      0.002600
     41.98146     36.28505     18.61201        -0.002462      0.000854      0.004148
     38.93174     37.96364     18.61338        -0.003253     -0.000425      0.005428
     35.86619     39.63065     18.62408        -0.003695      0.000123      0.005286
     32.78323     41.28173     18.64209        -0.005393      0.001129      0.007220
     29.68057     42.92077     18.65931        -0.004044      0.000305      0.004927
     26.56397     44.54993     18.66054        -0.003051      0.002533      0.006858
     23.43995     46.18240     18.64113        -0.002360      0.003941      0.006735
     20.31594     47.82723     18.60617        -0.002454      0.004473      0.005932
     17.19457     49.49544     18.57059        -0.001333      0.004623      0.006474
     14.07813     51.18845     18.55004        -0.001185      0.002792      0.004008
     10.96403     52.90252     18.54909        -0.001244      0.002481      0.004142
      7.85106     54.63155     18.56442        -0.000442      0.002136      0.002990
      4.73878     56.37091     18.58636        -0.000651      0.000889      0.001968
      1.62598     58.11592     18.60526         0.000016      0.000635      0.002481
     -1.48769     59.86221     18.61684        -0.000175     -0.000592      0.003095
     48.00353     36.47594     18.62071        -0.002052     -0.000298      0.004144
     44.96892     38.16090     18.62658        -0.002511     -0.000662      0.004669
     41.92384     39.83618     18.63528        -0.002702      0.000223      0.006103
     38.86630     41.50064     18.65066        -0.003198     -0.000037      0.007088
     35.79041     43.15094     18.67185        -0.004997      0.001479      0.007019
     32.69546     44.78814     18.69307        -0.004641      0.001565      0.005558
     29.58293     46.41416     18.70359        -0.005106      0.002886      0.005192
     26.45915     48.03835     18.69449        -0.004227      0.003189      0.005109
     23.33134     49.67130     18.66533        -0.003032      0.003111      0.005339
     20.20508     51.32235     18.62736        -0.002173      0.003569      0.006466
     17.08163     52.99723     18.59672        -0.001403      0.003708      0.007386
     13.96127     54.69683     18.58375        -0.001193      0.003484      0.005094
     10.84202     56.41616     18.58769        -0.001184      0.001655      0.004512
      7.72471     58.14885     18.60106        -0.000569      0.001554      0.003063
      4.60806     59.88975     18.61403        -0.000243      0.000924      0.003935
     44.90498     41.72069     18.63959        -0.003784     -0.000831      0.006244
     41.85027     43.38512     18.66612        -0.002992     -0.001129      0.006241
     38.77914     45.03545     18.69766        -0.004224     -0.000262      0.005640
     35.69005     46.67161     18.72870        -0.006132     -0.000447      0.005729
     32.58133     48.29499     18.75081        -0.003968      0.001092      0.005358
     29.45995     49.91306     18.75455        -0.004283      0.002630      0.004441
     26.33102     51.53369     18.73493        -0.003461      0.003361      0.005967
     23.20053     53.16822     18.69842        -0.002563      0.004360      0.006605
     20.07276     54.82508     18.66030        -0.002423      0.004142      0.006823
     16.94760     56.50594     18.63263        -0.002248      0.004022      0.006412
     13.82414     58.21075     18.61927         0.000874      0.002500      0.005961
     10.70482     59.93268     18.61816        -0.000483      0.002512      0.004430
     41.75517     46.92999     18.70634        -0.005269     -0.000789      0.005236
     38.66769     48.56641     18.75293        -0.004366     -0.001321      0.006068
     35.56247     50.18927     18.79101        -0.005623      0.001008      0.004944
     32.44274     51.80372     18.81084        -0.003820      0.001897      0.004776
     29.31453     53.41679     18.80502        -0.004198      0.003037      0.005075
     26.18197     55.03687     18.77554        -0.001971      0.004888      0.005219
     23.05102     56.67420     18.73290        -0.002456      0.005040      0.006936
     19.92201     58.33510     18.69118         0.000318      0.005815      0.006993
     16.79903     60.02126     18.66008        -0.000287      0.003848      0.007242
     38.52975     52.09309     18.81175        -0.003319     -0.000990      0.004745
     35.41164     53.70723     18.84994        -0.004997     -0.000548      0.004483
     32.28363     55.31497     18.86198        -0.003877      0.002490      0.004296
     29.15034     56.92590     18.84517        -0.001624      0.002943      0.004618
     26.01838     58.54753     18.80584        -0.000595      0.004641      0.004251
     22.88928     60.18821     18.75473         0.000365      0.004461      0.005847
     35.24385     57.22334     18.89356        -0.001375     -0.000179      0.003944
     32.11127     58.82865     18.89298        -0.001520      0.001804      0.004229
     28.97795     60.43901     18.86234        -0.000533      0.004336      0.005691
 -----------------------------------------------------------------------------------
    total drift:                                0.002030      0.012274     -0.052752


--------------------------------------------------------------------------------------------------------



  FREE ENERGIE OF THE ION-ELECTRON SYSTEM (eV)
  ---------------------------------------------------
  free  energy   TOTEN  =    -14757.84282685 eV

  energy  without entropy=   -14763.01702501  energy(sigma->0) =   -14759.56755957
 
 d Force = 0.3426365E-02[ 0.286E-02, 0.400E-02]  d Energy = 0.6036989E-02-0.261E-02
 d Force = 0.9715259E+02[ 0.971E+02, 0.972E+02]  d Ewald  = 0.9715259E+02-0.246E-05


--------------------------------------------------------------------------------------------------------


    POTLOK:  cpu time    0.4532: real time    0.4532


--------------------------------------------------------------------------------------------------------


 Steepest descent step on ions:
 trial-energy change:   -0.006037  1 .order   -0.003426   -0.003996   -0.002857
  (g-gl).g = 0.400E-02      g.g   = 0.400E-02  gl.gl    = 0.000E+00
 g(Force)  = 0.400E-02   g(Stress)= 0.000E+00 ortho     = 0.000E+00
 gamma     =   0.00000
 trial     =   1.00000
 opt step  =   3.50692  (harmonic =   3.50692) maximal distance =0.00185372
 next E    =-14757.843797   (d E  =  -0.00701)


--------------------------------------------------------------------------------------------------------


  
 reached required accuracy - stopping structural energy minimisation
     LOOP+:  cpu time 5327.4182: real time 5328.2837
    4ORBIT:  cpu time    0.0000: real time    0.0000

 total amount of memory used by VASP MPI-rank0   114896. kBytes
=======================================================================

   base      :      30000. kBytes
   nonlr-proj:       7826. kBytes
   fftplans  :       7282. kBytes
   grid      :      12965. kBytes
   one-center:        264. kBytes
   wavefun   :      56559. kBytes
 
  
  
 General timing and accounting informations for this job:
 ========================================================
  
                  Total CPU time used (sec):    18022.234
                            User time (sec):    17952.603
                          System time (sec):       69.630
                         Elapsed time (sec):    18028.498
  
                   Maximum memory used (kb):     3191428.
                   Average memory used (kb):           0.
  
                          Minor page faults:      2539621
                          Major page faults:        12269
                 Voluntary context switches:         9822
