0.000000000000000000e+00 2.032270000000000021e+00 9.351010000000000488e+00 -1.760000000000000009e+00 5.080680000000000085e+00 9.351010000000000488e+00 -3.520000000000000018e+00 8.129089999999999705e+00 9.351010000000000488e+00 3.520000000000000018e+00 2.032270000000000021e+00 9.351010000000000488e+00 1.760000000000000009e+00 5.080680000000000085e+00 9.351010000000000488e+00 0.000000000000000000e+00 8.129089999999999705e+00 9.351010000000000488e+00 7.040000000000000036e+00 2.032270000000000021e+00 9.351010000000000488e+00 5.280000000000000249e+00 5.080680000000000085e+00 9.351010000000000488e+00 3.520000000000000018e+00 8.129089999999999705e+00 9.351010000000000488e+00 0.000000000000000000e+00 1.727430000000000021e+00 1.702175000000000082e+01 -1.760000000000000009e+00 4.775839999999999641e+00 1.702175000000000082e+01 -3.520000000000000018e+00 7.824250000000000149e+00 1.702175000000000082e+01 3.520000000000000018e+00 1.727430000000000021e+00 1.702175000000000082e+01 1.760000000000000009e+00 4.775839999999999641e+00 1.702175000000000082e+01 0.000000000000000000e+00 7.824250000000000149e+00 1.702175000000000082e+01 7.040000000000000036e+00 1.727430000000000021e+00 1.702175000000000082e+01 5.280000000000000249e+00 4.775839999999999641e+00 1.702175000000000082e+01 3.520000000000000018e+00 7.824250000000000149e+00 1.702175000000000082e+01 0.000000000000000000e+00 2.032270000000000021e+00 1.297827000000000019e+01 -1.760000000000000009e+00 5.080680000000000085e+00 1.297827000000000019e+01 -3.520000000000000018e+00 8.129089999999999705e+00 1.297827000000000019e+01 3.520000000000000018e+00 2.032270000000000021e+00 1.297827000000000019e+01 1.760000000000000009e+00 5.080680000000000085e+00 1.297827000000000019e+01 0.000000000000000000e+00 8.129089999999999705e+00 1.297827000000000019e+01 7.040000000000000036e+00 2.032270000000000021e+00 1.297827000000000019e+01 5.280000000000000249e+00 5.080680000000000085e+00 1.297827000000000019e+01 3.520000000000000018e+00 8.129089999999999705e+00 1.297827000000000019e+01 0.000000000000000000e+00 1.727430000000000021e+00 2.064900000000000091e+01 -1.760000000000000009e+00 4.775839999999999641e+00 2.064900000000000091e+01 -3.520000000000000018e+00 7.824250000000000149e+00 2.064900000000000091e+01 3.520000000000000018e+00 1.727430000000000021e+00 2.064900000000000091e+01 1.760000000000000009e+00 4.775839999999999641e+00 2.064900000000000091e+01 0.000000000000000000e+00 7.824250000000000149e+00 2.064900000000000091e+01 7.040000000000000036e+00 1.727430000000000021e+00 2.064900000000000091e+01 5.280000000000000249e+00 4.775839999999999641e+00 2.064900000000000091e+01 3.520000000000000018e+00 7.824250000000000149e+00 2.064900000000000091e+01 0.000000000000000000e+00 0.000000000000000000e+00 1.116414999999999935e+01 -1.760000000000000009e+00 3.048410000000000064e+00 1.116414999999999935e+01 -3.520000000000000018e+00 6.096820000000000128e+00 1.116414999999999935e+01 3.520000000000000018e+00 0.000000000000000000e+00 1.116414999999999935e+01 1.760000000000000009e+00 3.048410000000000064e+00 1.116414999999999935e+01 0.000000000000000000e+00 6.096820000000000128e+00 1.116414999999999935e+01 7.040000000000000036e+00 0.000000000000000000e+00 1.116414999999999935e+01 5.280000000000000249e+00 3.048410000000000064e+00 1.116414999999999935e+01 3.520000000000000018e+00 6.096820000000000128e+00 1.116414999999999935e+01 1.760000000000000009e+00 2.743570000000000064e+00 1.883586000000000027e+01 0.000000000000000000e+00 5.791979999999999684e+00 1.883586000000000027e+01 -1.760000000000000009e+00 8.840389999999999304e+00 1.883586000000000027e+01 5.280000000000000249e+00 2.743570000000000064e+00 1.883586000000000027e+01 3.520000000000000018e+00 5.791979999999999684e+00 1.883586000000000027e+01 1.760000000000000009e+00 8.840389999999999304e+00 1.883586000000000027e+01 8.800000000000000711e+00 2.743570000000000064e+00 1.883586000000000027e+01 7.040000000000000036e+00 5.791979999999999684e+00 1.883586000000000027e+01 5.280000000000000249e+00 8.840389999999999304e+00 1.883586000000000027e+01
1.600000000000000131e-04 2.033279999999999976e+00 9.352750000000000341e+00 -1.761870000000000047e+00 5.081909999999999705e+00 9.353160000000000807e+00 -3.518130000000000202e+00 8.127409999999999357e+00 9.350580000000000780e+00 3.519019999999999815e+00 2.030839999999999979e+00 9.352430000000000021e+00 1.763249999999999984e+00 5.079959999999999809e+00 9.348800000000000665e+00 -1.030000000000000100e-03 8.126429999999999154e+00 9.351359999999999673e+00 7.037620000000000431e+00 2.034429999999999961e+00 9.351430000000000575e+00 5.279460000000000264e+00 5.079679999999999751e+00 9.349320000000000519e+00 3.520430000000000170e+00 8.129419999999999646e+00 9.351380000000000692e+00 -1.030000000000000100e-03 1.726539999999999964e+00 1.701877999999999957e+01 -1.758860000000000090e+00 4.774680000000000035e+00 1.702233999999999980e+01 -3.519859999999999989e+00 7.821930000000000049e+00 1.702233999999999980e+01 3.521780000000000133e+00 1.728029999999999955e+00 1.702071000000000112e+01 1.763719999999999954e+00 4.774820000000000064e+00 1.702241000000000071e+01 -5.100000000000000366e-04 7.820890000000000342e+00 1.702428000000000097e+01 7.041240000000000165e+00 1.726930000000000076e+00 1.701933999999999969e+01 5.277440000000000353e+00 4.774160000000000181e+00 1.701920000000000144e+01 3.519680000000000142e+00 7.825309999999999988e+00 1.702183000000000135e+01 -2.900000000000000017e-04 2.032150000000000123e+00 1.297649000000000008e+01 -1.760469999999999979e+00 5.083879999999999733e+00 1.297832999999999970e+01 -3.520179999999999865e+00 8.129670000000000840e+00 1.297727000000000075e+01 3.519420000000000215e+00 2.030180000000000096e+00 1.297878000000000043e+01 1.759149999999999991e+00 5.083160000000000345e+00 1.297842999999999947e+01 3.210000000000000180e-03 8.129210000000000491e+00 1.298110999999999926e+01 7.040639999999999787e+00 2.032550000000000079e+00 1.297798000000000052e+01 5.281559999999999810e+00 5.080930000000000391e+00 1.297725999999999935e+01 3.518590000000000106e+00 8.125899999999999679e+00 1.298044999999999938e+01 2.809999999999999998e-03 1.730250000000000066e+00 2.064537999999999940e+01 -1.759959999999999969e+00 4.774180000000000312e+00 2.064618000000000109e+01 -3.518520000000000092e+00 7.824029999999999596e+00 2.065303000000000111e+01 3.519880000000000120e+00 1.728029999999999955e+00 2.064950999999999937e+01 1.758550000000000058e+00 4.776049999999999685e+00 2.064939999999999998e+01 -1.379999999999999933e-03 7.828500000000000014e+00 2.064495000000000147e+01 7.041890000000000427e+00 1.727810000000000068e+00 2.064950999999999937e+01 5.278369999999999784e+00 4.773520000000000429e+00 2.065005000000000024e+01 3.519489999999999785e+00 7.825140000000000207e+00 2.065088000000000079e+01 5.277980000000000338e+00 9.143750000000000711e+00 1.116510000000000069e+01 -1.759430000000000049e+00 3.049259999999999859e+00 1.116611999999999938e+01 7.039080000000000226e+00 6.097030000000000172e+00 1.116348999999999947e+01 3.519429999999999836e+00 4.099999999999999912e-04 1.116302999999999912e+01 1.760539999999999994e+00 3.048690000000000122e+00 1.116487000000000052e+01 -2.830000000000000050e-03 6.097109999999999808e+00 1.116400999999999932e+01 1.762159999999999949e+00 9.143290000000000362e+00 1.116329999999999956e+01 5.280179999999999652e+00 3.052010000000000112e+00 1.116285000000000061e+01 3.518419999999999881e+00 6.097909999999999719e+00 1.116699999999999982e+01 1.759379999999999944e+00 2.745550000000000157e+00 1.883560999999999908e+01 -5.100000000000000366e-04 5.793730000000000047e+00 1.883877000000000024e+01 -1.760350000000000081e+00 8.839119999999999422e+00 1.883353999999999928e+01 5.280689999999999884e+00 2.744730000000000114e+00 1.883715000000000117e+01 3.518520000000000092e+00 5.790060000000000429e+00 1.883465999999999951e+01 1.758059999999999956e+00 8.840270000000000294e+00 1.883633999999999986e+01 8.799609999999999488e+00 2.743650000000000144e+00 1.883473000000000042e+01 7.042970000000000397e+00 5.793919999999999959e+00 1.883606999999999942e+01 5.279139999999999944e+00 8.840980000000000061e+00 1.883733000000000146e+01
3.200000000000000262e-04 2.034289999999999932e+00 9.354490000000000194e+00 -1.763730000000000020e+00 5.083120000000000083e+00 9.355290000000000106e+00 -3.516259999999999941e+00 8.125740000000000407e+00 9.350149999999999295e+00 3.518040000000000056e+00 2.029420000000000002e+00 9.353849999999999554e+00 1.766480000000000050e+00 5.079240000000000421e+00 9.346590000000000842e+00 -2.060000000000000199e-03 8.123770000000000380e+00 9.351710000000000633e+00 7.035260000000000069e+00 2.036570000000000213e+00 9.351860000000000284e+00 5.278909999999999769e+00 5.078680000000000305e+00 9.347630000000000550e+00 3.520869999999999944e+00 8.129749999999999588e+00 9.351739999999999498e+00 -2.050000000000000173e-03 1.725629999999999997e+00 1.701583000000000112e+01 -1.757719999999999949e+00 4.773530000000000051e+00 1.702292999999999878e+01 -3.519730000000000025e+00 7.819619999999999571e+00 1.702292999999999878e+01 3.523559999999999803e+00 1.728609999999999980e+00 1.701968000000000103e+01 1.767419999999999991e+00 4.773789999999999978e+00 1.702308000000000021e+01 -1.030000000000000100e-03 7.817529999999999646e+00 1.702681000000000111e+01 7.042460000000000164e+00 1.726410000000000000e+00 1.701692999999999856e+01 5.274899999999999700e+00 4.772470000000000212e+00 1.701666000000000167e+01 3.519359999999999822e+00 7.826360000000000205e+00 1.702190999999999832e+01 -5.800000000000000034e-04 2.032039999999999846e+00 1.297472999999999921e+01 -1.760950000000000015e+00 5.087069999999999759e+00 1.297840000000000060e+01 -3.520370000000000221e+00 8.130240000000000578e+00 1.297626999999999953e+01 3.518839999999999968e+00 2.028090000000000170e+00 1.297927999999999926e+01 1.758289999999999909e+00 5.085630000000000095e+00 1.297857999999999912e+01 6.409999999999999899e-03 8.129339999999999122e+00 1.298394000000000048e+01 7.041269999999999918e+00 2.032820000000000071e+00 1.297767999999999944e+01 5.283120000000000260e+00 5.081179999999999808e+00 1.297625000000000028e+01 3.517180000000000195e+00 8.122730000000000672e+00 1.298262000000000072e+01 5.619999999999999996e-03 1.733070000000000110e+00 2.064177000000000106e+01 -1.759919999999999929e+00 4.772529999999999717e+00 2.064337000000000089e+01 -3.517040000000000166e+00 7.823809999999999931e+00 2.065703999999999851e+01 3.519750000000000156e+00 1.728639999999999954e+00 2.064999999999999858e+01 1.757100000000000106e+00 4.776250000000000107e+00 2.064979999999999905e+01 -2.759999999999999867e-03 7.832749999999999879e+00 2.064092000000000127e+01 7.043770000000000309e+00 1.728180000000000049e+00 2.065001000000000175e+01 5.276740000000000208e+00 4.771209999999999951e+00 2.065108000000000033e+01 3.518969999999999931e+00 7.826030000000000264e+00 2.065275000000000105e+01 5.275960000000000427e+00 9.142279999999999518e+00 1.116604000000000063e+01 -1.758869999999999933e+00 3.050110000000000099e+00 1.116808999999999941e+01 7.038160000000000416e+00 6.097249999999999837e+00 1.116283999999999921e+01 3.518870000000000164e+00 8.099999999999999561e-04 1.116192000000000029e+01 1.761079999999999979e+00 3.048970000000000180e+00 1.116559999999999953e+01 -5.640000000000000048e-03 6.097400000000000375e+00 1.116386999999999929e+01 1.764299999999999979e+00 9.141360000000000596e+00 1.116245999999999938e+01 5.280359999999999943e+00 3.055590000000000028e+00 1.116155999999999970e+01 3.516859999999999875e+00 6.099000000000000199e+00 1.116981999999999964e+01 1.758769999999999945e+00 2.747510000000000119e+00 1.883533999999999864e+01 -1.020000000000000073e-03 5.795460000000000278e+00 1.884165000000000134e+01 -1.760720000000000063e+00 8.837859999999999161e+00 1.883124000000000109e+01 5.281390000000000029e+00 2.745880000000000098e+00 1.883841999999999928e+01 3.517049999999999788e+00 5.788160000000000416e+00 1.883346999999999838e+01 1.756129999999999969e+00 8.840159999999999130e+00 1.883680000000000021e+01 8.799220000000000041e+00 2.743729999999999780e+00 1.883359000000000094e+01 7.045910000000000117e+00 5.795849999999999724e+00 1.883629000000000175e+01 5.278290000000000148e+00 8.841559999999999420e+00 1.883878999999999948e+01
4.699999999999999859e-04 2.035289999999999822e+00 9.356230000000000047e+00 -1.765589999999999993e+00 5.084329999999999572e+00 9.357409999999999783e+00 -3.514409999999999812e+00 8.124079999999999302e+00 9.349719999999999587e+00 3.517069999999999919e+00 2.028010000000000090e+00 9.355249999999999844e+00 1.769700000000000051e+00 5.078529999999999767e+00 9.344400000000000261e+00 -3.079999999999999839e-03 8.121130000000000848e+00 9.352059999999999818e+00 7.032910000000000217e+00 2.038710000000000022e+00 9.352280000000000371e+00 5.278360000000000163e+00 5.077700000000000102e+00 9.345950000000000202e+00 3.521300000000000097e+00 8.130069999999999908e+00 9.352090000000000458e+00 -3.059999999999999786e-03 1.724730000000000096e+00 1.701288999999999874e+01 -1.756569999999999965e+00 4.772380000000000067e+00 1.702351000000000170e+01 -3.519600000000000062e+00 7.817309999999999981e+00 1.702352000000000132e+01 3.525329999999999853e+00 1.729190000000000005e+00 1.701866000000000057e+01 1.771090000000000053e+00 4.772770000000000401e+00 1.702373000000000047e+01 -1.539999999999999919e-03 7.814169999999999838e+00 1.702930999999999884e+01 7.043680000000000163e+00 1.725899999999999990e+00 1.701454000000000022e+01 5.272369999999999557e+00 4.770789999999999864e+00 1.701415000000000077e+01 3.519029999999999880e+00 7.827399999999999913e+00 1.702199999999999847e+01 -8.700000000000000051e-04 2.031930000000000014e+00 1.297297000000000011e+01 -1.761430000000000051e+00 5.090259999999999785e+00 1.297846999999999973e+01 -3.520550000000000068e+00 8.130819999999999936e+00 1.297527000000000008e+01 3.518269999999999786e+00 2.026019999999999932e+00 1.297977999999999987e+01 1.757430000000000048e+00 5.088099999999999845e+00 1.297874000000000017e+01 9.589999999999999566e-03 8.129479999999999151e+00 1.298673999999999928e+01 7.041900000000000048e+00 2.033100000000000129e+00 1.297738000000000014e+01 5.284659999999999691e+00 5.081439999999999735e+00 1.297525000000000084e+01 3.515769999999999840e+00 8.119579999999999131e+00 1.298479999999999990e+01 8.420000000000000401e-03 1.735870000000000024e+00 2.063816999999999879e+01 -1.759880000000000111e+00 4.770880000000000010e+00 2.064057999999999993e+01 -3.515569999999999862e+00 7.823599999999999888e+00 2.066103000000000023e+01 3.519629999999999814e+00 1.729230000000000045e+00 2.065048000000000172e+01 1.755659999999999998e+00 4.776469999999999771e+00 2.065020000000000167e+01 -4.139999999999999583e-03 7.836979999999999613e+00 2.063692999999999955e+01 7.045639999999999681e+00 1.728560000000000096e+00 2.065051000000000059e+01 5.275129999999999875e+00 4.768919999999999604e+00 2.065210000000000079e+01 3.518450000000000077e+00 7.826900000000000190e+00 2.065461000000000169e+01 5.273959999999999759e+00 9.140800000000000480e+00 1.116696999999999917e+01 -1.758320000000000105e+00 3.050969999999999960e+00 1.117003000000000057e+01 7.037239999999999718e+00 6.097470000000000390e+00 1.116220000000000034e+01 3.518339999999999801e+00 1.199999999999999895e-03 1.116084000000000032e+01 1.761619999999999964e+00 3.049259999999999859e+00 1.116632000000000069e+01 -8.410000000000000808e-03 6.097699999999999676e+00 1.116372999999999927e+01 1.766420000000000101e+00 9.139450000000000074e+00 1.116164000000000023e+01 5.280509999999999593e+00 3.059120000000000061e+00 1.116031000000000084e+01 3.515330000000000066e+00 6.100069999999999659e+00 1.117259999999999920e+01 1.758180000000000076e+00 2.749460000000000015e+00 1.883504999999999896e+01 -1.490000000000000005e-03 5.797150000000000247e+00 1.884449000000000041e+01 -1.761109999999999953e+00 8.836629999999999541e+00 1.882895999999999859e+01 5.282099999999999795e+00 2.746999999999999886e+00 1.883967000000000169e+01 3.515610000000000124e+00 5.786299999999999777e+00 1.883230999999999966e+01 1.754229999999999956e+00 8.840059999999999363e+00 1.883725000000000094e+01 8.798840000000000217e+00 2.743790000000000173e+00 1.883242999999999867e+01 7.048779999999999824e+00 5.797729999999999606e+00 1.883650000000000091e+01 5.277470000000000105e+00 8.842119999999999536e+00 1.884024000000000143e+01
6.199999999999999999e-04 2.036280000000000090e+00 9.357969999999999899e+00 -1.767449999999999966e+00 5.085510000000000197e+00 9.359510000000000218e+00 -3.512589999999999879e+00 8.122439999999999216e+00 9.349289999999999878e+00 3.516099999999999781e+00 2.026609999999999800e+00 9.356640000000000512e+00 1.772880000000000011e+00 5.077820000000000000e+00 9.342249999999999943e+00 -4.089999999999999886e-03 8.118499999999999162e+00 9.352399999999999380e+00 7.030579999999999607e+00 2.040830000000000144e+00 9.352710000000000079e+00 5.277800000000000047e+00 5.076749999999999652e+00 9.344269999999999854e+00 3.521739999999999871e+00 8.130380000000000607e+00 9.352439999999999642e+00 -4.069999999999999833e-03 1.723819999999999908e+00 1.700996999999999915e+01 -1.755419999999999980e+00 4.771230000000000082e+00 1.702409000000000106e+01 -3.519489999999999785e+00 7.815010000000000012e+00 1.702410000000000068e+01 3.527089999999999836e+00 1.729759999999999964e+00 1.701765999999999934e+01 1.774710000000000010e+00 4.771759999999999557e+00 1.702438000000000073e+01 -2.040000000000000147e-03 7.810830000000000162e+00 1.703177000000000163e+01 7.044880000000000031e+00 1.725379999999999914e+00 1.701218000000000075e+01 5.269879999999999676e+00 4.769129999999999647e+00 1.701166999999999874e+01 3.518699999999999939e+00 7.828420000000000378e+00 1.702211000000000141e+01 -1.149999999999999981e-03 2.031820000000000181e+00 1.297123999999999988e+01 -1.761919999999999931e+00 5.093440000000000190e+00 1.297855000000000025e+01 -3.520739999999999981e+00 8.131410000000000693e+00 1.297428000000000026e+01 3.517710000000000115e+00 2.023979999999999890e+00 1.298027000000000086e+01 1.756559999999999899e+00 5.090550000000000352e+00 1.297889999999999944e+01 1.274999999999999918e-02 8.129630000000000578e+00 1.298950999999999922e+01 7.042530000000000179e+00 2.033380000000000187e+00 1.297705999999999982e+01 5.286200000000000010e+00 5.081710000000000171e+00 1.297428000000000026e+01 3.514380000000000059e+00 8.116460000000000008e+00 1.298699000000000048e+01 1.119000000000000029e-02 1.738669999999999938e+00 2.063460999999999856e+01 -1.759840000000000071e+00 4.769239999999999924e+00 2.063783000000000101e+01 -3.514110000000000067e+00 7.823400000000000354e+00 2.066497999999999990e+01 3.519499999999999851e+00 1.729819999999999913e+00 2.065093999999999852e+01 1.754229999999999956e+00 4.776690000000000325e+00 2.065061999999999998e+01 -5.519999999999999733e-03 7.841199999999999726e+00 2.063297999999999988e+01 7.047509999999999941e+00 1.728930000000000078e+00 2.065100999999999942e+01 5.273539999999999672e+00 4.766670000000000407e+00 2.065311000000000163e+01 3.517929999999999779e+00 7.827759999999999607e+00 2.065643999999999991e+01 5.271989999999999732e+00 9.139340000000000686e+00 1.116787000000000063e+01 -1.757789999999999964e+00 3.051849999999999952e+00 1.117193999999999932e+01 7.036319999999999908e+00 6.097690000000000055e+00 1.116155999999999970e+01 3.517840000000000078e+00 1.549999999999999946e-03 1.115981999999999985e+01 1.762150000000000105e+00 3.049570000000000114e+00 1.116704000000000008e+01 -1.111000000000000008e-02 6.097979999999999734e+00 1.116360000000000063e+01 1.768489999999999895e+00 9.137589999999999435e+00 1.116083000000000069e+01 5.280640000000000001e+00 3.062580000000000080e+00 1.115910000000000046e+01 3.513830000000000009e+00 6.101130000000000386e+00 1.117530000000000001e+01 1.757609999999999895e+00 2.751360000000000028e+00 1.883472000000000079e+01 -1.940000000000000101e-03 5.798779999999999824e+00 1.884725999999999857e+01 -1.761530000000000040e+00 8.835449999999999804e+00 1.882672000000000168e+01 5.282820000000000071e+00 2.748089999999999922e+00 1.884086999999999890e+01 3.514209999999999834e+00 5.784480000000000288e+00 1.883119999999999905e+01 1.752369999999999983e+00 8.839990000000000236e+00 1.883766999999999925e+01 8.798470000000000013e+00 2.743829999999999991e+00 1.883126000000000033e+01 7.051560000000000272e+00 5.799559999999999604e+00 1.883671000000000006e+01 5.276690000000000325e+00 8.842660000000000409e+00 1.884167000000000058e+01
7.699999999999999597e-04 2.037259999999999849e+00 9.359700000000000131e+00 -1.769290000000000029e+00 5.086680000000000312e+00 9.361580000000000013e+00 -3.510800000000000143e+00 8.120810000000000528e+00 9.348860000000000170e+00 3.515150000000000219e+00 2.025230000000000086e+00 9.358019999999999783e+00 1.776029999999999998e+00 5.077130000000000365e+00 9.340139999999999887e+00 -5.080000000000000314e-03 8.115890000000000271e+00 9.352729999999999322e+00 7.028290000000000148e+00 2.042940000000000200e+00 9.353149999999999409e+00 5.277219999999999800e+00 5.075829999999999842e+00 9.342610000000000525e+00 3.522180000000000089e+00 8.130670000000000286e+00 9.352769999999999584e+00 -5.049999999999999802e-03 1.722909999999999942e+00 1.700709000000000160e+01 -1.754269999999999996e+00 4.770109999999999850e+00 1.702466000000000079e+01 -3.519400000000000084e+00 7.812739999999999796e+00 1.702466000000000079e+01 3.528840000000000199e+00 1.730329999999999924e+00 1.701667000000000129e+01 1.778280000000000083e+00 4.770760000000000112e+00 1.702501000000000175e+01 -2.540000000000000157e-03 7.807489999999999597e+00 1.703419999999999845e+01 7.046050000000000146e+00 1.724849999999999994e+00 1.700984000000000052e+01 5.267430000000000057e+00 4.767479999999999940e+00 1.700922999999999874e+01 3.518369999999999997e+00 7.829430000000000334e+00 1.702223000000000042e+01 -1.430000000000000064e-03 2.031719999999999970e+00 1.296954000000000029e+01 -1.762410000000000032e+00 5.096610000000000085e+00 1.297865000000000002e+01 -3.520919999999999828e+00 8.131990000000000052e+00 1.297330000000000005e+01 3.517170000000000130e+00 2.021980000000000111e+00 1.298075000000000045e+01 1.755670000000000064e+00 5.092990000000000350e+00 1.297907000000000011e+01 1.587999999999999828e-02 8.129789999999999850e+00 1.299224000000000068e+01 7.043140000000000178e+00 2.033659999999999801e+00 1.297672999999999988e+01 5.287720000000000198e+00 5.081990000000000229e+00 1.297331999999999930e+01 3.512989999999999835e+00 8.113369999999999749e+00 1.298917999999999928e+01 1.392999999999999967e-02 1.741449999999999942e+00 2.063108000000000075e+01 -1.759810000000000096e+00 4.767610000000000348e+00 2.063512000000000057e+01 -3.512659999999999894e+00 7.823199999999999932e+00 2.066890000000000072e+01 3.519369999999999887e+00 1.730399999999999938e+00 2.065137999999999963e+01 1.752799999999999914e+00 4.776909999999999989e+00 2.065105000000000146e+01 -6.910000000000000343e-03 7.845390000000000086e+00 2.062911000000000072e+01 7.049369999999999692e+00 1.729309999999999903e+00 2.065149999999999864e+01 5.271959999999999980e+00 4.764450000000000074e+00 2.065409000000000006e+01 3.517399999999999860e+00 7.828599999999999781e+00 2.065824999999999889e+01 5.270050000000000345e+00 9.137879999999999114e+00 1.116874999999999929e+01 -1.757290000000000019e+00 3.052760000000000140e+00 1.117379999999999995e+01 7.035389999999999588e+00 6.097929999999999851e+00 1.116093000000000046e+01 3.517399999999999860e+00 1.879999999999999944e-03 1.115884999999999927e+01 1.762690000000000090e+00 3.049900000000000055e+00 1.116774999999999984e+01 -1.371999999999999956e-02 6.098270000000000302e+00 1.116346000000000060e+01 1.770499999999999963e+00 9.135759999999999437e+00 1.116005000000000003e+01 5.280730000000000146e+00 3.065939999999999888e+00 1.115793999999999997e+01 3.512389999999999901e+00 6.102159999999999584e+00 1.117789999999999928e+01 1.757079999999999975e+00 2.753219999999999779e+00 1.883435000000000059e+01 -2.340000000000000066e-03 5.800329999999999764e+00 1.884995999999999938e+01 -1.761989999999999945e+00 8.834329999999999572e+00 1.882451999999999970e+01 5.283549999999999969e+00 2.749120000000000008e+00 1.884203000000000117e+01 3.512849999999999806e+00 5.782720000000000304e+00 1.883015999999999934e+01 1.750580000000000025e+00 8.839949999999999974e+00 1.883805999999999869e+01 8.798120000000000829e+00 2.743829999999999991e+00 1.883006999999999920e+01 7.054210000000000313e+00 5.801309999999999967e+00 1.883692999999999884e+01 5.275960000000000427e+00 8.843170000000000641e+00 1.884308000000000050e+01
8.999999999999999754e-04 2.038229999999999986e+00 9.361439999999999984e+00 -1.771120000000000028e+00 5.087810000000000166e+00 9.363609999999999545e+00 -3.509049999999999780e+00 8.119210000000000704e+00 9.348440000000000083e+00 3.514200000000000212e+00 2.023880000000000123e+00 9.359370000000000189e+00 1.779139999999999944e+00 5.076450000000000351e+00 9.338079999999999714e+00 -6.060000000000000282e-03 8.113319999999999865e+00 9.353059999999999263e+00 7.026030000000000442e+00 2.045020000000000060e+00 9.353600000000000136e+00 5.276620000000000310e+00 5.074959999999999916e+00 9.340960000000000818e+00 3.522609999999999797e+00 8.130940000000000722e+00 9.353080000000000283e+00 -6.020000000000000177e-03 1.721999999999999975e+00 1.700423999999999936e+01 -1.753109999999999946e+00 4.769000000000000128e+00 1.702523000000000053e+01 -3.519330000000000069e+00 7.810480000000000089e+00 1.702521000000000129e+01 3.530580000000000052e+00 1.730879999999999974e+00 1.701572000000000173e+01 1.781779999999999919e+00 4.769779999999999909e+00 1.702561999999999998e+01 -3.030000000000000141e-03 7.804179999999999673e+00 1.703657000000000110e+01 7.047189999999999621e+00 1.724320000000000075e+00 1.700753999999999877e+01 5.265039999999999942e+00 4.765850000000000364e+00 1.700684000000000040e+01 3.518040000000000056e+00 7.830420000000000158e+00 1.702237999999999829e+01 -1.699999999999999905e-03 2.031610000000000138e+00 1.296787999999999919e+01 -1.762920000000000043e+00 5.099770000000000358e+00 1.297877000000000081e+01 -3.521110000000000184e+00 8.132580000000000808e+00 1.297232999999999947e+01 3.516659999999999897e+00 2.020010000000000083e+00 1.298121000000000080e+01 1.754760000000000097e+00 5.095390000000000086e+00 1.297924000000000078e+01 1.897000000000000075e-02 8.129960000000000520e+00 1.299491000000000085e+01 7.043730000000000047e+00 2.033939999999999859e+00 1.297639000000000031e+01 5.289220000000000255e+00 5.082290000000000418e+00 1.297239000000000075e+01 3.511620000000000186e+00 8.110329999999999373e+00 1.299137999999999948e+01 1.663999999999999854e-02 1.744220000000000104e+00 2.062760000000000105e+01 -1.759770000000000056e+00 4.766000000000000014e+00 2.063248000000000104e+01 -3.511210000000000164e+00 7.823010000000000019e+00 2.067276999999999987e+01 3.519229999999999858e+00 1.730969999999999898e+00 2.065177999999999869e+01 1.751390000000000002e+00 4.777149999999999785e+00 2.065149999999999864e+01 -8.300000000000000086e-03 7.849560000000000315e+00 2.062530999999999892e+01 7.051210000000000200e+00 1.729680000000000106e+00 2.065199000000000140e+01 5.270410000000000039e+00 4.762279999999999625e+00 2.065504999999999924e+01 3.516859999999999875e+00 7.829419999999999824e+00 2.066001999999999938e+01 5.268150000000000333e+00 9.136430000000000717e+00 1.116960000000000086e+01 -1.756829999999999892e+00 3.053690000000000015e+00 1.117561000000000071e+01 7.034449999999999648e+00 6.098180000000000156e+00 1.116031000000000084e+01 3.517030000000000101e+00 2.150000000000000001e-03 1.115795999999999921e+01 1.763220000000000010e+00 3.050250000000000128e+00 1.116846999999999923e+01 -1.624000000000000096e-02 6.098539999999999850e+00 1.116333000000000020e+01 1.772440000000000015e+00 9.133979999999999322e+00 1.115929000000000038e+01 5.280780000000000030e+00 3.069189999999999863e+00 1.115685000000000038e+01 3.511019999999999808e+00 6.103150000000000297e+00 1.118037999999999954e+01 1.756590000000000096e+00 2.755020000000000024e+00 1.883390999999999948e+01 -2.680000000000000090e-03 5.801789999999999559e+00 1.885256000000000043e+01 -1.762499999999999956e+00 8.833289999999999864e+00 1.882238999999999862e+01 5.284320000000000128e+00 2.750100000000000211e+00 1.884312999999999860e+01 3.511550000000000171e+00 5.781030000000000335e+00 1.882919000000000054e+01 1.748860000000000081e+00 8.839949999999999974e+00 1.883840999999999966e+01 8.797779999999999490e+00 2.743799999999999795e+00 1.882883999999999958e+01 7.056700000000000195e+00 5.802979999999999805e+00 1.883715000000000117e+01 5.275299999999999656e+00 8.843640000000000612e+00 1.884444999999999837e+01