-9.999999999999999547e-07 -5.540000000000000219e-04 -6.549999999999999833e-04 -1.999999999999999909e-06 -5.529999999999999976e-04 -6.560000000000000076e-04 -9.999999999999999547e-07 -5.519999999999999733e-04 -6.570000000000000319e-04 0.000000000000000000e+00 -5.519999999999999733e-04 -6.570000000000000319e-04 0.000000000000000000e+00 -5.519999999999999733e-04 -6.570000000000000319e-04 9.999999999999999547e-07 -5.509999999999999490e-04 -6.589999999999999721e-04 9.999999999999999547e-07 -5.529999999999999976e-04 -6.539999999999999590e-04 1.999999999999999909e-06 -5.509999999999999490e-04 -6.560000000000000076e-04 0.000000000000000000e+00 -5.490000000000000088e-04 -6.560000000000000076e-04 0.000000000000000000e+00 -1.730399999999999994e-02 -6.570000000000000319e-04 -1.999999999999999909e-06 -1.730500000000000094e-02 -6.610000000000000207e-04 -9.999999999999999547e-07 -1.730299999999999894e-02 -6.610000000000000207e-04 9.999999999999999547e-07 -1.730399999999999994e-02 -6.589999999999999721e-04 9.999999999999999547e-07 -1.730500000000000094e-02 -6.610000000000000207e-04 1.999999999999999909e-06 -1.729999999999999941e-02 -6.599999999999999964e-04 0.000000000000000000e+00 -1.730699999999999947e-02 -6.579999999999999478e-04 9.999999999999999547e-07 -1.730399999999999994e-02 -6.599999999999999964e-04 -9.999999999999999547e-07 -1.730200000000000141e-02 -6.589999999999999721e-04 -9.999999999999999547e-07 1.760799999999999865e-02 6.319999999999999663e-04 -9.999999999999999547e-07 1.760600000000000012e-02 6.340000000000000149e-04 0.000000000000000000e+00 1.760899999999999965e-02 6.359999999999999551e-04 0.000000000000000000e+00 1.760899999999999965e-02 6.350000000000000392e-04 0.000000000000000000e+00 1.760600000000000012e-02 6.350000000000000392e-04 9.999999999999999547e-07 1.761000000000000065e-02 6.359999999999999551e-04 9.999999999999999547e-07 1.760799999999999865e-02 6.310000000000000504e-04 1.999999999999999909e-06 1.760700000000000112e-02 6.350000000000000392e-04 9.999999999999999547e-07 1.761100000000000165e-02 6.329999999999999906e-04 -9.999999999999999547e-07 4.440000000000000045e-04 6.170000000000000354e-04 -1.999999999999999909e-06 4.440000000000000045e-04 6.199999999999999999e-04 -9.999999999999999547e-07 4.470000000000000232e-04 6.199999999999999999e-04 -9.999999999999999547e-07 4.449999999999999746e-04 6.179999999999999513e-04 9.999999999999999547e-07 4.440000000000000045e-04 6.189999999999999756e-04 1.999999999999999909e-06 4.490000000000000176e-04 6.189999999999999756e-04 0.000000000000000000e+00 4.440000000000000045e-04 6.149999999999999868e-04 9.999999999999999547e-07 4.459999999999999989e-04 6.179999999999999513e-04 -9.999999999999999547e-07 4.479999999999999933e-04 6.179999999999999513e-04 -1.999999999999999909e-06 5.140999999999999737e-03 -8.710000000000000294e-04 -9.999999999999999547e-07 5.134999999999999808e-03 -8.700000000000000051e-04 -9.999999999999999547e-07 5.134999999999999808e-03 -8.710000000000000294e-04 -9.999999999999999547e-07 5.138000000000000206e-03 -8.720000000000000537e-04 -3.000000000000000076e-06 5.133999999999999675e-03 -8.720000000000000537e-04 -1.999999999999999909e-06 5.134999999999999808e-03 -8.720000000000000537e-04 3.000000000000000076e-06 5.143000000000000002e-03 -8.720000000000000537e-04 5.000000000000000409e-06 5.135999999999999940e-03 -8.710000000000000294e-04 9.999999999999999547e-07 5.138000000000000206e-03 -8.710000000000000294e-04 0.000000000000000000e+00 -5.270999999999999644e-03 9.110000000000000259e-04 3.000000000000000076e-06 -5.263999999999999582e-03 9.089999999999999773e-04 3.000000000000000076e-06 -5.259999999999999919e-03 9.079999999999999530e-04 1.999999999999999909e-06 -5.270000000000000379e-03 9.089999999999999773e-04 9.999999999999999547e-07 -5.264999999999999715e-03 9.079999999999999530e-04 9.999999999999999547e-07 -5.259999999999999919e-03 9.100000000000000016e-04 -3.000000000000000076e-06 -5.276000000000000308e-03 9.079999999999999530e-04 -3.000000000000000076e-06 -5.266999999999999980e-03 9.089999999999999773e-04 -3.999999999999999819e-06 -5.262000000000000184e-03 9.089999999999999773e-04
-5.100000000000000366e-03 -9.662999999999999715e-03 -2.696000000000000046e-03 9.549000000000000196e-03 -2.104599999999999874e-02 -2.693399999999999961e-02 -2.999100000000000030e-02 1.770700000000000052e-02 1.379999999999999933e-03 8.035999999999999741e-03 1.707799999999999943e-02 -1.525199999999999993e-02 -3.402299999999999769e-02 9.384999999999999246e-03 3.738099999999999756e-02 1.246200000000000085e-02 2.066399999999999834e-02 -4.922000000000000160e-03 2.803999999999999895e-02 -1.691499999999999948e-02 6.605999999999999893e-03 -1.308600000000000041e-02 3.067599999999999841e-02 1.161799999999999986e-02 7.069999999999999462e-04 -1.332200000000000051e-02 -1.155199999999999977e-02 1.400099999999999956e-02 -1.350499999999999964e-02 2.817199999999999913e-02 3.383999999999999855e-03 -4.380000000000000213e-04 -6.101999999999999785e-03 -1.542800000000000074e-02 4.492000000000000333e-03 -1.055200000000000062e-02 -1.012599999999999958e-02 -2.044400000000000037e-02 1.845799999999999871e-02 -5.134299999999999975e-02 -5.590000000000000351e-04 -1.137499999999999969e-02 5.595000000000000147e-03 9.430000000000000448e-04 -3.915199999999999930e-02 -2.203700000000000103e-02 -1.593400000000000025e-02 2.648800000000000113e-02 3.858600000000000224e-02 2.661999999999999870e-03 3.784400000000000264e-02 -3.059999999999999786e-03 -2.794400000000000009e-02 1.532999999999999988e-02 4.631999999999999833e-03 1.520400000000000050e-02 2.623599999999999891e-02 -6.440999999999999677e-03 2.410000000000000033e-04 1.321100000000000052e-02 -8.819999999999999715e-04 1.421200000000000067e-02 7.631999999999999895e-03 1.581099999999999867e-02 4.183900000000000119e-02 -1.099100000000000077e-02 -1.273099999999999926e-02 -5.320000000000000076e-03 3.991999999999999889e-03 -2.752699999999999939e-02 2.451700000000000060e-02 -3.974199999999999955e-02 -9.695000000000000492e-03 1.344899999999999915e-02 -1.107400000000000051e-02 -1.395000000000000059e-02 2.314899999999999944e-02 1.955600000000000047e-02 1.045899999999999955e-02 4.596800000000000191e-02 4.896000000000000178e-03 -2.458899999999999975e-02 -1.292300000000000046e-02 3.436999999999999778e-02 -1.448999999999999984e-03 1.135599999999999977e-02 4.200000000000000261e-02 -9.577000000000000443e-03 8.469000000000000833e-03 -3.655200000000000116e-02 -2.820000000000000024e-03 -8.024999999999999148e-03 -2.239899999999999877e-02 8.909999999999999518e-03 7.543000000000000226e-03 1.240100000000000056e-02 -1.286999999999999950e-03 -2.029999999999999860e-02 5.999000000000000166e-02 -1.040300000000000079e-02 3.089999999999999756e-04 -2.867999999999999890e-03 2.015899999999999984e-02 3.564300000000000107e-02 -2.025700000000000070e-02 -4.929000000000000221e-03 -1.781699999999999950e-02 -2.490600000000000105e-02 2.184099999999999930e-02 8.555999999999999370e-03 -1.861499999999999960e-02 -1.841699999999999934e-02 1.723699999999999885e-02 -2.984099999999999947e-02 -2.491000000000000159e-03 8.978999999999999135e-03 6.096999999999999989e-03 3.409000000000000224e-02 -1.895900000000000016e-02 3.968200000000000199e-02 -1.350000000000000071e-03 1.559699999999999975e-02 -3.327999999999999795e-03 5.578700000000000325e-02 -9.999999999999999547e-07 2.210000000000000050e-04 -3.741900000000000087e-02 3.292199999999999988e-02 1.477599999999999920e-02 -2.356300000000000061e-02 -5.864199999999999968e-02 3.565299999999999719e-02 3.523699999999999749e-02 -1.290999999999999960e-02 -6.409900000000000320e-02 2.195000000000000076e-02 -3.517900000000000194e-02 -2.986600000000000019e-02 2.977700000000000138e-02 -5.367199999999999749e-02 -5.352500000000000313e-02 -2.643500000000000016e-02 3.598799999999999916e-02 3.271000000000000296e-02 1.159199999999999987e-02 -3.588999999999999829e-02 -3.272800000000000015e-02 3.085500000000000048e-02 3.673300000000000176e-02 4.129399999999999737e-02 3.843900000000000095e-02 1.704699999999999965e-02 -2.035899999999999863e-02 9.959000000000000838e-03 -2.264299999999999993e-02 -1.418900000000000022e-02 -8.326300000000000368e-02 -5.227199999999999902e-02 1.260999999999999968e-03 3.373299999999999910e-02 -2.383499999999999855e-02 -1.564199999999999965e-02
-1.016899999999999922e-02 -1.865800000000000097e-02 -4.774999999999999731e-03 1.911600000000000105e-02 -4.152100000000000235e-02 -5.330599999999999922e-02 -5.956600000000000089e-02 3.582599999999999674e-02 3.092999999999999829e-03 1.598899999999999974e-02 3.473899999999999905e-02 -2.993600000000000080e-02 -6.732799999999999896e-02 1.898599999999999940e-02 7.447800000000000253e-02 2.488699999999999940e-02 4.192099999999999993e-02 -9.308000000000000301e-03 5.597499999999999698e-02 -3.329700000000000021e-02 1.349200000000000052e-02 -2.574099999999999999e-02 6.157300000000000273e-02 2.323800000000000171e-02 1.374999999999999920e-03 -2.600200000000000081e-02 -2.261099999999999915e-02 2.775299999999999989e-02 -9.832000000000000461e-03 5.657999999999999835e-02 6.650999999999999794e-03 1.641099999999999851e-02 -1.160199999999999947e-02 -3.070300000000000112e-02 2.628099999999999881e-02 -2.072900000000000090e-02 -2.008899999999999922e-02 -2.368699999999999972e-02 3.719800000000000190e-02 -1.021589999999999998e-01 1.581499999999999920e-02 -2.310699999999999907e-02 1.117100000000000037e-02 1.928300000000000153e-02 -7.771899999999999642e-02 -4.368500000000000161e-02 -1.460599999999999919e-02 5.306600000000000206e-02 7.610300000000000398e-02 2.209500000000000006e-02 7.528700000000000669e-02 -5.983999999999999736e-03 -3.856099999999999806e-02 3.111299999999999830e-02 9.341999999999999610e-03 1.273799999999999932e-02 5.181000000000000189e-02 -1.291300000000000087e-02 -1.705299999999999871e-02 2.578599999999999989e-02 -1.783000000000000080e-03 1.079199999999999951e-02 1.467399999999999954e-02 3.121099999999999916e-02 6.575699999999999601e-02 -2.217699999999999880e-02 -2.548100000000000018e-02 -2.824600000000000027e-02 7.434999999999999769e-03 -5.441399999999999709e-02 3.116100000000000120e-02 -7.930199999999999749e-02 -1.926599999999999840e-02 9.265000000000000666e-03 -2.243799999999999961e-02 -2.793999999999999956e-02 2.870800000000000088e-02 3.855000000000000093e-02 2.082300000000000123e-02 7.442300000000000304e-02 9.246000000000000746e-03 -4.948600000000000221e-02 -2.650699999999999931e-02 6.827199999999999935e-02 -2.938000000000000073e-03 2.211300000000000071e-02 8.339299999999999491e-02 -1.900200000000000153e-02 1.624700000000000102e-02 -7.325299999999999867e-02 -5.617999999999999730e-03 -1.623000000000000137e-02 -4.508500000000000008e-02 1.792099999999999943e-02 1.451999999999999992e-02 2.413200000000000067e-02 -2.801000000000000104e-03 -4.120100000000000151e-02 1.196780000000000066e-01 -2.067899999999999947e-02 1.810000000000000085e-04 -6.341000000000000282e-03 3.975299999999999667e-02 7.041000000000000036e-02 -4.034399999999999792e-02 -9.735000000000000597e-03 -3.558700000000000058e-02 -4.993299999999999822e-02 4.346200000000000063e-02 1.213000000000000016e-02 -3.589400000000000229e-02 -3.669900000000000245e-02 2.931100000000000025e-02 -5.853699999999999876e-02 -4.947000000000000008e-03 1.298999999999999981e-02 1.319200000000000060e-02 6.732299999999999396e-02 -4.279000000000000165e-02 7.946400000000000685e-02 -2.668999999999999932e-03 2.594300000000000078e-02 -5.768999999999999823e-03 1.107309999999999961e-01 -4.824000000000000163e-03 2.024999999999999890e-03 -7.458700000000000052e-02 6.028100000000000125e-02 3.052600000000000105e-02 -4.691300000000000331e-02 -1.217410000000000020e-01 7.170999999999999597e-02 7.001599999999999491e-02 -3.088499999999999926e-02 -1.266510000000000136e-01 4.416799999999999893e-02 -6.451999999999999402e-02 -6.034799999999999887e-02 5.904000000000000220e-02 -1.016370000000000051e-01 -1.068820000000000048e-01 -5.281700000000000284e-02 7.696100000000000163e-02 6.374599999999999711e-02 2.287900000000000003e-02 -6.611599999999999422e-02 -6.588800000000000212e-02 6.164100000000000135e-02 7.811899999999999400e-02 8.140899999999999526e-02 7.693500000000000338e-02 3.943499999999999783e-02 -4.185500000000000331e-02 1.980099999999999916e-02 -4.005299999999999833e-02 -2.912000000000000005e-02 -1.646189999999999876e-01 -9.842599999999999960e-02 2.076999999999999853e-03 6.680999999999999439e-02 -4.207400000000000029e-02 -3.209399999999999753e-02
-1.520900000000000030e-02 -2.752299999999999885e-02 -6.949000000000000316e-03 2.870699999999999988e-02 -6.186200000000000032e-02 -7.970399999999999707e-02 -8.858000000000000596e-02 5.378600000000000048e-02 4.556000000000000154e-03 2.386299999999999880e-02 5.231500000000000039e-02 -4.462900000000000200e-02 -9.984899999999999332e-02 2.822099999999999956e-02 1.104149999999999993e-01 3.724999999999999839e-02 6.318899999999999517e-02 -1.386800000000000012e-02 8.366800000000000626e-02 -4.963299999999999657e-02 1.995999999999999858e-02 -3.780900000000000233e-02 9.186099999999999821e-02 3.424599999999999866e-02 1.974000000000000060e-03 -3.847600000000000325e-02 -3.382500000000000090e-02 4.127399999999999819e-02 -6.342999999999999680e-03 8.445199999999999929e-02 9.698000000000000023e-03 3.318000000000000116e-02 -1.717600000000000030e-02 -4.576800000000000312e-02 4.795699999999999963e-02 -3.120600000000000110e-02 -2.990599999999999856e-02 -2.703500000000000000e-02 5.530600000000000099e-02 -1.522209999999999952e-01 3.176500000000000157e-02 -3.585100000000000092e-02 1.673699999999999841e-02 3.777500000000000302e-02 -1.161670000000000064e-01 -6.481399999999999662e-02 -1.336500000000000014e-02 7.889899999999999691e-02 1.124190000000000050e-01 4.095399999999999735e-02 1.114819999999999978e-01 -8.706000000000000197e-03 -4.906699999999999950e-02 4.659300000000000247e-02 1.404099999999999966e-02 1.024000000000000084e-02 7.721699999999999398e-02 -1.936500000000000027e-02 -3.427499999999999991e-02 3.824700000000000322e-02 -2.701999999999999975e-03 7.340000000000000170e-03 2.176799999999999916e-02 4.611900000000000027e-02 8.928300000000000125e-02 -3.281099999999999989e-02 -3.803100000000000230e-02 -5.111099999999999671e-02 1.097899999999999918e-02 -8.062800000000000522e-02 3.745600000000000318e-02 -1.178010000000000029e-01 -2.867099999999999857e-02 5.148999999999999931e-03 -3.332899999999999752e-02 -4.194699999999999818e-02 3.418500000000000011e-02 5.747700000000000031e-02 3.111999999999999836e-02 1.029059999999999975e-01 1.350400000000000038e-02 -7.461199999999999777e-02 -4.038900000000000129e-02 1.022549999999999987e-01 -4.440000000000000370e-03 3.272100000000000009e-02 1.245880000000000043e-01 -2.834499999999999867e-02 2.368599999999999872e-02 -1.093989999999999962e-01 -8.368000000000000438e-03 -2.403699999999999934e-02 -6.723400000000000210e-02 2.702500000000000041e-02 2.126400000000000165e-02 3.570899999999999769e-02 -4.401000000000000398e-03 -6.236200000000000077e-02 1.793829999999999869e-01 -3.078799999999999940e-02 0.000000000000000000e+00 -9.825000000000000400e-03 5.871599999999999736e-02 1.045279999999999959e-01 -5.943099999999999772e-02 -1.434599999999999938e-02 -5.265999999999999848e-02 -7.437100000000000655e-02 6.480700000000000349e-02 1.594399999999999984e-02 -5.256399999999999961e-02 -5.476400000000000018e-02 4.122599999999999876e-02 -8.676399999999999391e-02 -7.284999999999999809e-03 1.708600000000000049e-02 2.037500000000000075e-02 9.940400000000000624e-02 -6.620399999999999896e-02 1.181210000000000038e-01 -3.964999999999999775e-03 3.601599999999999940e-02 -8.160999999999999852e-03 1.644529999999999881e-01 -9.332999999999999283e-03 4.500999999999999793e-03 -1.112329999999999985e-01 8.712100000000000399e-02 4.625100000000000044e-02 -6.983200000000000518e-02 -1.837320000000000064e-01 1.070170000000000010e-01 1.041519999999999946e-01 -4.871099999999999736e-02 -1.880070000000000074e-01 6.650000000000000355e-02 -9.307400000000000395e-02 -9.023899999999999977e-02 8.754299999999999582e-02 -1.487829999999999986e-01 -1.587490000000000012e-01 -7.885100000000000442e-02 1.172499999999999931e-01 9.383299999999999974e-02 3.375899999999999734e-02 -9.576600000000000390e-02 -9.831800000000000261e-02 9.208800000000000319e-02 1.186340000000000033e-01 1.209459999999999980e-01 1.152640000000000053e-01 6.168499999999999678e-02 -6.335699999999999665e-02 2.948900000000000132e-02 -5.740200000000000163e-02 -4.365000000000000130e-02 -2.434510000000000007e-01 -1.434519999999999962e-01 3.328999999999999928e-03 9.894500000000000517e-02 -5.983000000000000124e-02 -4.835199999999999915e-02
-2.017400000000000096e-02 -3.624200000000000338e-02 -9.232999999999999888e-03 3.834900000000000114e-02 -8.189599999999999658e-02 -1.060050000000000020e-01 -1.168679999999999997e-01 7.156500000000000361e-02 5.797000000000000069e-03 3.160999999999999921e-02 6.966100000000000070e-02 -5.924600000000000005e-02 -1.314750000000000085e-01 3.707799999999999985e-02 1.450829999999999897e-01 4.954599999999999976e-02 8.437799999999999467e-02 -1.857299999999999923e-02 1.109549999999999981e-01 -6.587999999999999412e-02 2.593700000000000172e-02 -4.922699999999999992e-02 1.213049999999999962e-01 4.469499999999999862e-02 2.443999999999999992e-03 -5.066600000000000270e-02 -4.504799999999999777e-02 5.454900000000000027e-02 -3.076000000000000175e-03 1.116230000000000000e-01 1.238999999999999997e-02 4.978899999999999992e-02 -2.280700000000000088e-02 -6.049600000000000116e-02 6.938099999999999823e-02 -4.188800000000000162e-02 -3.953000000000000264e-02 -3.048800000000000121e-02 7.265800000000000036e-02 -2.011940000000000117e-01 4.724699999999999733e-02 -4.952600000000000058e-02 2.220300000000000051e-02 5.646899999999999836e-02 -1.542699999999999905e-01 -8.533499999999999419e-02 -1.218200000000000012e-02 1.038000000000000034e-01 1.473659999999999970e-01 5.915600000000000025e-02 1.463349999999999929e-01 -1.115499999999999999e-02 -5.943500000000000172e-02 6.163899999999999935e-02 1.870199999999999987e-02 7.714000000000000370e-03 1.023010000000000030e-01 -2.571999999999999981e-02 -5.133900000000000269e-02 5.047999999999999710e-02 -3.651000000000000165e-03 3.873000000000000140e-03 2.892700000000000132e-02 6.041200000000000042e-02 1.123170000000000002e-01 -4.274599999999999927e-02 -5.015700000000000019e-02 -7.378700000000000536e-02 1.450599999999999980e-02 -1.060750000000000026e-01 4.331600000000000034e-02 -1.550570000000000004e-01 -3.786899999999999988e-02 1.111999999999999924e-03 -4.361700000000000299e-02 -5.601199999999999929e-02 3.954200000000000076e-02 7.621300000000000296e-02 4.133699999999999875e-02 1.312490000000000046e-01 1.739200000000000121e-02 -9.983999999999999819e-02 -5.456099999999999839e-02 1.360899999999999888e-01 -5.978999999999999940e-03 4.314099999999999879e-02 1.652619999999999922e-01 -3.759599999999999748e-02 3.069200000000000053e-02 -1.448929999999999940e-01 -1.102999999999999987e-02 -3.135700000000000293e-02 -8.880599999999999605e-02 3.626399999999999763e-02 2.766000000000000056e-02 4.700499999999999817e-02 -6.034000000000000301e-03 -8.377999999999999337e-02 2.386290000000000078e-01 -4.068299999999999694e-02 -2.130000000000000003e-04 -1.335399999999999955e-02 7.698499999999999788e-02 1.377549999999999886e-01 -7.745699999999999807e-02 -1.869699999999999834e-02 -6.889499999999999791e-02 -9.809199999999999864e-02 8.573300000000000365e-02 2.000800000000000148e-02 -6.847399999999999320e-02 -7.245699999999999363e-02 5.283100000000000296e-02 -1.142859999999999987e-01 -9.476000000000000048e-03 2.123799999999999993e-02 2.761200000000000113e-02 1.300449999999999939e-01 -8.906000000000000028e-02 1.552979999999999916e-01 -5.244000000000000397e-03 4.572999999999999982e-02 -1.049600000000000012e-02 2.166410000000000002e-01 -1.349599999999999932e-02 7.605999999999999914e-03 -1.470110000000000028e-01 1.131869999999999959e-01 6.178999999999999770e-02 -9.215099999999999680e-02 -2.441089999999999927e-01 1.412599999999999967e-01 1.373469999999999969e-01 -6.623700000000000421e-02 -2.476089999999999958e-01 8.884400000000000630e-02 -1.206310000000000021e-01 -1.192040000000000044e-01 1.149960000000000010e-01 -1.947049999999999892e-01 -2.086800000000000044e-01 -1.042769999999999947e-01 1.564750000000000030e-01 1.227580000000000060e-01 4.408900000000000319e-02 -1.246140000000000025e-01 -1.297449999999999992e-01 1.219449999999999978e-01 1.579069999999999918e-01 1.595709999999999906e-01 1.530940000000000079e-01 8.361799999999999788e-02 -8.462400000000000477e-02 3.892899999999999833e-02 -7.452599999999999503e-02 -5.754700000000000093e-02 -3.191530000000000200e-01 -1.870499999999999940e-01 4.982999999999999582e-03 1.299180000000000057e-01 -7.695000000000000451e-02 -6.429600000000000593e-02
-2.505299999999999888e-02 -4.476000000000000117e-02 -1.165099999999999990e-02 4.802700000000000025e-02 -1.014879999999999949e-01 -1.320860000000000090e-01 -1.442499999999999893e-01 8.912599999999999689e-02 6.878999999999999698e-03 3.920400000000000273e-02 8.663200000000000067e-02 -7.364600000000000313e-02 -1.621390000000000053e-01 4.552799999999999903e-02 1.782990000000000130e-01 6.174199999999999827e-02 1.054459999999999981e-01 -2.342599999999999891e-02 1.376910000000000078e-01 -8.199099999999999444e-02 3.143200000000000160e-02 -5.988899999999999779e-02 1.496470000000000022e-01 5.464900000000000313e-02 2.707000000000000205e-03 -6.246800000000000269e-02 -5.625900000000000345e-02 6.757199999999999318e-02 -1.019999999999999992e-04 1.379779999999999895e-01 1.462899999999999964e-02 6.617499999999999771e-02 -2.845900000000000166e-02 -7.483700000000000074e-02 9.043500000000000150e-02 -5.270899999999999891e-02 -4.892799999999999927e-02 -3.406200000000000200e-02 8.905399999999999427e-02 -2.487880000000000091e-01 6.227099999999999996e-02 -6.403899999999999870e-02 2.751599999999999879e-02 7.539999999999999480e-02 -1.917510000000000048e-01 -1.051290000000000002e-01 -1.107499999999999978e-02 1.275830000000000020e-01 1.808009999999999895e-01 7.667300000000000504e-02 1.797469999999999901e-01 -1.324600000000000083e-02 -6.962400000000000533e-02 7.618600000000000372e-02 2.324000000000000024e-02 5.223000000000000212e-03 1.269029999999999880e-01 -3.192600000000000299e-02 -6.822799999999999698e-02 6.235500000000000070e-02 -4.598999999999999790e-03 3.730000000000000134e-04 3.617299999999999682e-02 7.400900000000000534e-02 1.347760000000000069e-01 -5.189900000000000069e-02 -6.164800000000000141e-02 -9.619600000000000373e-02 1.799100000000000005e-02 -1.306910000000000016e-01 4.870000000000000023e-02 -1.908870000000000011e-01 -4.681500000000000244e-02 -2.795000000000000175e-03 -5.322899999999999854e-02 -7.010099999999999665e-02 4.470099999999999768e-02 9.462700000000000278e-02 5.143400000000000055e-02 1.593199999999999894e-01 2.074900000000000008e-02 -1.250549999999999995e-01 -6.904399999999999427e-02 1.695949999999999958e-01 -7.542000000000000093e-03 5.333399999999999946e-02 2.050839999999999885e-01 -4.678999999999999826e-02 3.719800000000000190e-02 -1.796699999999999964e-01 -1.356399999999999967e-02 -3.812000000000000111e-02 -1.096810000000000007e-01 4.565000000000000308e-02 3.362300000000000011e-02 5.789400000000000102e-02 -7.604999999999999781e-03 -1.054660000000000042e-01 2.969570000000000265e-01 -5.031000000000000055e-02 -4.780000000000000178e-04 -1.695299999999999932e-02 9.449299999999999367e-02 1.698830000000000062e-01 -9.434099999999999431e-02 -2.270900000000000002e-02 -8.415100000000000358e-02 -1.210360000000000047e-01 1.061359999999999942e-01 2.436299999999999924e-02 -8.349900000000000377e-02 -8.969699999999999895e-02 6.401099999999999846e-02 -1.408689999999999942e-01 -1.145400000000000064e-02 2.535199999999999954e-02 3.483100000000000085e-02 1.590219999999999967e-01 -1.111889999999999962e-01 1.906509999999999871e-01 -6.501999999999999967e-03 5.496899999999999703e-02 -1.274899999999999992e-02 2.669110000000000094e-01 -1.731600000000000153e-02 1.127200000000000077e-02 -1.816379999999999939e-01 1.383369999999999878e-01 7.701099999999999612e-02 -1.136650000000000021e-01 -3.024029999999999774e-01 1.741419999999999912e-01 1.693600000000000105e-01 -8.337600000000000566e-02 -3.049419999999999908e-01 1.110300000000000037e-01 -1.469719999999999915e-01 -1.469459999999999933e-01 1.411399999999999877e-01 -2.389940000000000120e-01 -2.562470000000000026e-01 -1.288420000000000121e-01 1.942109999999999947e-01 1.503309999999999924e-01 5.378700000000000148e-02 -1.524500000000000022e-01 -1.598880000000000023e-01 1.509369999999999878e-01 1.956650000000000056e-01 1.969569999999999932e-01 1.901229999999999865e-01 1.050230000000000052e-01 -1.054049999999999987e-01 4.805600000000000149e-02 -9.130499999999999727e-02 -7.059899999999999509e-02 -3.911569999999999769e-01 -2.289039999999999964e-01 6.996999999999999748e-03 1.594800000000000106e-01 -9.332799999999999430e-02 -7.978699999999999681e-02
-2.982399999999999982e-02 -5.306500000000000106e-02 -1.420199999999999935e-02 5.778300000000000103e-02 -1.205009999999999970e-01 -1.578779999999999906e-01 -1.706050000000000066e-01 1.064910000000000023e-01 7.861999999999999197e-03 4.661499999999999672e-02 1.030859999999999971e-01 -8.773400000000000643e-02 -1.918169999999999875e-01 5.354699999999999738e-02 2.099439999999999917e-01 7.383499999999999786e-02 1.263549999999999951e-01 -2.839200000000000057e-02 1.637619999999999909e-01 -9.792700000000000016e-02 3.645299999999999929e-02 -6.971399999999999819e-02 1.766500000000000015e-01 6.412600000000000244e-02 2.716000000000000098e-03 -7.376599999999999824e-02 -6.738600000000000145e-02 8.036000000000000087e-02 2.549000000000000050e-03 1.634339999999999959e-01 1.631200000000000011e-02 8.228100000000000691e-02 -3.410599999999999743e-02 -8.870000000000000107e-02 1.110310000000000047e-01 -6.360100000000000475e-02 -5.810699999999999893e-02 -3.776600000000000096e-02 1.043739999999999946e-01 -2.947440000000000060e-01 7.684799999999999964e-02 -7.924299999999999400e-02 3.260500000000000204e-02 9.461200000000000165e-02 -2.283769999999999967e-01 -1.241130000000000011e-01 -1.003700000000000078e-02 1.500940000000000052e-01 2.126149999999999984e-01 9.349000000000000365e-02 2.116719999999999990e-01 -1.490900000000000038e-02 -7.961000000000000021e-02 9.012100000000000666e-02 2.759999999999999953e-02 2.784000000000000016e-03 1.508450000000000069e-01 -3.791300000000000225e-02 -8.492399999999999949e-02 7.377400000000000624e-02 -5.542000000000000051e-03 -3.132999999999999934e-03 4.352099999999999719e-02 8.683000000000000440e-02 1.565900000000000070e-01 -6.019499999999999851e-02 -7.230200000000000515e-02 -1.182689999999999991e-01 2.137599999999999917e-02 -1.544540000000000080e-01 5.354600000000000332e-02 -2.251670000000000060e-01 -5.547200000000000047e-02 -6.543000000000000205e-03 -6.207800000000000124e-02 -8.423400000000000332e-02 4.958200000000000107e-02 1.126790000000000014e-01 6.141900000000000137e-02 1.870259999999999978e-01 2.334299999999999917e-02 -1.501429999999999987e-01 -8.384900000000000686e-02 2.026040000000000063e-01 -9.117999999999999369e-03 6.326600000000000279e-02 2.437610000000000054e-01 -5.593399999999999761e-02 4.314099999999999879e-02 -2.136939999999999951e-01 -1.595200000000000090e-02 -4.426399999999999779e-02 -1.298040000000000027e-01 5.520800000000000013e-02 3.904400000000000232e-02 6.820199999999999874e-02 -9.029999999999999832e-03 -1.274550000000000127e-01 3.538899999999999824e-01 -5.962599999999999845e-02 -7.979999999999999897e-04 -2.064699999999999869e-02 1.111970000000000042e-01 2.007339999999999958e-01 -1.100399999999999989e-01 -2.632599999999999871e-02 -9.831900000000000361e-02 -1.431719999999999937e-01 1.259049999999999891e-01 2.907300000000000162e-02 -9.750999999999999945e-02 -1.063410000000000050e-01 7.460100000000000064e-02 -1.662970000000000004e-01 -1.315700000000000029e-02 2.938599999999999893e-02 4.197599999999999942e-02 1.860989999999999867e-01 -1.324400000000000022e-01 2.239049999999999929e-01 -7.758000000000000139e-03 6.360000000000000375e-02 -1.488399999999999966e-02 3.149419999999999997e-01 -2.078699999999999992e-02 1.542999999999999927e-02 -2.148180000000000089e-01 1.624220000000000108e-01 9.179099999999999759e-02 -1.341980000000000117e-01 -3.582130000000000036e-01 2.053949999999999942e-01 1.999319999999999986e-01 -9.997899999999999843e-02 -3.595059999999999922e-01 1.329220000000000124e-01 -1.719030000000000002e-01 -1.731679999999999886e-01 1.657530000000000114e-01 -2.812790000000000012e-01 -3.010920000000000263e-01 -1.523009999999999919e-01 2.300939999999999930e-01 1.764300000000000035e-01 6.274299999999999322e-02 -1.790859999999999952e-01 -1.885179999999999911e-01 1.787749999999999895e-01 2.316110000000000113e-01 2.327990000000000059e-01 2.260399999999999909e-01 1.256700000000000039e-01 -1.254500000000000060e-01 5.683499999999999663e-02 -1.075900000000000051e-01 -8.260499999999999787e-02 -4.589500000000000246e-01 -2.687390000000000057e-01 9.331000000000000752e-03 1.874260000000000093e-01 -1.088269999999999932e-01 -9.471000000000000252e-02