2.233606246043854660e-01 0.000000000000000000e+00 0.000000000000000000e+00 0.000000000000000000e+00 2.825280439458320858e-01 -9.361363483763301963e-01 0.000000000000000000e+00 -9.361363483763301963e-01 -2.035597920313768627e-01
1.434339762274923491e-01 6.574961391366139496e-02 -3.001770052163858695e-03 6.574961391366139496e-02 3.435399244036686506e-01 -1.141848011710161703e+00 -3.001770052163858695e-03 -1.141848011710161703e+00 -2.310639622081312738e-01
7.665363404290720384e-02 1.310290710721645768e-01 -8.444738640726036707e-03 1.310290710721645768e-01 4.136113638743610932e-01 -1.346854439911256307e+00 -8.444738640726036707e-03 -1.346854439911256307e+00 -2.428902128955719997e-01
2.455664898095494264e-02 1.953139658639869713e-01 -1.611191034022890420e-02 1.953139658639869713e-01 4.933933486342824137e-01 -1.551101384123249050e+00 -1.611191034022890420e-02 -1.551101384123249050e+00 -2.377184885888318500e-01
-1.358029704322324081e-02 2.582245562945777451e-01 -2.591287039006512014e-02 2.582245562945777451e-01 5.813849936573507460e-01 -1.754516512537654060e+00 -2.591287039006512014e-02 -1.754516512537654060e+00 -2.172847526915718530e-01
-3.837202440175727786e-02 3.193268515130215923e-01 -3.759445746053410864e-02 3.193268515130215923e-01 6.762481604865773210e-01 -1.957009410393864446e+00 -3.759445746053410864e-02 -1.957009410393864446e+00 -1.829994754692665648e-01
-5.110242269527147385e-02 3.782411095247676935e-01 -5.083117841344943905e-02 3.782411095247676935e-01 7.762107198140580921e-01 -2.158598160644000785e+00 -5.083117841344943905e-02 -2.158598160644000785e+00 -1.373038554583143334e-01
-5.301921562014719203e-02 4.345695053831437060e-01 -6.535178896698906614e-02 4.345695053831437060e-01 8.794462934755247208e-01 -2.359463592809278865e+00 -6.535178896698906614e-02 -2.359463592809278865e+00 -8.262100824299199731e-02
-4.564137115458782867e-02 4.879865459499632130e-01 -8.081271303084509861e-02 4.879865459499632130e-01 9.841104203545876228e-01 -2.559822702315155851e+00 -8.081271303084509861e-02 -2.559822702315155851e+00 -2.150063007242667551e-02
-3.084951631922616330e-02 5.381848210391612097e-01 -9.683420861046665440e-02 5.381848210391612097e-01 1.088123560957277469e+00 -2.760037148204060653e+00 -9.683420861046665440e-02 -2.760037148204060653e+00 4.296509424061041582e-02
2.997733414308714117e+01 5.168585904892485594e+00 1.648261340317737356e-01 5.168585904892485594e+00 5.136566077749468917e+01 4.014287294126431149e+00 1.648261340317737356e-01 4.014287294126431149e+00 5.722765436273358830e+01
2.977800951588592682e+01 5.216577829620477225e+00 1.464510023934416649e-01 5.216577829620477225e+00 5.122070522547780058e+01 3.878510713386313924e+00 1.464510023934416649e-01 3.878510713386313924e+00 5.679302835386995696e+01
2.951157870167250863e+01 5.254531328832299231e+00 1.264772858698290925e-01 5.254531328832299231e+00 5.097397310243138691e+01 3.726438880267208376e+00 1.264772858698290925e-01 3.726438880267208376e+00 5.613898367768797470e+01
2.918027628146931463e+01 5.282119809916979492e+00 1.049565517152998700e-01 5.282119809916979492e+00 5.062752709852999544e+01 3.558106172938690470e+00 1.049565517152998700e-01 3.558106172938690470e+00 5.527057392511531475e+01
2.878503046585490566e+01 5.299188571111425716e+00 8.207787986252160217e-02 5.299188571111425716e+00 5.018282828598061940e+01 3.373942318520458450e+00 8.207787986252160217e-02 3.373942318520458450e+00 5.419201042192502626e+01
2.832594438933799808e+01 5.305892314178731084e+00 5.811629566810168346e-02 5.305892314178731084e+00 4.964111427888796868e+01 3.174445800471364265e+00 5.811629566810168346e-02 3.174445800471364265e+00 5.290817486819688042e+01
2.780624959985873446e+01 5.302437308136350502e+00 3.341558082779936406e-02 5.302437308136350502e+00 4.900718083190790963e+01 2.960046345911106158e+00 3.341558082779936406e-02 2.960046345911106158e+00 5.142621792320268526e+01
2.722678836257172463e+01 5.289322036443135033e+00 8.285138867797990636e-03 5.289322036443135033e+00 4.828396727853917270e+01 2.731534652739930902e+00 8.285138867797990636e-03 2.731534652739930902e+00 4.975463099482767859e+01
2.658950304405800935e+01 5.267148117066663637e+00 -1.684530309220338626e-02 5.267148117066663637e+00 4.747618342801365543e+01 2.489735797027660347e+00 -1.684530309220338626e-02 2.489735797027660347e+00 4.790255867617906915e+01
2.589700638520535847e+01 5.236706247907181755e+00 -4.161477427165754389e-02 5.236706247907181755e+00 4.658943292197223940e+01 2.235749880200724515e+00 -4.161477427165754389e-02 2.235749880200724515e+00 4.588170673399745425e+01
1.564830863238791947e+00 -1.456222188003745188e+01 8.909092226283581439e+00 -1.456222188003745188e+01 2.021303589860929506e+01 1.643975324615118083e+01 8.909092226283581439e+00 1.643975324615118083e+01 -5.990727722500651886e+00
1.721809387787662571e+00 -1.440752308934995263e+01 8.953089294742046178e+00 -1.440752308934995263e+01 2.036340858015828204e+01 1.640045925069806643e+01 8.953089294742046178e+00 1.640045925069806643e+01 -5.586568605265909149e+00
1.900113296803549234e+00 -1.424383101783924488e+01 8.981774449942628635e+00 -1.424383101783924488e+01 2.052058456197073966e+01 1.632869251071563355e+01 8.981774449942628635e+00 1.632869251071563355e+01 -5.158499208477239861e+00
2.097750066990291984e+00 -1.407233040908682575e+01 8.995057938583698842e+00 -1.407233040908682575e+01 2.068328934716352663e+01 1.622439917422290279e+01 8.995057938583698842e+00 1.622439917422290279e+01 -4.710289170803054759e+00
2.313588806747366444e+00 -1.389408035205191538e+01 8.992742303401675130e+00 -1.389408035205191538e+01 2.085087671196492920e+01 1.608756129055954531e+01 8.992742303401675130e+00 1.608756129055954531e+01 -4.244577239311243311e+00
2.545690844759590732e+00 -1.371033739295731912e+01 8.974737791094927530e+00 -1.371033739295731912e+01 2.102217986345376488e+01 1.591819681038589174e+01 8.974737791094927530e+00 1.591819681038589174e+01 -3.764253470314252947e+00
2.791991855089499097e+00 -1.352234012736551527e+01 8.940864895060197881e+00 -1.352234012736551527e+01 2.119578069946430077e+01 1.571630573370194384e+01 8.940864895060197881e+00 1.571630573370194384e+01 -3.272243821445186107e+00
3.050463413120280798e+00 -1.333123739753735393e+01 8.890962059354553304e+00 -1.333123739753735393e+01 2.137042267377372795e+01 1.548183420852671865e+01 8.890962059354553304e+00 1.548183420852671865e+01 -2.772156375429521535e+00
3.318646278387304971e+00 -1.313832165101629101e+01 8.824831826714410354e+00 -1.313832165101629101e+01 2.154429276968915374e+01 1.521478223486021619e+01 8.824831826714410354e+00 1.521478223486021619e+01 -2.267222251125899479e+00
3.594350470330827108e+00 -1.294461607544089077e+01 8.742276739876187364e+00 -1.294461607544089077e+01 2.171584723042254694e+01 1.491497030609918539e+01 8.742276739876187364e+00 1.491497030609918539e+01 -1.761031580599472957e+00
4.788913240194894172e+01 -3.481249795494983257e+00 9.438961766611596582e-01 -3.481249795494983257e+00 2.027070365363325966e+00 9.542426433421386633e+00 9.438961766611596582e-01 9.542426433421386633e+00 4.405910090296990234e+01
4.788641794301943833e+01 -3.366366888543014468e+00 7.992592973141612323e-01 -3.366366888543014468e+00 1.927948832840743476e+00 9.570621781011732665e+00 7.992592973141612323e-01 9.570621781011732665e+00 4.387933367128363216e+01
4.779265527780284373e+01 -3.245494659307879282e+00 6.555681004329260153e-01 -3.245494659307879282e+00 1.794572579891628550e+00 9.572933449261377348e+00 6.555681004329260153e-01 9.572933449261377348e+00 4.352545579006739729e+01
4.760786191893742370e+01 -3.119858992467418712e+00 5.132954272503356119e-01 -3.119858992467418712e+00 1.627256834004569441e+00 9.548485806257573927e+00 5.132954272503356119e-01 9.548485806257573927e+00 4.299953375063530103e+01
4.733223050544397381e+01 -2.990738310614237783e+00 3.728966063610165693e-01 -2.990738310614237783e+00 1.425984082541311038e+00 9.496193068428521400e+00 3.728966063610165693e-01 9.496193068428521400e+00 4.230389673387522720e+01
4.696633895438490214e+01 -2.859568650085237085e+00 2.346518399770469721e-01 -2.859568650085237085e+00 1.190211433715952172e+00 9.415092040670204554e+00 2.346518399770469721e-01 9.415092040670204554e+00 4.144103153441936627e+01
4.651134309988503901e+01 -2.727663458749531422e+00 9.871874184272064201e-02 -2.727663458749531422e+00 9.191858440835333210e-01 9.304324603708129970e+00 9.871874184272064201e-02 9.304324603708129970e+00 4.041344245953816738e+01
4.596899420576987438e+01 -2.596493798220530724e+00 -3.492020068021730456e-02 -2.596493798220530724e+00 6.119441185400367189e-01 9.163190252012107351e+00 -3.492020068021730456e-02 9.163190252012107351e+00 3.922480716326515449e+01
4.534153388973602006e+01 -2.467443166920369357e+00 -1.662649875917668330e-01 -2.467443166920369357e+00 2.674179861519148660e-01 8.991233656987507317e+00 -1.662649875917668330e-01 8.991233656987507317e+00 3.787936370405800091e+01
4.463085351671500689e+01 -2.341702424250379444e+00 -2.954206947214572110e-01 -2.341702424250379444e+00 -1.166867086922206004e-01 8.788279692251780517e+00 -2.954206947214572110e-01 8.788279692251780517e+00 3.638164785522473466e+01
-2.199353296739906227e+01 -7.128841083744547724e+00 -9.432964038404444196e+00 -7.128841083744547724e+00 -2.248806402267284810e+01 3.836101625645267355e+00 -9.432964038404444196e+00 3.836101625645267355e+00 -1.199652316484359993e+01
-2.205996556044466317e+01 -7.144623002159518066e+00 -9.390389992609707193e+00 -7.144623002159518066e+00 -2.260018991127049759e+01 3.667495036084867266e+00 -9.390389992609707193e+00 3.667495036084867266e+00 -1.225774176505561108e+01
-2.210177836076291058e+01 -7.155373273644538124e+00 -9.334689104086285383e+00 -7.155373273644538124e+00 -2.268817874817466418e+01 3.492130072050291911e+00 -9.334689104086285383e+00 3.492130072050291911e+00 -1.246014022698688706e+01
-2.211754171221503995e+01 -7.161054764273926843e+00 -9.265861372834175214e+00 -7.161054764273926843e+00 -2.275041520761816827e+01 3.309969599615859348e+00 -9.265861372834175214e+00 3.309969599615859348e+00 -1.260408988989425261e+01
-2.210807256116605757e+01 -7.161723174936208025e+00 -9.184018200630427842e+00 -7.161723174936208025e+00 -2.278760483418897209e+01 3.121162154484298235e+00 -9.184018200630427842e+00 3.121162154484298235e+00 -1.269012919570009856e+01
-2.207413215309245302e+01 -7.157397072594221754e+00 -9.089011051772310168e+00 -7.157397072594221754e+00 -2.280034177069799739e+01 2.925707736655608571e+00 -9.089011051772310168e+00 2.925707736655608571e+00 -1.271939072913773572e+01
-2.201687163969037542e+01 -7.148039323322287864e+00 -8.980505720928682933e+00 -7.148039323322287864e+00 -2.278949866439876715e+01 2.723532078278425583e+00 -8.980505720928682933e+00 2.723532078278425583e+00 -1.269332271330877404e+01
-2.193764640924722542e+01 -7.133649927120403689e+00 -8.858242270619770764e+00 -7.133649927120403689e+00 -2.275624523395028476e+01 2.514430942761497700e+00 -8.858242270619770764e+00 2.514430942761497700e+00 -1.261368900968312090e+01
-2.183796038575314213e+01 -7.114191750062888175e+00 -8.721663691960337417e+00 -7.114191750062888175e+00 -2.270171406408585568e+01 2.298051557810842915e+00 -8.721663691960337417e+00 2.298051557810842915e+00 -1.248256911809898462e+01
-2.171959599764086946e+01 -7.089553390372693720e+00 -8.570083007325264290e+00 -7.089553390372693720e+00 -2.262748334664697225e+01 2.073948316318272589e+00 -8.570083007325264290e+00 2.073948316318272589e+00 -1.230248814550276037e+01
-2.299728652375262428e+01 6.642094739017461613e+00 1.618468230250606865e+01 6.642094739017461613e+00 -2.552289398216533556e+01 7.887955922390138541e-01 1.618468230250606865e+01 7.887955922390138541e-01 -2.486190106881292650e+01
-2.305120736736008880e+01 6.598546882655105250e+00 1.622365109242689130e+01 6.598546882655105250e+00 -2.555603147114836560e+01 8.854606193231806532e-01 1.622365109242689130e+01 8.854606193231806532e-01 -2.500172146085017744e+01
-2.306881341057611579e+01 6.548345362402190339e+00 1.623720139108041494e+01 6.548345362402190339e+00 -2.555012540994214021e+01 9.778830011737615902e-01 1.623720139108041494e+01 9.778830011737615902e-01 -2.504472730526639523e+01
-2.304909538977684846e+01 6.491807909399559762e+00 1.622548271900350514e+01 6.491807909399559762e+00 -2.550418522498991791e+01 1.066137498059190225e+00 1.622548271900350514e+01 1.066137498059190225e+00 -2.499164751467879952e+01
-2.299267007717687150e+01 6.429308324989380097e+00 1.618842031592773267e+01 6.429308324989380097e+00 -2.541890244877471261e+01 1.150411010650548960e+00 1.618842031592773267e+01 1.150411010650548960e+00 -2.484364087324811265e+01
-2.290047197613159113e+01 6.361183030379597980e+00 1.612601418185309043e+01 6.361183030379597980e+00 -2.529528634492036332e+01 1.230759609149163492e+00 1.612601418185309043e+01 1.230759609149163492e+00 -2.460205306580612827e+01
-2.277394022180834554e+01 6.287824516979490852e+00 1.603820824657826449e+01 6.287824516979490852e+00 -2.513464521812446506e+01 1.307276743890574799e+00 1.603820824657826449e+01 1.307276743890574799e+00 -2.426950070174801155e+01
-2.261421490830074887e+01 6.209681346399657187e+00 1.592487167963348682e+01 6.209681346399657187e+00 -2.493826868301747268e+01 1.380149315545865951e+00 1.592487167963348682e+01 1.380149315545865951e+00 -2.384790885798591731e+01
-2.242280993104457210e+01 6.127015179579612614e+00 1.578583627041478543e+01 6.127015179579612614e+00 -2.470752111449830934e+01 1.449433394316362422e+00 1.578583627041478543e+01 1.449433394316362422e+00 -2.333972593331103340e+01
-2.220095883446895968e+01 6.040293268197064691e+00 1.562085904804975378e+01 6.040293268197064691e+00 -2.444372950733165339e+01 1.515353261007363006e+00 1.562085904804975378e+01 1.515353261007363006e+00 -2.274652189336045893e+01
4.365105684571227856e-02 -1.089227059076088011e+01 -2.775500416338293697e+00 -1.089227059076088011e+01 2.217748948698354639e+01 6.895375244936193804e-01 -2.775500416338293697e+00 6.895375244936193804e-01 3.437051895069846807e+01
-7.980791271954067179e-02 -1.078509641335491054e+01 -2.635916483544437749e+00 -1.078509641335491054e+01 2.228960060247052155e+01 4.586735135114144435e-01 -2.635916483544437749e+00 4.586735135114144435e-01 3.432802221390766562e+01
-2.259625904413519182e-01 -1.066650334679035872e+01 -2.492532173954412844e+00 -1.066650334679035872e+01 2.234220207943431191e+01 2.189833938016591264e-01 -2.492532173954412844e+00 2.189833938016591264e-01 3.416861949370949958e+01
-3.945288359985125726e-01 -1.053780554005281722e+01 -2.345294211257992867e+00 -1.053780554005281722e+01 2.233415735659008661e+01 -2.866265490194451829e-02 -2.345294211257992867e+00 -2.866265490194451829e-02 3.389170699192137448e+01
-5.850449213690582795e-01 -1.040015731319719627e+01 -2.194326906845706304e+00 -1.040015731319719627e+01 2.226470280682459446e+01 -2.827551371429743443e-01 -2.194326906845706304e+00 -2.827551371429743443e-01 3.349767540148498313e+01
-7.974398114726868325e-01 -1.025494385028938993e+01 -2.039719054567931344e+00 -1.025494385028938993e+01 2.213302152671436218e+01 -5.418733513153860537e-01 -2.039719054567931344e+00 -5.418733513153860537e-01 3.298705748550257510e+01
-1.032104199251060228e+00 -1.010360361170551613e+01 -1.881506171964818730e+00 -1.010360361170551613e+01 2.193840316545636071e+01 -8.045255607328328784e-01 -1.881506171964818730e+00 -8.045255607328328784e-01 3.236017290183550443e+01
-1.289322225025387736e+00 -9.947663851672075452e+00 -1.719723776576519869e+00 -9.947663851672075452e+00 2.168052806518923603e+01 -1.069237787479044188e+00 -1.719723776576519869e+00 -1.069237787479044188e+00 3.161794510652772061e+01
-1.569946309759295611e+00 -9.788669583185637180e+00 -1.554407385943185504e+00 -9.788669583185637180e+00 2.135916536190201143e+01 -1.334713641338504342e+00 -1.554407385943185504e+00 -1.334713641338504342e+00 3.076097789776177649e+01
-1.874633527945579026e+00 -9.628130301702627847e+00 -1.385521482524664894e+00 -9.628130301702627847e+00 2.097449264329542729e+01 -1.599710008405924366e+00 -1.385521482524664894e+00 -1.599710008405924366e+00 2.979053214821304252e+01
3.939628095046373346e+01 4.994760904415565861e+00 -1.716009353862742870e+01 4.994760904415565861e+00 5.857300800716992484e+01 6.785180690114612112e+00 -1.716009353862742870e+01 6.785180690114612112e+00 5.055404927530545933e+01
3.922651804440586432e+01 5.079086570756992103e+00 -1.727044712307302277e+01 5.079086570756992103e+00 5.829102749362220948e+01 6.745095644098732635e+00 -1.727044712307302277e+01 6.745095644098732635e+00 4.998518022423111518e+01
3.899401109661068432e+01 5.156742796848336141e+00 -1.733849251475270847e+01 5.156742796848336141e+00 5.792126688570610327e+01 6.680778298507553004e+00 -1.733849251475270847e+01 6.680778298507553004e+00 4.921684360629277677e+01
3.869651985919932002e+01 5.226942930762665362e+00 -1.736433232043956565e+01 5.226942930762665362e+00 5.746300793601005807e+01 6.593049507525699404e+00 -1.736433232043956565e+01 6.593049507525699404e+00 4.824880000568658289e+01
3.833599386086024907e+01 5.288883219444199923e+00 -1.734846247287013909e+01 5.288883219444199923e+00 5.692119287077066758e+01 6.482678821951258996e+00 -1.734846247287013909e+01 6.482678821951258996e+00 4.708262272626640765e+01
3.791219368578962445e+01 5.341828314352546236e+00 -1.729064355624058180e+01 5.341828314352546236e+00 5.629754890400142386e+01 6.350623904999626923e+00 -1.729064355624058180e+01 6.350623904999626923e+00 4.572600727601309956e+01
3.742872767217404117e+01 5.385196777106928678e+00 -1.719116628974127181e+01 5.385196777106928678e+00 5.559823244208701709e+01 6.198047633432357095e+00 -1.719116628974127181e+01 6.198047633432357095e+00 4.418873550062679811e+01
3.688631406742502605e+01 5.418509776099647901e+00 -1.705045820159338277e+01 5.418509776099647901e+00 5.482692022772940277e+01 6.026266794170618724e+00 -1.705045820159338277e+01 6.026266794170618724e+00 4.247916985211336538e+01
3.628729572619455013e+01 5.441562097784547802e+00 -1.686930594372383396e+01 5.441562097784547802e+00 5.398908462215943871e+01 5.836786286552893444e+00 -1.686930594372383396e+01 5.836786286552893444e+00 4.060698956939985038e+01
3.563411810990763229e+01 5.454268236517397561e+00 -1.664882108950764916e+01 5.454268236517397561e+00 5.309055711031371771e+01 5.631145212175352022e+00 -1.664882108950764916e+01 5.631145212175352022e+00 3.858474688105947337e+01
5.854018063553584561e+00 4.181952854703007816e+00 -1.106469075097512800e+01 4.181952854703007816e+00 -5.431653733718071919e+00 -6.478452683371611620e+00 -1.106469075097512800e+01 -6.478452683371611620e+00 3.622331869096961920e-01
5.878786453754536900e+00 4.180199180360312461e+00 -1.098165336689266702e+01 4.180199180360312461e+00 -5.433570120113182078e+00 -6.411722662764519853e+00 -1.098165336689266702e+01 -6.411722662764519853e+00 3.875801088525686611e-01
5.910678016027880233e+00 4.173473748860491384e+00 -1.087131651623835005e+01 4.173473748860491384e+00 -5.417461626924095164e+00 -6.337182463641507724e+00 -1.087131651623835005e+01 -6.337182463641507724e+00 4.271733749402226166e-01
5.948897269228473839e+00 4.161722322852740241e+00 -1.073407793958475231e+01 4.161722322852740241e+00 -5.383798311191122288e+00 -6.254777848651769112e+00 -1.073407793958475231e+01 -6.254777848651769112e+00 4.789519658420677839e-01
5.992486020158763083e+00 4.144872585869318726e+00 -1.057033537750444019e+01 4.144872585869318726e+00 -5.333538366111817197e+00 -6.164328026625955026e+00 -1.057033537750444019e+01 -6.164328026625955026e+00 5.417045807234590615e-01
6.040070255931688337e+00 4.123033012611836412e+00 -1.038077583644094659e+01 4.123033012611836412e+00 -5.267965408988565912e+00 -6.065796839330195311e+00 -1.038077583644094659e+01 -6.065796839330195311e+00 6.131894090844562939e-01
6.090059014256968162e+00 4.096330156898838837e+00 -1.016606824372086493e+01 4.096330156898838837e+00 -5.188670402111648094e+00 -5.958768467074984088e+00 -1.016606824372086493e+01 -5.958768467074984088e+00 6.912550360097939883e-01
6.140517829622557322e+00 4.064944809899675882e+00 -9.927044238723206959e+00 4.064944809899675882e+00 -5.097660127460849289e+00 -5.843062118690973250e+00 -9.927044238723206959e+00 -5.843062118690973250e+00 7.730268819068071284e-01
6.189638790334957008e+00 4.029130079251437735e+00 -9.664553539943915084e+00 4.029130079251437735e+00 -4.996977525249823415e+00 -5.718261974488656030e+00 -9.664553539943915084e+00 -5.718261974488656030e+00 8.557569210013753480e-01
6.235324718829707180e+00 3.989229468175888194e+00 -9.379301232943456412e+00 3.989229468175888194e+00 -4.888810168627707675e+00 -5.583934135661592357e+00 -9.379301232943456412e+00 -5.583934135661592357e+00 9.363717034145484508e-01
-2.695290406106267245e+00 -3.523439151233041855e+00 -7.385677176161700608e+00 -3.523439151233041855e+00 -6.278513313056406808e+00 -1.390781930017600843e+01 -7.385677176161700608e+00 -1.390781930017600843e+01 -4.472101468444434680e+00
-2.673057980821333057e+00 -3.530771121273817759e+00 -7.313649212411246658e+00 -3.530771121273817759e+00 -6.202846654496634748e+00 -1.394426082869133054e+01 -7.313649212411246658e+00 -1.394426082869133054e+01 -4.350314353176555571e+00
-2.632286405482922476e+00 -3.534282461764810090e+00 -7.231323742350423522e+00 -3.534282461764810090e+00 -6.104510927274810150e+00 -1.396058037491112103e+01 -7.231323742350423522e+00 -1.396058037491112103e+01 -4.190139007670368620e+00
-2.573667032104806296e+00 -3.534064140076250915e+00 -7.138755346401367774e+00 -3.534064140076250915e+00 -5.984615933307775748e+00 -1.395659600409491929e+01 -7.138755346401367774e+00 -1.395659600409491929e+01 -3.994704709461887493e+00
-2.497982180070987823e+00 -3.530170736630280359e+00 -7.035962218038129379e+00 -3.530170736630280359e+00 -5.844489796200933007e+00 -1.393199842718392567e+01 -7.035962218038129379e+00 -1.393199842718392567e+01 -3.766303836280984640e+00
-2.406650940357101476e+00 -3.522711412271178233e+00 -6.922926163786659259e+00 -3.522711412271178233e+00 -5.686097411151311398e+00 -1.388638738774912440e+01 -6.922926163786659259e+00 -1.388638738774912440e+01 -3.508156633033905347e+00
-2.301747369004457422e+00 -3.511813521317270315e+00 -6.799374281536260334e+00 -3.511813521317270315e+00 -5.512149605791854867e+00 -1.381936262936148374e+01 -6.799374281536260334e+00 -1.381936262936148374e+01 -3.224938822550623918e+00
-2.184817911307017191e+00 -3.497695385457115780e+00 -6.664942701805999015e+00 -3.497695385457115780e+00 -5.324793210060060566e+00 -1.373034196085151315e+01 -6.664942701805999015e+00 -1.373034196085151315e+01 -2.919524973730501127e+00
-2.057973010254185109e+00 -3.480557132905226503e+00 -6.519067426900432949e+00 -3.480557132905226503e+00 -5.126720858114825141e+00 -1.361859764325735078e+01 -6.519067426900432949e+00 -1.361859764325735078e+01 -2.596481648559231470e+00
-1.923395882731551820e+00 -3.460598891876116578e+00 -6.361093491753883278e+00 -3.460598891876116578e+00 -4.920825312329554890e+00 -1.348332916372094736e+01 -6.361093491753883278e+00 -1.348332916372094736e+01 -2.259720443956832803e+00
-2.448769012234779652e+01 -3.441026188766093674e-01 6.763380947016992550e+00 -3.441026188766093674e-01 -2.169802091289164991e+01 -1.121990506182398839e+01 6.763380947016992550e+00 -1.121990506182398839e+01 -4.953066457434831094e+00
-2.439274926713418878e+01 -3.617845878073441823e-01 6.899938440542920048e+00 -3.617845878073441823e-01 -2.164670052877579209e+01 -1.105423633088743962e+01 6.899938440542920048e+00 -1.105423633088743962e+01 -4.758731785262200198e+00
-2.427726912586987140e+01 -3.788728285053576395e-01 7.023044278796252371e+00 -3.788728285053576395e-01 -2.157697456944556791e+01 -1.086995793065652727e+01 7.023044278796252371e+00 -1.086995793065652727e+01 -4.526379952188125166e+00
-2.414195475083120712e+01 -3.951632468906516871e-01 7.132475813689719502e+00 -3.951632468906516871e-01 -2.148915845302461847e+01 -1.066712552315307150e+01 7.132475813689719502e+00 -1.066712552315307150e+01 -4.259165139448940707e+00
-2.398764107234545051e+01 -4.105259649123184640e-01 7.228121721179685544e+00 -4.105259649123184640e-01 -2.138380879973110993e+01 -1.044588754043525292e+01 7.228121721179685544e+00 -1.044588754043525292e+01 -3.957829507335546282e+00
-2.381607216709623742e+01 -4.248496585267227399e-01 7.309610921120700766e+00 -4.248496585267227399e-01 -2.126211306603049067e+01 -1.020654084661942740e+01 7.309610921120700766e+00 -1.020654084661942740e+01 -3.625304588997004807e+00
-2.362910343581080497e+01 -4.379673416684117249e-01 7.376720765425494264e+00 -4.379673416684117249e-01 -2.112564834254092716e+01 -9.949419413836507076e+00 7.376720765425494264e+00 -9.949419413836507076e+00 -3.264280715487834605e+00
-2.342873871127459395e+01 -4.497491362864774467e-01 7.429247160014067930e+00 -4.497491362864774467e-01 -2.097597316587330951e+01 -9.674801552195578580e+00 7.429247160014067930e+00 -9.674801552195578580e+00 -2.878041946095276860e+00
-2.321696327226577594e+01 -4.600651643300121552e-01 7.466948902791878062e+00 -4.600651643300121552e-01 -2.081470173466035334e+01 -9.382947017798453970e+00 7.466948902791878062e+00 -9.382947017798453970e+00 -2.469167287830215329e+00
-2.299609636969340443e+01 -4.688412097699257153e-01 7.489714669715290540e+00 -4.688412097699257153e-01 -2.064404197576748956e+01 -9.073948580681497234e+00 7.489714669715290540e+00 -9.073948580681497234e+00 -2.041330434132612393e+00
-2.159053726567124798e+01 -1.217687993414002356e+01 3.300966836534257265e+00 -1.217687993414002356e+01 -8.155213426316747061e+00 6.530858646375150123e+00 3.300966836534257265e+00 6.530858646375150123e+00 1.049015356593748116e+01
-2.127193644995992727e+01 -1.213744877728410287e+01 3.431646674218473692e+00 -1.213744877728410287e+01 -8.212985934479721806e+00 6.261491807648893015e+00 3.431646674218473692e+00 6.261491807648893015e+00 1.081985813678574004e+01
-2.095113687085515153e+01 -1.208748187916788375e+01 3.556737988277664186e+00 -1.208748187916788375e+01 -8.277024918314037194e+00 5.978895742505360822e+00 3.556737988277664186e+00 5.978895742505360822e+00 1.113019526674333548e+01
-2.063105188985324645e+01 -1.202719911613071879e+01 3.676112517513876465e+00 -1.202719911613071879e+01 -8.347202116621740942e+00 5.683656787849474590e+00 3.676112517513876465e+00 5.683656787849474590e+00 1.141847147065328727e+01
-2.031417343880013249e+01 -1.195698527176645598e+01 3.789422124389815405e+00 -1.195698527176645598e+01 -8.422986161582750597e+00 5.376452895727549475e+00 3.789422124389815405e+00 5.376452895727549475e+00 1.168290941477255451e+01
-2.000359810947490757e+01 -1.187726177572550945e+01 3.896318671368182773e+00 -1.187726177572550945e+01 -8.504468668338457604e+00 5.057907049101062924e+00 3.896318671368182773e+00 5.057907049101062924e+00 1.192112710542489573e+01
-1.970233087851530840e+01 -1.178857831885624385e+01 3.996472343939962091e+00 -1.178857831885624385e+01 -8.591777898086816023e+00 4.728440677620427302e+00 3.996472343939962091e+00 4.728440677620427302e+00 1.213090745618858080e+01
-1.941354162981354747e+01 -1.169142962292218435e+01 4.089425066398183262e+00 -1.169142962292218435e+01 -8.685225342308564578e+00 4.388273657624987223e+00 4.089425066398183262e+00 4.388273657624987223e+00 1.230992344247220238e+01
-1.914038192423358709e+01 -1.158647531694136745e+01 4.174938639375221250e+00 -1.158647531694136745e+01 -8.785562245163131223e+00 4.037534250312694972e+00 4.174938639375221250e+00 4.037534250312694972e+00 1.245535331792083156e+01
-1.888600332263936465e+01 -1.147430173781871154e+01 4.252536664135829980e+00 -1.147430173781871154e+01 -8.893393266583716539e+00 3.675984256315925069e+00 4.252536664135829980e+00 3.675984256315925069e+00 1.256454024343404541e+01
9.675878435163135505e-01 9.053224731397818914e+00 2.069746764247926052e+01 9.053224731397818914e+00 -1.736810808373692794e+01 2.757835513293220409e+00 2.069746764247926052e+01 2.757835513293220409e+00 1.486450160460528203e+01
1.106820635486278626e+00 9.054443837129912964e+00 2.064480955309595345e+01 9.054443837129912964e+00 -1.721386391521505388e+01 2.719897670734754858e+00 2.064480955309595345e+01 2.719897670734754858e+00 1.523065182321631106e+01
1.223581851648231744e+00 9.041342999411881465e+00 2.054053052398201018e+01 9.041342999411881465e+00 -1.705394271701536368e+01 2.668695229986782991e+00 2.054053052398201018e+01 2.668695229986782991e+00 1.555355108174989631e+01
1.316306669719185862e+00 9.013922218243724416e+00 2.038484890243273995e+01 9.013922218243724416e+00 -1.689009126750026368e+01 2.604137213009595886e+00 2.038484890243273995e+01 2.604137213009595886e+00 1.582921454206680423e+01
1.383466658632037660e+00 8.972199689233384845e+00 2.017816499182285739e+01 8.972199689233384845e+00 -1.672414732307186824e+01 2.526132641763485065e+00 2.017816499182285739e+01 2.526132641763485065e+00 1.605507662344725262e+01
1.423551582927625070e+00 8.916302781636451513e+00 1.992124300768591283e+01 8.916302781636451513e+00 -1.655813059621170780e+01 2.434681516248450528e+00 1.992124300768591283e+01 2.434681516248450528e+00 1.622886287489852108e+01
1.435033011538843883e+00 8.846468038356167796e+00 1.961486536116339607e+01 8.846468038356167796e+00 -1.639437012473631938e+01 2.329747445248608884e+00 1.961486536116339607e+01 2.329747445248608884e+00 1.634818967178025773e+01
1.416182361711232129e+00 8.763113958375194912e+00 1.926008739751593524e+01 8.763113958375194912e+00 -1.623563164105283718e+01 2.211475993627493697e+00 1.926008739751593524e+01 2.211475993627493697e+00 1.641049143337266969e+01
1.365471202377686488e+00 8.666659040676188752e+00 1.885780070153266763e+01 8.666659040676188752e+00 -1.608451711709693654e+01 2.079830770169222021e+00 1.885780070153266763e+01 2.079830770169222021e+00 1.641338453503540151e+01
1.281389298079044670e+00 8.557649153497404626e+00 1.840898783604244926e+01 8.557649153497404626e+00 -1.594393785013928699e+01 1.934939144129384836e+00 1.840898783604244926e+01 1.934939144129384836e+00 1.635444896091220457e+01