0.000000000000000000e+00 2.032270000000000021e+00 9.248979999999999535e+00 -1.760000000000000009e+00 5.080680000000000085e+00 9.248979999999999535e+00 -3.520000000000000018e+00 8.129089999999999705e+00 9.248979999999999535e+00 3.520000000000000018e+00 2.032270000000000021e+00 9.248979999999999535e+00 1.760000000000000009e+00 5.080680000000000085e+00 9.248979999999999535e+00 0.000000000000000000e+00 8.129089999999999705e+00 9.248979999999999535e+00 7.040000000000000036e+00 2.032270000000000021e+00 9.248979999999999535e+00 5.280000000000000249e+00 5.080680000000000085e+00 9.248979999999999535e+00 3.520000000000000018e+00 8.129089999999999705e+00 9.248979999999999535e+00 3.519999999999999796e-01 2.032270000000000021e+00 1.713053000000000026e+01 -1.407999999999999918e+00 5.080680000000000085e+00 1.713053000000000026e+01 -3.168000000000000149e+00 8.129089999999999705e+00 1.713053000000000026e+01 3.871999999999999886e+00 2.032270000000000021e+00 1.713053000000000026e+01 2.112000000000000099e+00 5.080680000000000085e+00 1.713053000000000026e+01 3.519999999999999796e-01 8.129089999999999705e+00 1.713053000000000026e+01 7.392000000000000348e+00 2.032270000000000021e+00 1.713053000000000026e+01 5.631999999999999673e+00 5.080680000000000085e+00 1.713053000000000026e+01 3.871999999999999886e+00 8.129089999999999705e+00 1.713053000000000026e+01 0.000000000000000000e+00 2.032270000000000021e+00 1.286947999999999936e+01 -1.760000000000000009e+00 5.080680000000000085e+00 1.286947999999999936e+01 -3.520000000000000018e+00 8.129089999999999705e+00 1.286947999999999936e+01 3.520000000000000018e+00 2.032270000000000021e+00 1.286947999999999936e+01 1.760000000000000009e+00 5.080680000000000085e+00 1.286947999999999936e+01 0.000000000000000000e+00 8.129089999999999705e+00 1.286947999999999936e+01 7.040000000000000036e+00 2.032270000000000021e+00 1.286947999999999936e+01 5.280000000000000249e+00 5.080680000000000085e+00 1.286947999999999936e+01 3.520000000000000018e+00 8.129089999999999705e+00 1.286947999999999936e+01 3.519999999999999796e-01 2.032270000000000021e+00 2.075104999999999933e+01 -1.407999999999999918e+00 5.080680000000000085e+00 2.075104999999999933e+01 -3.168000000000000149e+00 8.129089999999999705e+00 2.075104999999999933e+01 3.871999999999999886e+00 2.032270000000000021e+00 2.075104999999999933e+01 2.112000000000000099e+00 5.080680000000000085e+00 2.075104999999999933e+01 3.519999999999999796e-01 8.129089999999999705e+00 2.075104999999999933e+01 7.392000000000000348e+00 2.032270000000000021e+00 2.075104999999999933e+01 5.631999999999999673e+00 5.080680000000000085e+00 2.075104999999999933e+01 3.871999999999999886e+00 8.129089999999999705e+00 2.075104999999999933e+01 0.000000000000000000e+00 0.000000000000000000e+00 1.105899999999999928e+01 -1.760000000000000009e+00 3.048410000000000064e+00 1.105899999999999928e+01 -3.520000000000000018e+00 6.096820000000000128e+00 1.105899999999999928e+01 3.520000000000000018e+00 0.000000000000000000e+00 1.105899999999999928e+01 1.760000000000000009e+00 3.048410000000000064e+00 1.105899999999999928e+01 0.000000000000000000e+00 6.096820000000000128e+00 1.105899999999999928e+01 7.040000000000000036e+00 0.000000000000000000e+00 1.105899999999999928e+01 5.280000000000000249e+00 3.048410000000000064e+00 1.105899999999999928e+01 3.520000000000000018e+00 6.096820000000000128e+00 1.105899999999999928e+01 3.519999999999999796e-01 0.000000000000000000e+00 1.894100999999999857e+01 -1.407999999999999918e+00 3.048410000000000064e+00 1.894100999999999857e+01 -3.168000000000000149e+00 6.096820000000000128e+00 1.894100999999999857e+01 3.871999999999999886e+00 0.000000000000000000e+00 1.894100999999999857e+01 2.112000000000000099e+00 3.048410000000000064e+00 1.894100999999999857e+01 3.519999999999999796e-01 6.096820000000000128e+00 1.894100999999999857e+01 7.392000000000000348e+00 0.000000000000000000e+00 1.894100999999999857e+01 5.631999999999999673e+00 3.048410000000000064e+00 1.894100999999999857e+01 3.871999999999999886e+00 6.096820000000000128e+00 1.894100999999999857e+01
-6.000000000000000152e-05 2.032869999999999955e+00 9.247960000000000846e+00 -1.762860000000000094e+00 5.079909999999999926e+00 9.253410000000000579e+00 -3.518959999999999866e+00 8.129739999999999966e+00 9.250450000000000728e+00 3.517230000000000079e+00 2.033170000000000144e+00 9.245779999999999887e+00 1.761100000000000110e+00 5.079699999999999882e+00 9.244300000000000850e+00 2.639999999999999986e-03 8.130610000000000781e+00 9.248340000000000671e+00 7.037289999999999601e+00 2.030809999999999782e+00 9.248939999999999273e+00 5.281209999999999738e+00 5.082869999999999777e+00 9.245749999999999247e+00 3.518289999999999917e+00 8.130720000000000169e+00 9.248950000000000671e+00 3.516599999999999726e-01 2.030959999999999877e+00 1.712954999999999828e+01 -1.406570000000000098e+00 5.081310000000000215e+00 1.713119999999999976e+01 -3.168000000000000149e+00 8.127399999999999736e+00 1.713075999999999866e+01 3.868119999999999781e+00 2.032119999999999926e+00 1.712966000000000122e+01 2.113529999999999909e+00 5.082959999999999923e+00 1.713313000000000130e+01 3.503700000000000148e-01 8.130000000000000782e+00 1.712997999999999976e+01 7.390789999999999971e+00 2.029879999999999907e+00 1.713206999999999880e+01 5.631709999999999994e+00 5.077749999999999986e+00 1.713081999999999994e+01 3.871170000000000222e+00 8.129960000000000520e+00 1.712875000000000014e+01 -2.200000000000000078e-04 2.031429999999999847e+00 1.286969000000000030e+01 -1.760089999999999932e+00 5.079749999999999766e+00 1.287039000000000044e+01 -3.517380000000000173e+00 8.127819999999999823e+00 1.286907000000000068e+01 3.519460000000000033e+00 2.030440000000000023e+00 1.287185999999999986e+01 1.758410000000000029e+00 5.082639999999999603e+00 1.286856000000000044e+01 7.200000000000000453e-04 8.128709999999999880e+00 1.286998999999999960e+01 7.040090000000000181e+00 2.030580000000000052e+00 1.287063999999999986e+01 5.280640000000000001e+00 5.079839999999999911e+00 1.286922000000000033e+01 3.519660000000000011e+00 8.127110000000000056e+00 1.287046999999999919e+01 3.525400000000000200e-01 2.031379999999999963e+00 2.075527999999999906e+01 -1.407729999999999926e+00 5.079299999999999926e+00 2.075150999999999968e+01 -3.167679999999999829e+00 8.126799999999999358e+00 2.075197000000000003e+01 3.870969999999999800e+00 2.032140000000000057e+00 2.074796999999999869e+01 2.113809999999999967e+00 5.080599999999999561e+00 2.075144999999999840e+01 3.520800000000000041e-01 8.129360000000000142e+00 2.074832999999999927e+01 7.392430000000000057e+00 2.032799999999999940e+00 2.074847000000000108e+01 5.633600000000000385e+00 5.080930000000000391e+00 2.075218999999999880e+01 3.871840000000000170e+00 8.129960000000000520e+00 2.075093999999999994e+01 2.880000000000000181e-03 1.860000000000000108e-03 1.105444999999999922e+01 -1.757919999999999927e+00 3.049549999999999983e+00 1.105724000000000018e+01 -3.517520000000000202e+00 6.099009999999999820e+00 1.105916999999999994e+01 3.519309999999999938e+00 5.999999999999999474e-04 1.106047000000000047e+01 1.760590000000000099e+00 3.049220000000000041e+00 1.105669999999999931e+01 1.100000000000000039e-04 6.097039999999999793e+00 1.105666000000000082e+01 1.758559999999999901e+00 9.143060000000000187e+00 1.105813000000000024e+01 5.283009999999999984e+00 3.046349999999999891e+00 1.106081000000000003e+01 3.520189999999999930e+00 6.096930000000000405e+00 1.106037000000000070e+01 3.532899999999999929e-01 4.899999999999999842e-04 1.894274000000000058e+01 -1.408390000000000031e+00 3.048799999999999955e+00 1.893999000000000166e+01 -3.170980000000000132e+00 6.096799999999999997e+00 1.894070999999999927e+01 3.873990000000000045e+00 2.799999999999999972e-03 1.894297999999999860e+01 2.109389999999999876e+00 3.052919999999999856e+00 1.894422000000000139e+01 3.514200000000000101e-01 6.097459999999999880e+00 1.894283000000000072e+01 7.390859999999999985e+00 4.800000000000000122e-04 1.894220999999999933e+01 5.631990000000000052e+00 3.047989999999999977e+00 1.894151000000000096e+01 3.872829999999999995e+00 6.098830000000000418e+00 1.894222999999999857e+01
-1.299999999999999886e-04 2.033469999999999889e+00 9.246930000000000760e+00 -1.765709999999999891e+00 5.079130000000000145e+00 9.257809999999999206e+00 -3.517920000000000158e+00 8.130399999999999849e+00 9.251899999999999125e+00 3.514460000000000139e+00 2.034060000000000201e+00 9.242580000000000240e+00 1.762199999999999989e+00 5.078719999999999679e+00 9.239620000000000388e+00 5.270000000000000379e-03 8.132130000000000081e+00 9.247700000000000031e+00 7.034580000000000055e+00 2.029339999999999922e+00 9.248900000000000787e+00 5.282420000000000115e+00 5.085040000000000227e+00 9.242539999999999978e+00 3.516579999999999817e+00 8.132350000000000634e+00 9.248920000000000030e+00 3.513200000000000212e-01 2.029640000000000111e+00 1.712856999999999985e+01 -1.405140000000000056e+00 5.081929999999999836e+00 1.713186999999999927e+01 -3.167990000000000084e+00 8.125719999999999388e+00 1.713099000000000061e+01 3.864250000000000185e+00 2.031979999999999897e+00 1.712879999999999825e+01 2.115060000000000162e+00 5.085230000000000139e+00 1.713571999999999917e+01 3.487500000000000044e-01 8.130919999999999703e+00 1.712943999999999889e+01 7.389590000000000103e+00 2.027499999999999858e+00 1.713360000000000127e+01 5.631420000000000314e+00 5.074819999999999887e+00 1.713110999999999962e+01 3.870340000000000114e+00 8.130829999999999558e+00 1.712698999999999927e+01 -4.400000000000000157e-04 2.030590000000000117e+00 1.286989999999999945e+01 -1.760180000000000078e+00 5.078820000000000334e+00 1.287129999999999974e+01 -3.514769999999999950e+00 8.126549999999999940e+00 1.286866000000000021e+01 3.518930000000000113e+00 2.028620000000000090e+00 1.287424000000000035e+01 1.756820000000000048e+00 5.084590000000000387e+00 1.286764999999999937e+01 1.420000000000000038e-03 8.128320000000000434e+00 1.287050999999999945e+01 7.040189999999999948e+00 2.028890000000000082e+00 1.287180999999999997e+01 5.281270000000000131e+00 5.079010000000000247e+00 1.286895999999999951e+01 3.519320000000000004e+00 8.125140000000000029e+00 1.287146000000000079e+01 3.530800000000000050e-01 2.030489999999999906e+00 2.075950999999999880e+01 -1.407450000000000090e+00 5.077910000000000146e+00 2.075197000000000003e+01 -3.167370000000000019e+00 8.124510000000000787e+00 2.075290000000000035e+01 3.869940000000000158e+00 2.032020000000000159e+00 2.074491000000000085e+01 2.115610000000000213e+00 5.080530000000000435e+00 2.075187000000000026e+01 3.521500000000000186e-01 8.129630000000000578e+00 2.074562999999999846e+01 7.392850000000000144e+00 2.033329999999999860e+00 2.074592000000000169e+01 5.635189999999999699e+00 5.081179999999999808e+00 2.075334000000000145e+01 3.871680000000000010e+00 8.130839999999999179e+00 2.075084000000000017e+01 5.740000000000000310e-03 3.710000000000000190e-03 1.104993999999999943e+01 -1.755859999999999976e+00 3.050660000000000149e+00 1.105550000000000033e+01 -3.515060000000000073e+00 6.101180000000000270e+00 1.105934000000000061e+01 3.518639999999999990e+00 1.199999999999999895e-03 1.106193999999999988e+01 1.761179999999999968e+00 3.050030000000000019e+00 1.105442000000000036e+01 2.200000000000000078e-04 6.097260000000000346e+00 1.105433000000000021e+01 1.757139999999999924e+00 9.140909999999999869e+00 1.105727000000000082e+01 5.285989999999999966e+00 3.044309999999999850e+00 1.106260999999999939e+01 3.520370000000000221e+00 6.097039999999999793e+00 1.106170999999999971e+01 3.545699999999999963e-01 9.799999999999999684e-04 1.894446999999999903e+01 -1.408760000000000012e+00 3.049170000000000158e+00 1.893897000000000119e+01 -3.173939999999999984e+00 6.096779999999999866e+00 1.894040999999999997e+01 3.875950000000000006e+00 5.579999999999999891e-03 1.894492999999999938e+01 2.106790000000000163e+00 3.057409999999999961e+00 1.894739999999999824e+01 3.508399999999999852e-01 6.098110000000000142e+00 1.894463000000000008e+01 7.389730000000000132e+00 9.600000000000000243e-04 1.894338000000000122e+01 5.631980000000000430e+00 3.047579999999999956e+00 1.894200000000000017e+01 3.873660000000000103e+00 6.100830000000000197e+00 1.894343999999999895e+01
-1.900000000000000105e-04 2.034069999999999823e+00 9.245879999999999654e+00 -1.768550000000000066e+00 5.078369999999999607e+00 9.262169999999999348e+00 -3.516859999999999875e+00 8.131050000000000111e+00 9.253330000000000055e+00 3.511730000000000018e+00 2.034949999999999815e+00 9.239399999999999835e+00 1.763300000000000090e+00 5.077749999999999986e+00 9.234970000000000567e+00 7.879999999999999852e-03 8.133639999999999759e+00 9.247049999999999770e+00 7.031889999999999752e+00 2.027890000000000192e+00 9.248860000000000525e+00 5.283619999999999983e+00 5.087209999999999788e+00 9.239349999999999952e+00 3.514889999999999848e+00 8.133960000000000079e+00 9.248879999999999768e+00 3.509900000000000242e-01 2.028340000000000032e+00 1.712761000000000067e+01 -1.403710000000000013e+00 5.082559999999999967e+00 1.713252999999999915e+01 -3.167969999999999953e+00 8.124050000000000438e+00 1.713121999999999900e+01 3.860390000000000210e+00 2.031849999999999934e+00 1.712794999999999845e+01 2.116579999999999906e+00 5.087509999999999977e+00 1.713829000000000136e+01 3.471299999999999941e-01 8.131819999999999382e+00 1.712888999999999839e+01 7.388390000000000235e+00 2.025119999999999809e+00 1.713512000000000057e+01 5.631129999999999747e+00 5.071909999999999918e+00 1.713139999999999930e+01 3.869520000000000071e+00 8.131700000000000372e+00 1.712522999999999840e+01 -6.499999999999999702e-04 2.029749999999999943e+00 1.287008999999999936e+01 -1.760259999999999936e+00 5.077890000000000015e+00 1.287219999999999942e+01 -3.512179999999999858e+00 8.125289999999999679e+00 1.286827000000000076e+01 3.518390000000000128e+00 2.026819999999999844e+00 1.287659999999999982e+01 1.755230000000000068e+00 5.086520000000000152e+00 1.286674000000000007e+01 2.119999999999999923e-03 8.127929999999999211e+00 1.287102999999999930e+01 7.040300000000000225e+00 2.027200000000000113e+00 1.287296000000000085e+01 5.281909999999999883e+00 5.078170000000000073e+00 1.286870000000000047e+01 3.518990000000000062e+00 8.123189999999999245e+00 1.287243999999999922e+01 3.536099999999999799e-01 2.029609999999999914e+00 2.076371999999999929e+01 -1.407189999999999941e+00 5.076539999999999608e+00 2.075244000000000000e+01 -3.167040000000000077e+00 8.122239999999999682e+00 2.075382000000000104e+01 3.868910000000000071e+00 2.031899999999999817e+00 2.074187999999999832e+01 2.117399999999999949e+00 5.080479999999999663e+00 2.075231000000000137e+01 3.522299999999999875e-01 8.129889999999999617e+00 2.074296999999999969e+01 7.393279999999999852e+00 2.033859999999999779e+00 2.074337999999999838e+01 5.636759999999999771e+00 5.081430000000000113e+00 2.075449000000000055e+01 3.871529999999999916e+00 8.131719999999999615e+00 2.075075000000000003e+01 8.550000000000000308e-03 5.530000000000000193e-03 1.104551999999999978e+01 -1.753840000000000066e+00 3.051740000000000119e+00 1.105380000000000074e+01 -3.512649999999999828e+00 6.103340000000000209e+00 1.105953000000000053e+01 3.517990000000000173e+00 1.799999999999999951e-03 1.106337000000000081e+01 1.761770000000000058e+00 3.050850000000000062e+00 1.105217999999999989e+01 3.299999999999999982e-04 6.097480000000000011e+00 1.105203000000000024e+01 1.755730000000000013e+00 9.138780000000000570e+00 1.105644999999999989e+01 5.288909999999999556e+00 3.042289999999999939e+00 1.106437999999999988e+01 3.520550000000000068e+00 6.097139999999999560e+00 1.106301999999999985e+01 3.558399999999999896e-01 1.469999999999999953e-03 1.894616999999999862e+01 -1.409119999999999928e+00 3.049529999999999852e+00 1.893796000000000035e+01 -3.176860000000000017e+00 6.096739999999999604e+00 1.894012000000000029e+01 3.877870000000000150e+00 8.319999999999999271e-03 1.894684000000000168e+01 2.104190000000000005e+00 3.061840000000000117e+00 1.895053000000000054e+01 3.502799999999999803e-01 6.098760000000000403e+00 1.894641000000000020e+01 7.388609999999999900e+00 1.410000000000000012e-03 1.894453000000000031e+01 5.631949999999999790e+00 3.047169999999999934e+00 1.894247999999999976e+01 3.874499999999999833e+00 6.102820000000000356e+00 1.894463000000000008e+01
-2.400000000000000061e-04 2.034689999999999888e+00 9.244809999999999306e+00 -1.771360000000000046e+00 5.077619999999999578e+00 9.266460000000000363e+00 -3.515800000000000036e+00 8.131700000000000372e+00 9.254709999999999326e+00 3.509020000000000028e+00 2.035829999999999806e+00 9.236259999999999692e+00 1.764399999999999968e+00 5.076800000000000423e+00 9.230339999999999989e+00 1.044999999999999922e-02 8.135139999999999816e+00 9.246389999999999887e+00 7.029230000000000089e+00 2.026429999999999954e+00 9.248810000000000642e+00 5.284830000000000361e+00 5.089349999999999596e+00 9.236219999999999430e+00 3.513209999999999944e+00 8.135559999999999903e+00 9.248839999999999506e+00 3.506699999999999817e-01 2.027050000000000018e+00 1.712666000000000111e+01 -1.402300000000000102e+00 5.083190000000000097e+00 1.713318999999999903e+01 -3.167949999999999822e+00 8.122400000000000730e+00 1.713147000000000020e+01 3.856529999999999792e+00 2.031750000000000167e+00 1.712713000000000108e+01 2.118090000000000028e+00 5.089789999999999814e+00 1.714085999999999999e+01 3.455300000000000038e-01 8.132730000000000459e+00 1.712836000000000070e+01 7.387190000000000367e+00 2.022769999999999957e+00 1.713662000000000063e+01 5.630829999999999558e+00 5.069009999999999572e+00 1.713167999999999935e+01 3.868720000000000159e+00 8.132580000000000808e+00 1.712350999999999956e+01 -8.499999999999999526e-04 2.028919999999999835e+00 1.287026000000000003e+01 -1.760329999999999950e+00 5.076970000000000205e+00 1.287310000000000088e+01 -3.509619999999999962e+00 8.124050000000000438e+00 1.286787999999999954e+01 3.517850000000000144e+00 2.025040000000000173e+00 1.287894000000000005e+01 1.753649999999999931e+00 5.088440000000000296e+00 1.286581999999999937e+01 2.809999999999999998e-03 8.127530000000000143e+00 1.287153999999999954e+01 7.040429999999999744e+00 2.025510000000000144e+00 1.287410000000000032e+01 5.282549999999999635e+00 5.077340000000000408e+00 1.286843999999999966e+01 3.518689999999999873e+00 8.121259999999999479e+00 1.287337999999999916e+01 3.541300000000000003e-01 2.028739999999999988e+00 2.076791000000000054e+01 -1.406949999999999923e+00 5.075169999999999959e+00 2.075290000000000035e+01 -3.166710000000000136e+00 8.119979999999999976e+00 2.075475000000000136e+01 3.867879999999999985e+00 2.031810000000000116e+00 2.073890000000000100e+01 2.119190000000000129e+00 5.080460000000000420e+00 2.075277000000000172e+01 3.523000000000000020e-01 8.130160000000000053e+00 2.074035999999999902e+01 7.393709999999999560e+00 2.034390000000000143e+00 2.074088000000000065e+01 5.638329999999999842e+00 5.081660000000000288e+00 2.075563999999999965e+01 3.871370000000000200e+00 8.132600000000000051e+00 2.075067999999999913e+01 1.132000000000000020e-02 7.320000000000000118e-03 1.104119999999999990e+01 -1.751870000000000038e+00 3.052750000000000075e+00 1.105217000000000027e+01 -3.510289999999999910e+00 6.105459999999999887e+00 1.105973999999999968e+01 3.517380000000000173e+00 2.409999999999999816e-03 1.106475999999999971e+01 1.762340000000000018e+00 3.051660000000000039e+00 1.104997999999999969e+01 4.499999999999999877e-04 6.097699999999999676e+00 1.104973999999999990e+01 1.754359999999999919e+00 9.136689999999999756e+00 1.105566999999999922e+01 5.291739999999999888e+00 3.040299999999999780e+00 1.106607999999999947e+01 3.520729999999999915e+00 6.097220000000000084e+00 1.106424999999999947e+01 3.570900000000000185e-01 1.959999999999999937e-03 1.894783999999999935e+01 -1.409440000000000026e+00 3.049859999999999793e+00 1.893697999999999837e+01 -3.179710000000000036e+00 6.096669999999999590e+00 1.893983000000000061e+01 3.879719999999999835e+00 1.098999999999999977e-02 1.894867999999999952e+01 2.101599999999999913e+00 3.066190000000000193e+00 1.895358999999999838e+01 3.497299999999999853e-01 6.099409999999999776e+00 1.894816000000000145e+01 7.387520000000000309e+00 1.850000000000000082e-03 1.894563000000000130e+01 5.631890000000000285e+00 3.046769999999999978e+00 1.894293000000000049e+01 3.875360000000000138e+00 6.104779999999999873e+00 1.894581000000000159e+01
-2.900000000000000017e-04 2.035320000000000018e+00 9.243710000000000093e+00 -1.774140000000000050e+00 5.076889999999999681e+00 9.270680000000000476e+00 -3.514720000000000066e+00 8.132350000000000634e+00 9.256050000000000111e+00 3.506369999999999987e+00 2.036709999999999798e+00 9.233169999999999433e+00 1.765500000000000069e+00 5.075870000000000104e+00 9.225749999999999673e+00 1.297000000000000063e-02 8.136630000000000251e+00 9.245720000000000383e+00 7.026600000000000179e+00 2.024989999999999846e+00 9.248770000000000380e+00 5.286030000000000229e+00 5.091479999999999784e+00 9.233150000000000190e+00 3.511559999999999793e+00 8.137130000000000862e+00 9.248799999999999244e+00 3.503600000000000048e-01 2.025780000000000136e+00 1.712575000000000003e+01 -1.400910000000000100e+00 5.083820000000000228e+00 1.713384999999999891e+01 -3.167920000000000069e+00 8.120779999999999887e+00 1.713173000000000101e+01 3.852689999999999948e+00 2.031660000000000021e+00 1.712632999999999939e+01 2.119590000000000085e+00 5.092069999999999652e+00 1.714340999999999937e+01 3.439300000000000135e-01 8.133630000000000138e+00 1.712783999999999907e+01 7.386009999999999742e+00 2.020430000000000170e+00 1.713808999999999827e+01 5.630530000000000257e+00 5.066130000000000244e+00 1.713194000000000017e+01 3.867929999999999868e+00 8.133459999999999468e+00 1.712181999999999960e+01 -1.030000000000000100e-03 2.028099999999999792e+00 1.287040999999999968e+01 -1.760380000000000056e+00 5.076060000000000016e+00 1.287397999999999954e+01 -3.507089999999999819e+00 8.122840000000000060e+00 1.286750999999999934e+01 3.517300000000000093e+00 2.023280000000000189e+00 1.288124999999999964e+01 1.752070000000000016e+00 5.090329999999999799e+00 1.286491000000000007e+01 3.480000000000000020e-03 8.127110000000000056e+00 1.287204999999999977e+01 7.040589999999999904e+00 2.023810000000000109e+00 1.287523000000000017e+01 5.283199999999999896e+00 5.076520000000000366e+00 1.286816999999999922e+01 3.518409999999999815e+00 8.119360000000000355e+00 1.287429000000000023e+01 3.546199999999999908e-01 2.027880000000000127e+00 2.077206999999999937e+01 -1.406719999999999970e+00 5.073820000000000441e+00 2.075335000000000107e+01 -3.166360000000000063e+00 8.117749999999999133e+00 2.075568000000000168e+01 3.866859999999999964e+00 2.031750000000000167e+00 2.073596999999999824e+01 2.120960000000000178e+00 5.080470000000000041e+00 2.075327000000000055e+01 3.523800000000000265e-01 8.130430000000000490e+00 2.073781999999999925e+01 7.394129999999999647e+00 2.034920000000000062e+00 2.073842000000000141e+01 5.639870000000000161e+00 5.081889999999999574e+00 2.075679999999999836e+01 3.871220000000000105e+00 8.133490000000000109e+00 2.075063000000000102e+01 1.400999999999999988e-02 9.060000000000000345e-03 1.103703999999999930e+01 -1.749980000000000091e+00 3.053679999999999950e+00 1.105059999999999931e+01 -3.508000000000000007e+00 6.107529999999999681e+00 1.105996999999999986e+01 3.516830000000000123e+00 3.020000000000000115e-03 1.106609000000000087e+01 1.762909999999999977e+00 3.052480000000000082e+00 1.104785000000000039e+01 5.800000000000000034e-04 6.097920000000000229e+00 1.104748999999999981e+01 1.753030000000000088e+00 9.134660000000000224e+00 1.105495999999999945e+01 5.294469999999999565e+00 3.038349999999999884e+00 1.106771999999999956e+01 3.520910000000000206e+00 6.097279999999999589e+00 1.106540000000000035e+01 3.583200000000000274e-01 2.449999999999999921e-03 1.894947000000000159e+01 -1.409710000000000019e+00 3.050149999999999917e+00 1.893601999999999919e+01 -3.182479999999999976e+00 6.096569999999999823e+00 1.893955000000000055e+01 3.881489999999999885e+00 1.358000000000000006e-02 1.895043000000000077e+01 2.099029999999999951e+00 3.070440000000000058e+00 1.895655999999999963e+01 3.492100000000000204e-01 6.100060000000000038e+00 1.894987000000000066e+01 7.386470000000000091e+00 2.249999999999999830e-03 1.894667000000000101e+01 5.631809999999999761e+00 3.046390000000000153e+00 1.894334999999999880e+01 3.876240000000000130e+00 6.106720000000000148e+00 1.894696000000000069e+01
-3.400000000000000244e-04 2.035969999999999835e+00 9.242570000000000618e+00 -1.776880000000000015e+00 5.076170000000000293e+00 9.274800000000000821e+00 -3.513609999999999900e+00 8.133010000000000517e+00 9.257339999999999236e+00 3.503760000000000208e+00 2.037580000000000169e+00 9.230119999999999436e+00 1.766610000000000014e+00 5.074959999999999916e+00 9.221199999999999619e+00 1.542999999999999927e-02 8.138109999999999289e+00 9.245039999999999480e+00 7.024009999999999643e+00 2.023550000000000182e+00 9.248720000000000496e+00 5.287230000000000096e+00 5.093569999999999709e+00 9.230150000000000077e+00 3.509930000000000216e+00 8.138680000000000803e+00 9.248749999999999361e+00 3.500599999999999823e-01 2.024529999999999941e+00 1.712486000000000175e+01 -1.399540000000000006e+00 5.084459999999999980e+00 1.713450999999999880e+01 -3.167870000000000186e+00 8.119189999999999685e+00 1.713202000000000069e+01 3.848850000000000104e+00 2.031620000000000203e+00 1.712557999999999936e+01 2.121080000000000076e+00 5.094359999999999999e+00 1.714593999999999951e+01 3.423499999999999877e-01 8.134520000000000195e+00 1.712734000000000023e+01 7.384830000000000005e+00 2.018120000000000136e+00 1.713954000000000022e+01 5.630209999999999937e+00 5.063270000000000159e+00 1.713221000000000060e+01 3.867160000000000153e+00 8.134339999999999904e+00 1.712017000000000166e+01 -1.190000000000000085e-03 2.027280000000000193e+00 1.287052000000000085e+01 -1.760420000000000096e+00 5.075169999999999959e+00 1.287485000000000035e+01 -3.504599999999999937e+00 8.121660000000000323e+00 1.286715000000000053e+01 3.516760000000000108e+00 2.021570000000000089e+00 1.288353000000000037e+01 1.750490000000000101e+00 5.092200000000000060e+00 1.286397999999999975e+01 4.129999999999999991e-03 8.126689999999999969e+00 1.287255000000000038e+01 7.040779999999999816e+00 2.022110000000000074e+00 1.287632999999999939e+01 5.283859999999999779e+00 5.075700000000000323e+00 1.286788999999999916e+01 3.518159999999999954e+00 8.117499999999999716e+00 1.287514999999999965e+01 3.550900000000000167e-01 2.027050000000000018e+00 2.077619999999999933e+01 -1.406509999999999927e+00 5.072470000000000034e+00 2.075379999999999825e+01 -3.165999999999999925e+00 8.115529999999999688e+00 2.075659999999999883e+01 3.865839999999999943e+00 2.031719999999999970e+00 2.073311999999999955e+01 2.122720000000000162e+00 5.080530000000000435e+00 2.075382000000000104e+01 3.524499999999999855e-01 8.130710000000000548e+00 2.073535000000000039e+01 7.394560000000000244e+00 2.035449999999999982e+00 2.073601000000000028e+01 5.641379999999999839e+00 5.082099999999999618e+00 2.075797000000000025e+01 3.871070000000000011e+00 8.134389999999999787e+00 2.075058999999999898e+01 1.661999999999999936e-02 1.073999999999999955e-02 1.103304999999999936e+01 -1.748170000000000002e+00 3.054520000000000124e+00 1.104913999999999952e+01 -3.505809999999999871e+00 6.109549999999999592e+00 1.106023000000000067e+01 3.516350000000000087e+00 3.640000000000000006e-03 1.106736000000000075e+01 1.763460000000000027e+00 3.053300000000000125e+00 1.104579000000000022e+01 7.299999999999999632e-04 6.098139999999999894e+00 1.104527999999999999e+01 1.751749999999999918e+00 9.132690000000000197e+00 1.105432000000000059e+01 5.297060000000000102e+00 3.036449999999999871e+00 1.106926999999999950e+01 3.521079999999999988e+00 6.097310000000000230e+00 1.106644999999999968e+01 3.595200000000000062e-01 2.939999999999999905e-03 1.895104999999999862e+01 -1.409939999999999971e+00 3.050399999999999778e+00 1.893508999999999887e+01 -3.185160000000000213e+00 6.096440000000000303e+00 1.893928000000000011e+01 3.883150000000000102e+00 1.607000000000000095e-02 1.895207999999999871e+01 2.096470000000000056e+00 3.074559999999999960e+00 1.895943000000000112e+01 3.487100000000000199e-01 6.100719999999999921e+00 1.895154000000000138e+01 7.385449999999999626e+00 2.599999999999999881e-03 1.894763999999999982e+01 5.631689999999999863e+00 3.046019999999999950e+00 1.894372999999999863e+01 3.877149999999999874e+00 6.108620000000000161e+00 1.894809000000000054e+01