2.900000000000000017e-04 5.599999999999999916e-05 -1.174599999999999950e-02 2.809999999999999998e-04 5.500000000000000196e-05 -1.174500000000000023e-02 2.809999999999999998e-04 5.500000000000000196e-05 -1.174099999999999970e-02 2.669999999999999847e-04 5.300000000000000078e-05 -1.172300000000000078e-02 2.719999999999999979e-04 3.899999999999999929e-05 -1.172699999999999958e-02 2.759999999999999867e-04 5.300000000000000078e-05 -1.172600000000000031e-02 2.570000000000000127e-04 3.699999999999999811e-05 -1.174200000000000070e-02 2.610000000000000015e-04 3.899999999999999929e-05 -1.173800000000000017e-02 2.590000000000000071e-04 4.399999999999999886e-05 -1.174099999999999970e-02 8.611999999999999864e-03 -1.779999999999999898e-04 -1.174399999999999923e-02 8.623000000000000456e-03 -1.730000000000000038e-04 -1.174299999999999997e-02 8.609000000000000333e-03 -1.679999999999999907e-04 -1.173899999999999944e-02 8.618000000000000660e-03 -1.679999999999999907e-04 -1.174200000000000070e-02 8.613000000000000864e-03 -1.640000000000000019e-04 -1.174399999999999923e-02 8.616999999999999660e-03 -1.789999999999999870e-04 -1.174000000000000044e-02 8.616000000000000394e-03 -1.689999999999999879e-04 -1.174299999999999997e-02 8.609999999999999598e-03 -1.759999999999999954e-04 -1.174599999999999950e-02 8.619999999999999191e-03 -1.710000000000000094e-04 -1.174500000000000023e-02 -8.588999999999999413e-03 -1.269999999999999970e-04 1.169199999999999927e-02 -8.600000000000000006e-03 -1.240000000000000054e-04 1.169300000000000027e-02 -8.599000000000000740e-03 -1.269999999999999970e-04 1.169199999999999927e-02 -8.607999999999999333e-03 -1.289999999999999914e-04 1.167499999999999961e-02 -8.604999999999999802e-03 -1.340000000000000045e-04 1.167499999999999961e-02 -8.606000000000000802e-03 -1.279999999999999942e-04 1.167999999999999941e-02 -8.625999999999999987e-03 -1.420000000000000092e-04 1.169000000000000074e-02 -8.619999999999999191e-03 -1.379999999999999933e-04 1.168800000000000047e-02 -8.623999999999999722e-03 -1.379999999999999933e-04 1.169100000000000000e-02 -2.700000000000000035e-04 0.000000000000000000e+00 1.159600000000000040e-02 -2.590000000000000071e-04 5.000000000000000409e-06 1.159100000000000061e-02 -2.739999999999999923e-04 1.099999999999999971e-05 1.159199999999999987e-02 -2.620000000000000258e-04 9.000000000000000228e-06 1.159400000000000014e-02 -2.680000000000000090e-04 1.200000000000000030e-05 1.159699999999999967e-02 -2.669999999999999847e-04 9.999999999999999547e-07 1.159100000000000061e-02 -2.680000000000000090e-04 9.000000000000000228e-06 1.159400000000000014e-02 -2.739999999999999923e-04 9.999999999999999547e-07 1.159699999999999967e-02 -2.620000000000000258e-04 5.000000000000000409e-06 1.159299999999999914e-02 -3.366000000000000068e-03 1.019999999999999992e-04 -7.899999999999999579e-05 -3.361999999999999971e-03 7.799999999999999859e-05 -8.000000000000000654e-05 -3.366000000000000068e-03 8.899999999999999491e-05 -8.200000000000000095e-05 -3.359000000000000007e-03 1.010000000000000020e-04 -9.100000000000000287e-05 -3.363999999999999803e-03 8.600000000000000331e-05 -9.500000000000000523e-05 -3.354999999999999909e-03 9.000000000000000567e-05 -8.799999999999999771e-05 -3.367999999999999900e-03 9.299999999999999727e-05 -8.799999999999999771e-05 -3.367999999999999900e-03 7.799999999999999859e-05 -8.500000000000000611e-05 -3.373999999999999829e-03 8.700000000000000051e-05 -8.399999999999999535e-05 3.321000000000000167e-03 9.000000000000000567e-05 2.809999999999999998e-04 3.314999999999999804e-03 9.899999999999999404e-05 2.809999999999999998e-04 3.299999999999999982e-03 1.090000000000000067e-04 2.739999999999999923e-04 3.308999999999999875e-03 1.029999999999999964e-04 2.790000000000000054e-04 3.325999999999999963e-03 1.029999999999999964e-04 2.770000000000000110e-04 3.327000000000000096e-03 1.010000000000000020e-04 2.799999999999999755e-04 3.311999999999999840e-03 8.799999999999999771e-05 2.790000000000000054e-04 3.298000000000000150e-03 1.039999999999999936e-04 2.809999999999999998e-04 3.311000000000000141e-03 9.200000000000000007e-05 2.779999999999999811e-04
4.922000000000000160e-03 1.139500000000000061e-02 -3.382500000000000090e-02 2.811299999999999910e-02 1.477400000000000067e-02 -7.824399999999999411e-02 1.380400000000000030e-02 -3.359999999999999814e-04 -4.968999999999999806e-02 4.202700000000000186e-02 -5.911999999999999721e-03 3.273600000000000121e-02 3.449999999999999833e-04 1.880199999999999927e-02 2.645700000000000135e-02 -4.236199999999999688e-02 -1.144599999999999958e-02 -1.552899999999999940e-02 3.023400000000000046e-02 7.512999999999999713e-03 -9.178999999999999659e-03 -2.374999999999999941e-03 -2.200399999999999925e-02 4.924300000000000205e-02 1.933599999999999902e-02 -1.902099999999999971e-02 -1.177899999999999954e-02 1.626100000000000115e-02 1.627400000000000027e-02 1.604399999999999923e-02 -1.005900000000000023e-02 1.672000000000000092e-03 -1.066499999999999913e-02 1.600800000000000139e-02 2.291500000000000134e-02 6.190000000000000190e-03 1.830299999999999983e-02 2.256000000000000019e-02 1.861000000000000154e-02 -5.586999999999999952e-03 1.183999999999999940e-03 -2.365199999999999941e-02 1.751499999999999932e-02 -5.747000000000000372e-03 3.112999999999999882e-03 1.376699999999999972e-02 1.910900000000000098e-02 -3.016599999999999837e-02 -1.150999999999999896e-03 1.904499999999999943e-02 -1.507099999999999933e-02 2.024300000000000058e-02 3.769000000000000215e-03 2.366000000000000048e-02 6.965999999999999970e-03 6.774999999999999772e-03 -1.481200000000000051e-02 7.298999999999999932e-03 9.863999999999999505e-03 -2.325999999999999943e-03 -3.786300000000000082e-02 2.210499999999999965e-02 1.890700000000000019e-02 -7.723999999999999963e-03 2.685299999999999840e-02 -1.896799999999999875e-02 -1.128000000000000096e-03 -2.231899999999999856e-02 5.936000000000000304e-03 -2.076199999999999921e-02 -9.360999999999999530e-03 3.016000000000000018e-03 1.658499999999999905e-02 -7.770000000000000214e-04 -7.816999999999999296e-03 -8.970000000000000109e-04 4.798000000000000181e-03 4.376999999999999814e-03 1.677299999999999972e-02 3.004300000000000026e-02 -2.392999999999999988e-02 -1.730599999999999847e-02 1.417500000000000010e-02 -2.140299999999999842e-02 -1.579399999999999901e-02 1.123299999999999993e-02 3.282999999999999894e-03 9.634000000000000202e-03 1.972300000000000095e-02 6.592999999999999902e-03 3.210000000000000180e-03 2.253099999999999895e-02 5.990899999999999698e-02 -1.222400000000000049e-02 2.997800000000000117e-02 3.729299999999999976e-02 -5.190000000000000386e-04 1.061000000000000094e-03 6.539300000000000668e-02 -8.300000000000000086e-04 1.020000000000000073e-03 4.656899999999999928e-02 -1.916400000000000048e-02 -8.474000000000000629e-03 1.179000000000000013e-02 1.585999999999999953e-03 5.880999999999999943e-03 2.408100000000000171e-02 -5.014899999999999913e-02 -3.218000000000000027e-02 9.840100000000000235e-02 -4.960900000000000032e-02 -5.188099999999999656e-02 4.997900000000000259e-02 -5.161600000000000216e-02 -3.015800000000000078e-02 1.450899999999999933e-02 3.295499999999999818e-02 3.288000000000000124e-03 -3.746300000000000324e-02 -8.819999999999999715e-03 4.099999999999999912e-04 4.275199999999999834e-02 3.304000000000000079e-03 -7.870000000000000476e-04 2.268600000000000130e-02 2.542700000000000168e-02 3.521699999999999831e-02 3.903399999999999925e-02 -7.536900000000000543e-02 2.789600000000000066e-02 -4.845499999999999807e-02 -4.812999999999999570e-03 -1.374599999999999954e-02 -5.672900000000000165e-02 -1.316999999999999942e-02 6.600000000000000506e-05 -2.630899999999999905e-02 3.032800000000000079e-02 -2.378800000000000012e-02 1.735799999999999843e-02 5.619199999999999889e-02 -2.045999999999999902e-02 5.424000000000000002e-03 -5.417600000000000193e-02 -5.504699999999999871e-02 -5.568100000000000133e-02 1.193400000000000016e-02 -6.912799999999999501e-02 -5.943099999999999772e-02 1.733399999999999871e-02 1.526999999999999929e-03 -2.680099999999999844e-02 2.372099999999999903e-02 -2.098500000000000018e-02 -3.887700000000000183e-02 -1.675499999999999906e-02 8.418000000000000135e-03 -2.111299999999999982e-02 1.558599999999999916e-02 -1.927800000000000000e-02 -1.561899999999999920e-02
9.480999999999999844e-03 2.276099999999999998e-02 -5.598000000000000198e-02 5.604900000000000160e-02 2.954000000000000029e-02 -1.452019999999999977e-01 2.756000000000000116e-02 -9.049999999999999885e-04 -8.786299999999999666e-02 8.284900000000000597e-02 -1.206300000000000081e-02 7.575500000000000289e-02 2.329999999999999986e-04 3.720699999999999702e-02 6.380600000000000160e-02 -8.478800000000000225e-02 -2.313399999999999831e-02 -1.993699999999999986e-02 5.996599999999999847e-02 1.483199999999999970e-02 -6.898999999999999751e-03 -5.002999999999999635e-03 -4.312799999999999967e-02 1.085109999999999963e-01 3.846999999999999725e-02 -3.783899999999999764e-02 -1.200299999999999978e-02 2.352699999999999930e-02 3.243299999999999655e-02 4.316199999999999898e-02 -2.849000000000000143e-02 3.419000000000000164e-03 -9.750999999999999251e-03 2.305300000000000057e-02 4.568200000000000038e-02 2.344600000000000156e-02 2.795399999999999968e-02 4.483199999999999685e-02 4.818000000000000060e-02 -1.969600000000000170e-02 2.547999999999999918e-03 -3.563100000000000295e-02 2.629899999999999946e-02 -1.126199999999999944e-02 1.749300000000000160e-02 1.886099999999999929e-02 3.836200000000000027e-02 -4.866000000000000186e-02 -1.082499999999999955e-02 3.810600000000000098e-02 -1.856199999999999864e-02 3.163300000000000139e-02 7.497000000000000192e-03 5.835100000000000009e-02 2.226500000000000007e-02 1.355100000000000054e-02 -4.069899999999999907e-02 2.292900000000000146e-02 1.964499999999999927e-02 -1.603200000000000111e-02 -6.662800000000000666e-02 4.408600000000000019e-02 2.671600000000000016e-02 -6.705000000000000022e-03 5.347600000000000270e-02 -4.891299999999999815e-02 6.349999999999999742e-03 -4.418899999999999911e-02 3.579999999999999741e-04 -3.282800000000000301e-02 -1.846499999999999878e-02 -5.388000000000000428e-03 4.124300000000000188e-02 -1.484999999999999992e-03 -2.665299999999999961e-02 6.673000000000000112e-03 9.733000000000000332e-03 -2.821000000000000157e-03 4.108699999999999852e-02 5.938999999999999835e-02 -5.814099999999999824e-02 -3.382299999999999890e-02 2.800000000000000058e-02 -5.367600000000000149e-02 -3.094799999999999982e-02 2.224500000000000088e-02 -4.714999999999999573e-03 1.937499999999999986e-02 3.927499999999999741e-02 1.796999999999999986e-03 6.594000000000000035e-03 4.538699999999999679e-02 1.084240000000000065e-01 -2.400700000000000056e-02 6.020999999999999963e-02 6.330800000000000316e-02 -7.680000000000000195e-04 2.161999999999999859e-03 1.194719999999999949e-01 -1.361999999999999929e-03 2.053999999999999836e-03 8.151200000000000112e-02 -3.799500000000000099e-02 -1.693499999999999867e-02 1.213599999999999922e-02 3.436999999999999951e-03 1.175099999999999929e-02 3.654299999999999909e-02 -9.625200000000000422e-02 -6.349100000000000577e-02 1.950820000000000054e-01 -9.504700000000000648e-02 -1.035849999999999965e-01 9.980300000000000282e-02 -9.971399999999999708e-02 -6.002099999999999796e-02 2.945700000000000054e-02 6.897200000000000553e-02 6.437000000000000013e-03 -7.420499999999999319e-02 -1.431600000000000060e-02 8.679999999999999565e-04 8.461699999999999777e-02 1.001600000000000060e-02 -1.528000000000000061e-03 4.515999999999999875e-02 5.408999999999999919e-02 7.013900000000000690e-02 7.796799999999999564e-02 -1.460049999999999959e-01 5.511300000000000227e-02 -9.488599999999999812e-02 -6.087000000000000396e-03 -2.737799999999999956e-02 -1.123170000000000002e-01 -2.931900000000000131e-02 2.069999999999999900e-04 -5.220899999999999846e-02 5.673399999999999971e-02 -4.718499999999999778e-02 3.388100000000000139e-02 1.083670000000000050e-01 -4.073899999999999744e-02 1.035400000000000036e-02 -1.109460000000000029e-01 -1.098739999999999994e-01 -1.113699999999999968e-01 2.036699999999999969e-02 -1.378330000000000111e-01 -1.184769999999999990e-01 3.123000000000000081e-02 2.645999999999999915e-03 -5.366900000000000143e-02 4.412900000000000156e-02 -4.193500000000000005e-02 -7.757100000000000106e-02 -3.650099999999999872e-02 1.688100000000000017e-02 -4.204499999999999904e-02 2.774700000000000083e-02 -3.852900000000000075e-02 -3.122000000000000122e-02
1.394699999999999933e-02 3.396500000000000213e-02 -7.767699999999999605e-02 8.412100000000000133e-02 4.425799999999999873e-02 -2.123200000000000087e-01 4.129100000000000131e-02 -1.644999999999999978e-03 -1.258670000000000067e-01 1.226089999999999958e-01 -1.832900000000000154e-02 1.173769999999999952e-01 -2.030000000000000012e-04 5.518800000000000094e-02 1.005299999999999944e-01 -1.268009999999999970e-01 -3.509299999999999919e-02 -2.469999999999999973e-02 8.937499999999999611e-02 2.205500000000000169e-02 -4.857000000000000206e-03 -7.668000000000000337e-03 -6.341199999999999615e-02 1.658900000000000097e-01 5.771099999999999841e-02 -5.633500000000000313e-02 -1.233800000000000001e-02 3.037400000000000169e-02 4.829300000000000259e-02 6.948600000000000609e-02 -4.665099999999999802e-02 4.963999999999999663e-03 -8.942000000000000295e-03 2.961700000000000096e-02 6.796000000000000651e-02 3.997699999999999865e-02 3.765399999999999997e-02 6.651200000000000168e-02 7.687399999999999789e-02 -3.372800000000000104e-02 3.733000000000000207e-03 -4.768100000000000116e-02 3.502799999999999664e-02 -1.674900000000000000e-02 3.144899999999999779e-02 2.398000000000000131e-02 5.762099999999999861e-02 -6.713800000000000323e-02 -2.021799999999999986e-02 5.713499999999999829e-02 -2.222100000000000117e-02 4.280599999999999683e-02 1.096899999999999958e-02 9.221899999999999542e-02 3.729999999999999982e-02 2.017299999999999996e-02 -6.584600000000000175e-02 3.822199999999999903e-02 2.922599999999999851e-02 -2.950799999999999951e-02 -9.485799999999999788e-02 6.583200000000000163e-02 3.497700000000000115e-02 -5.523000000000000131e-03 7.971399999999999320e-02 -7.819900000000000462e-02 1.393100000000000067e-02 -6.571499999999999564e-02 -5.029999999999999749e-03 -4.475799999999999917e-02 -2.738499999999999962e-02 -1.362000000000000016e-02 6.500699999999999534e-02 -2.119999999999999923e-03 -4.479799999999999754e-02 1.389800000000000063e-02 1.460999999999999972e-02 -9.827999999999999931e-03 6.427399999999999780e-02 8.778800000000000492e-02 -9.085899999999999532e-02 -4.968899999999999706e-02 4.144500000000000267e-02 -8.539700000000000069e-02 -4.560600000000000070e-02 3.305299999999999905e-02 -1.254000000000000080e-02 2.884499999999999911e-02 5.864400000000000168e-02 -3.023000000000000079e-03 9.801999999999999949e-03 6.838299999999999934e-02 1.567870000000000097e-01 -3.566099999999999826e-02 9.042600000000000637e-02 8.922399999999999776e-02 -1.038000000000000077e-03 3.357999999999999874e-03 1.733840000000000103e-01 -1.928000000000000026e-03 2.988999999999999903e-03 1.161530000000000062e-01 -5.666600000000000109e-02 -2.536700000000000066e-02 1.247000000000000018e-02 5.284999999999999767e-03 1.758499999999999994e-02 4.880299999999999916e-02 -1.414140000000000119e-01 -9.369800000000000351e-02 2.893470000000000208e-01 -1.394080000000000041e-01 -1.546269999999999867e-01 1.489709999999999923e-01 -1.473569999999999880e-01 -8.937100000000000599e-02 4.455900000000000138e-02 1.044019999999999948e-01 9.495999999999999233e-03 -1.100990000000000024e-01 -1.992199999999999874e-02 1.342000000000000094e-03 1.252520000000000022e-01 1.667300000000000032e-02 -2.142999999999999940e-03 6.723800000000000610e-02 8.241600000000000315e-02 1.046170000000000017e-01 1.163939999999999975e-01 -2.148760000000000114e-01 8.161400000000000599e-02 -1.391570000000000029e-01 -7.251999999999999766e-03 -4.065099999999999963e-02 -1.664680000000000049e-01 -4.503599999999999964e-02 4.409999999999999858e-04 -7.725500000000000422e-02 8.240400000000000502e-02 -6.990499999999999492e-02 4.982899999999999829e-02 1.595979999999999899e-01 -6.059900000000000009e-02 1.509500000000000078e-02 -1.666040000000000021e-01 -1.640969999999999929e-01 -1.663310000000000066e-01 2.861899999999999861e-02 -2.057209999999999872e-01 -1.764539999999999997e-01 4.490399999999999947e-02 3.393000000000000183e-03 -8.013199999999999490e-02 6.431499999999999717e-02 -6.261200000000000099e-02 -1.154609999999999942e-01 -5.574899999999999994e-02 2.531100000000000017e-02 -6.230000000000000121e-02 3.972300000000000136e-02 -5.756599999999999911e-02 -4.639499999999999874e-02
1.825500000000000039e-02 4.486199999999999910e-02 -9.856299999999999784e-02 1.121670000000000028e-01 5.871699999999999836e-02 -2.791170000000000040e-01 5.482700000000000073e-02 -2.547999999999999918e-03 -1.633300000000000030e-01 1.610860000000000070e-01 -2.469999999999999973e-02 1.574460000000000026e-01 -9.899999999999999946e-04 7.265000000000000624e-02 1.365599999999999870e-01 -1.681040000000000034e-01 -4.720900000000000096e-02 -2.970100000000000171e-02 1.183540000000000009e-01 2.915299999999999836e-02 -3.029000000000000008e-03 -1.038999999999999993e-02 -8.280899999999999372e-02 2.211029999999999940e-01 7.696899999999999575e-02 -7.442799999999999416e-02 -1.273499999999999979e-02 3.673400000000000276e-02 6.372700000000000586e-02 9.479200000000000126e-02 -6.438099999999999379e-02 6.183000000000000128e-03 -8.302000000000000351e-03 3.554600000000000121e-02 8.963699999999999446e-02 5.558099999999999846e-02 4.746199999999999725e-02 8.744799999999999796e-02 1.044510000000000022e-01 -4.761800000000000060e-02 4.690999999999999857e-03 -5.983399999999999830e-02 4.365299999999999736e-02 -2.223599999999999882e-02 4.478100000000000136e-02 2.912800000000000111e-02 7.690600000000000214e-02 -8.551999999999999880e-02 -2.927300000000000041e-02 7.612099999999999422e-02 -2.605100000000000124e-02 5.384200000000000097e-02 1.409299999999999962e-02 1.250950000000000117e-01 5.198400000000000243e-02 2.667200000000000126e-02 -8.997900000000000342e-02 5.305900000000000200e-02 3.851899999999999769e-02 -4.273199999999999915e-02 -1.223349999999999993e-01 8.726599999999999635e-02 4.361600000000000199e-02 -4.192999999999999679e-03 1.054139999999999938e-01 -1.067420000000000035e-01 2.169700000000000101e-02 -8.678700000000000303e-02 -1.017200000000000049e-02 -5.648999999999999855e-02 -3.601399999999999740e-02 -2.165299999999999864e-02 8.762899999999999856e-02 -2.576000000000000165e-03 -6.214599999999999985e-02 2.062399999999999997e-02 1.943500000000000089e-02 -1.662399999999999989e-02 8.621700000000000197e-02 1.149960000000000010e-01 -1.219049999999999995e-01 -6.483400000000000274e-02 5.440899999999999903e-02 -1.165380000000000027e-01 -5.955799999999999983e-02 4.358599999999999974e-02 -2.015399999999999830e-02 3.792800000000000338e-02 7.779500000000000304e-02 -7.901000000000000037e-03 1.282999999999999939e-02 9.125199999999999978e-02 2.046350000000000113e-01 -4.716100000000000153e-02 1.203960000000000030e-01 1.146979999999999944e-01 -1.409000000000000096e-03 4.649000000000000354e-03 2.267589999999999884e-01 -2.595999999999999783e-03 3.788000000000000134e-03 1.502110000000000112e-01 -7.511800000000000421e-02 -3.376599999999999741e-02 1.269900000000000022e-02 7.187999999999999945e-03 2.329699999999999827e-02 6.069299999999999695e-02 -1.852729999999999932e-01 -1.226269999999999999e-01 3.803320000000000034e-01 -1.824070000000000136e-01 -2.045369999999999966e-01 1.969370000000000009e-01 -1.941720000000000113e-01 -1.180149999999999949e-01 5.960200000000000220e-02 1.389410000000000089e-01 1.239900000000000030e-02 -1.448699999999999988e-01 -2.561400000000000135e-02 1.784999999999999911e-03 1.642730000000000024e-01 2.319500000000000034e-02 -2.609999999999999907e-03 8.872700000000000031e-02 1.101479999999999959e-01 1.383590000000000098e-01 1.538770000000000138e-01 -2.814539999999999820e-01 1.072310000000000069e-01 -1.809439999999999937e-01 -8.319999999999999271e-03 -5.344800000000000245e-02 -2.187260000000000038e-01 -6.026000000000000106e-02 7.200000000000000453e-04 -1.011809999999999932e-01 1.071259999999999990e-01 -9.178799999999999459e-02 6.512099999999999833e-02 2.094439999999999913e-01 -7.991099999999999592e-02 1.964899999999999980e-02 -2.206950000000000023e-01 -2.172439999999999927e-01 -2.199440000000000006e-01 3.667299999999999727e-02 -2.722269999999999968e-01 -2.327710000000000057e-01 5.828799999999999953e-02 3.778999999999999807e-03 -1.058950000000000030e-01 8.411799999999999833e-02 -8.284199999999999897e-02 -1.521280000000000132e-01 -7.437100000000000655e-02 3.362699999999999717e-02 -8.164899999999999936e-02 5.141799999999999843e-02 -7.625500000000000334e-02 -6.096700000000000036e-02
2.234999999999999834e-02 5.526799999999999768e-02 -1.182450000000000029e-01 1.400579999999999881e-01 7.275199999999999723e-02 -3.450759999999999939e-01 6.793000000000000427e-02 -3.602000000000000167e-03 -1.998860000000000081e-01 1.981360000000000066e-01 -3.108599999999999905e-02 1.958370000000000111e-01 -2.194000000000000204e-03 8.950400000000000023e-02 1.718459999999999988e-01 -2.083919999999999939e-01 -5.944599999999999884e-02 -3.482600000000000279e-02 1.467569999999999986e-01 3.612400000000000333e-02 -1.358999999999999965e-03 -1.316499999999999962e-02 -1.013560000000000016e-01 2.739030000000000076e-01 9.618999999999999773e-02 -9.197800000000000420e-02 -1.313800000000000037e-02 4.260200000000000098e-02 7.872300000000000131e-02 1.188400000000000012e-01 -8.159299999999999886e-02 7.015000000000000402e-03 -7.846000000000000543e-03 4.080299999999999899e-02 1.105359999999999954e-01 7.012200000000000377e-02 5.736999999999999739e-02 1.074839999999999962e-01 1.307520000000000071e-01 -6.133700000000000263e-02 5.318999999999999943e-03 -7.211499999999999855e-02 5.216300000000000103e-02 -2.771200000000000052e-02 5.741600000000000176e-02 3.431900000000000228e-02 9.617000000000000548e-02 -1.037610000000000060e-01 -3.785700000000000176e-02 9.508400000000000185e-02 -3.008800000000000016e-02 6.470700000000000063e-02 1.680800000000000002e-02 1.567590000000000094e-01 6.626100000000000045e-02 3.302399999999999780e-02 -1.128900000000000042e-01 6.736200000000000521e-02 4.747699999999999837e-02 -5.568700000000000039e-02 -1.489469999999999961e-01 1.083289999999999947e-01 5.255499999999999755e-02 -2.688999999999999984e-03 1.305109999999999881e-01 -1.344710000000000072e-01 2.967900000000000052e-02 -1.073000000000000065e-01 -1.500800000000000051e-02 -6.794400000000000439e-02 -4.431600000000000122e-02 -2.945899999999999908e-02 1.088279999999999942e-01 -2.726000000000000124e-03 -7.864100000000000257e-02 2.671000000000000110e-02 2.414499999999999980e-02 -2.316500000000000156e-02 1.068690000000000057e-01 1.408500000000000030e-01 -1.511659999999999948e-01 -7.916700000000000126e-02 6.685499999999999776e-02 -1.470549999999999913e-01 -7.268099999999999561e-02 5.381799999999999778e-02 -2.758100000000000135e-02 4.653899999999999704e-02 9.662400000000000155e-02 -1.287699999999999956e-02 1.559800000000000075e-02 1.137419999999999959e-01 2.516070000000000251e-01 -5.847800000000000220e-02 1.498450000000000060e-01 1.393689999999999929e-01 -1.891000000000000103e-03 6.078000000000000069e-03 2.791489999999999805e-01 -3.389000000000000085e-03 4.340000000000000108e-03 1.834550000000000070e-01 -9.324100000000000443e-02 -4.204999999999999710e-02 1.274999999999999918e-02 9.110999999999999308e-03 2.883000000000000146e-02 7.214900000000000480e-02 -2.275149999999999950e-01 -1.501190000000000024e-01 4.672350000000000114e-01 -2.237389999999999934e-01 -2.528719999999999857e-01 2.431439999999999990e-01 -2.397880000000000011e-01 -1.457859999999999989e-01 7.434399999999999342e-02 1.723079999999999889e-01 1.511299999999999970e-02 -1.782630000000000048e-01 -3.139999999999999736e-02 2.132999999999999913e-03 2.013320000000000110e-01 2.950099999999999945e-02 -2.964000000000000055e-03 1.094170000000000004e-01 1.370659999999999934e-01 1.710929999999999951e-01 1.899990000000000012e-01 -3.452609999999999846e-01 1.318130000000000135e-01 -2.199899999999999911e-01 -9.292999999999999178e-03 -6.563700000000000090e-02 -2.686729999999999952e-01 -7.490700000000000136e-02 9.879999999999999460e-04 -1.237520000000000009e-01 1.307510000000000061e-01 -1.126390000000000030e-01 7.971699999999999620e-02 2.575979999999999936e-01 -9.854100000000000359e-02 2.404600000000000140e-02 -2.727849999999999997e-01 -2.689340000000000064e-01 -2.716009999999999813e-01 4.451600000000000001e-02 -3.368619999999999948e-01 -2.868589999999999751e-01 7.126200000000000589e-02 3.812999999999999983e-03 -1.306589999999999974e-01 1.033150000000000041e-01 -1.024830000000000046e-01 -1.871460000000000068e-01 -9.222700000000000342e-02 4.170399999999999802e-02 -9.985199999999999632e-02 6.273299999999999710e-02 -9.446300000000000530e-02 -7.472299999999999776e-02
2.616800000000000029e-02 6.504200000000000259e-02 -1.363499999999999990e-01 1.676499999999999935e-01 8.615399999999999447e-02 -4.097029999999999839e-01 8.041500000000000037e-02 -4.793999999999999651e-03 -2.351779999999999982e-01 2.335969999999999991e-01 -3.745500000000000218e-02 2.324700000000000100e-01 -3.821000000000000178e-03 1.056700000000000000e-01 2.063349999999999906e-01 -2.474050000000000138e-01 -7.171299999999999897e-02 -3.995599999999999846e-02 1.745009999999999895e-01 4.296699999999999825e-02 1.910000000000000077e-04 -1.601299999999999946e-02 -1.190409999999999940e-01 3.241080000000000072e-01 1.153030000000000027e-01 -1.089129999999999959e-01 -1.348399999999999946e-02 4.794099999999999751e-02 9.319199999999999706e-02 1.414690000000000114e-01 -9.818100000000000438e-02 7.370999999999999948e-03 -7.621000000000000170e-03 4.527500000000000274e-02 1.305330000000000101e-01 8.346199999999999453e-02 6.741300000000000070e-02 1.265120000000000133e-01 1.555979999999999863e-01 -7.482800000000000562e-02 5.564000000000000369e-03 -8.454599999999999616e-02 6.053399999999999753e-02 -3.320900000000000241e-02 6.919100000000000250e-02 3.955199999999999688e-02 1.154229999999999978e-01 -1.218039999999999956e-01 -4.588400000000000117e-02 1.140290000000000054e-01 -3.434399999999999953e-02 7.546700000000000630e-02 1.904099999999999890e-02 1.870809999999999973e-01 8.007100000000000328e-02 3.924400000000000110e-02 -1.343709999999999904e-01 8.103200000000000680e-02 5.603500000000000147e-02 -6.836499999999999522e-02 -1.745339999999999947e-01 1.289760000000000073e-01 6.170400000000000190e-02 -1.023000000000000038e-03 1.548940000000000039e-01 -1.613449999999999884e-01 3.797699999999999687e-02 -1.271750000000000103e-01 -1.951200000000000156e-02 -7.907599999999999352e-02 -5.220000000000000334e-02 -3.700200000000000017e-02 1.283829999999999971e-01 -2.455000000000000151e-03 -9.420900000000000107e-02 3.200599999999999973e-02 2.873699999999999866e-02 -2.942699999999999830e-02 1.261950000000000016e-01 1.651600000000000013e-01 -1.785519999999999885e-01 -9.262299999999999700e-02 7.871000000000000218e-02 -1.769540000000000002e-01 -8.484700000000000575e-02 6.371599999999999486e-02 -3.480899999999999966e-02 5.458500000000000157e-02 1.150700000000000056e-01 -1.801499999999999976e-02 1.809600000000000097e-02 1.355969999999999953e-01 2.973540000000000072e-01 -6.959100000000000008e-02 1.785029999999999950e-01 1.629120000000000013e-01 -2.557999999999999944e-03 7.668999999999999602e-03 3.301950000000000163e-01 -4.388999999999999672e-03 4.610999999999999648e-03 2.156430000000000013e-01 -1.109499999999999931e-01 -5.021599999999999675e-02 1.254800000000000013e-02 1.110300000000000002e-02 3.410799999999999943e-02 8.303299999999999570e-02 -2.678269999999999817e-01 -1.760500000000000120e-01 5.493170000000000552e-01 -2.631499999999999950e-01 -2.991989999999999927e-01 2.870789999999999731e-01 -2.838660000000000072e-01 -1.725260000000000127e-01 8.854099999999999471e-02 2.042299999999999949e-01 1.759600000000000053e-02 -2.100480000000000125e-01 -3.725900000000000045e-02 2.337999999999999801e-03 2.361260000000000026e-01 3.553200000000000108e-02 -3.206000000000000082e-03 1.291329999999999978e-01 1.629539999999999877e-01 2.025460000000000038e-01 2.243620000000000059e-01 -4.058860000000000245e-01 1.552510000000000001e-01 -2.560939999999999883e-01 -1.017999999999999981e-02 -7.712099999999999511e-02 -3.159350000000000214e-01 -8.891799999999999704e-02 1.214000000000000018e-03 -1.447700000000000098e-01 1.531170000000000031e-01 -1.323280000000000012e-01 9.357600000000000640e-02 3.036969999999999947e-01 -1.163850000000000023e-01 2.831499999999999989e-02 -3.224899999999999989e-01 -3.187470000000000026e-01 -3.207200000000000051e-01 5.214200000000000085e-02 -3.991419999999999968e-01 -3.382000000000000006e-01 8.374700000000000200e-02 3.507000000000000135e-03 -1.541629999999999945e-01 1.217499999999999971e-01 -1.213769999999999988e-01 -2.201369999999999993e-01 -1.091950000000000004e-01 4.946600000000000302e-02 -1.167009999999999992e-01 7.361399999999999888e-02 -1.120769999999999961e-01 -8.751299999999999357e-02