2.766691674584761257e-03 -1.338138456988708161e-03 5.242790308577516267e-01 -1.338138456988708161e-03 -3.882409820479400253e-02 -1.446636169717522321e-04 5.242790308577516267e-01 -1.446636169717522321e-04 4.656902659841918868e-01
-2.052234236265519929e-01 -5.339895761469804630e-02 3.569213089735556732e-01 -5.339895761469804630e-02 9.837125954079152870e-03 1.286602043442521548e-01 3.569213089735556732e-01 1.286602043442521548e-01 2.509552095417471596e-01
-3.974271217256463151e-01 -1.037238133687463509e-01 1.906485642166479699e-01 -1.037238133687463509e-01 7.124683135858797534e-02 2.578448143000268700e-01 1.906485642166479699e-01 2.578448143000268700e-01 5.231398048740990014e-02
-5.756346148827236053e-01 -1.520233784851901526e-01 2.533421592217810839e-02 -1.520233784851901526e-01 1.424032479565686127e-01 3.873910832982310204e-01 2.533421592217810839e-02 3.873910832982310204e-01 -1.299440939448764376e-01
-7.392853315820183679e-01 -1.980987404906932037e-01 -1.385877450589386439e-01 -1.980987404906932037e-01 2.220405690995181924e-01 5.170458500091640319e-01 -1.385877450589386439e-01 5.170458500091640319e-01 -2.958913455635976963e-01
-8.889217603871745199e-01 -2.417329039597979623e-01 -3.009003233012446099e-01 -2.417329039597979623e-01 3.078803428201316583e-01 6.466102019594895944e-01 -3.009003233012446099e-01 6.466102019594895944e-01 -4.474084013893867007e-01
-1.024815145580014297e+00 -2.827088734670468173e-01 -4.613865233792822651e-01 -2.827088734670468173e-01 3.981142739062621394e-01 7.758490607716286291e-01 -4.613865233792822651e-01 7.758490607716286291e-01 -5.861227271131755900e-01
-1.148430206282376576e+00 -3.209362342518323197e-01 -6.198835987239582623e-01 -3.209362342518323197e-01 4.898129241142316070e-01 9.044369333073950523e-01 -6.198835987239582623e-01 9.044369333073950523e-01 -7.149818439307640272e-01
-1.260653007148213378e+00 -3.562160738408183813e-01 -7.763734663831513005e-01 -3.562160738408183813e-01 5.808967539500711208e-01 1.032409985471031355e+00 -7.763734663831513005e-01 1.032409985471031355e+00 -8.365354480912787771e-01
-1.362894018442999178e+00 -3.884579774733977198e-01 -9.307837945483753428e-01 -3.884579774733977198e-01 6.686171546913174391e-01 1.159316143459500958e+00 -9.307837945483753428e-01 1.159316143459500958e+00 -9.539842221202201600e-01
2.743334738818759178e+01 -9.721609216967495470e+00 -1.567824939234740178e+01 -9.721609216967495470e+00 2.458497287201680237e+01 9.328355199864967418e+00 -1.567824939234740178e+01 9.328355199864967418e+00 1.076864253282748152e+01
2.737099042422149964e+01 -9.754355430530477378e+00 -1.577768585042327132e+01 -9.754355430530477378e+00 2.467933622115983283e+01 9.328954108558425773e+00 -1.577768585042327132e+01 9.328954108558425773e+00 1.080977346809889994e+01
2.729503470992156267e+01 -9.772023236987537942e+00 -1.584148724123829233e+01 -9.772023236987537942e+00 2.476721726444424831e+01 9.308045149172055943e+00 -1.584148724123829233e+01 9.308045149172055943e+00 1.080931547909801971e+01
2.720810487456205706e+01 -9.774330796953512035e+00 -1.586930126556102039e+01 -9.774330796953512035e+00 2.485018373344997755e+01 9.265187947666548851e+00 -1.586930126556102039e+01 9.265187947666548851e+00 1.077397986618390213e+01
2.711007761341197764e+01 -9.761137190735828639e+00 -1.586072277927529051e+01 -9.761137190735828639e+00 2.492682643125123576e+01 9.200241584349326374e+00 -1.586072277927529051e+01 9.200241584349326374e+00 1.070233981746918772e+01
2.700016025320056556e+01 -9.732442418334485978e+00 -1.581543471307279880e+01 -9.732442418334485978e+00 2.499501394749777106e+01 9.112800915104223520e+00 -1.581543471307279880e+01 9.112800915104223520e+00 1.059233438244991454e+01
2.687777150019593364e+01 -9.688510704173065591e+00 -1.573317284252996551e+01 -9.688510704173065591e+00 2.505275579153190435e+01 9.002795480084948565e+00 -1.573317284252996551e+01 9.002795480084948565e+00 1.044177930589111014e+01
2.674188968662689092e+01 -9.629553427790437325e+00 -1.561367294322319843e+01 -9.629553427790437325e+00 2.509772678842609395e+01 8.869872980060058865e+00 -1.561367294322319843e+01 8.869872980060058865e+00 1.024831418294208341e+01
2.659189828883840079e+01 -9.556257572687924196e+00 -1.545668840569048719e+01 -9.556257572687924196e+00 2.512768983806064682e+01 8.713927725260118606e+00 -1.545668840569048719e+01 8.713927725260118606e+00 1.000959622371370727e+01
2.642642333982782432e+01 -9.468834518404392497e+00 -1.526211354016240129e+01 -9.468834518404392497e+00 2.514028453558486831e+01 8.534448881799528763e+00 -1.526211354016240129e+01 8.534448881799528763e+00 9.722630884738689971e+00
-5.001662692486301864e+01 7.014196538089209731e+00 1.717534211541793709e+01 7.014196538089209731e+00 -4.106201881702568812e+01 -1.036545415500246747e+01 1.717534211541793709e+01 -1.036545415500246747e+01 -4.989562078894390851e+01
-4.989706500603396222e+01 7.095226744955478004e+00 1.703363553454130397e+01 7.095226744955478004e+00 -4.100494335762653719e+01 -1.039331791672668182e+01 1.703363553454130397e+01 -1.039331791672668182e+01 -4.965191396905333931e+01
-4.970810364197058817e+01 7.174735709820216911e+00 1.687323115640536741e+01 7.174735709820216911e+00 -4.088072143165355499e+01 -1.041068703426312858e+01 1.687323115640536741e+01 -1.041068703426312858e+01 -4.921997752175836638e+01
-4.945043605687612143e+01 7.252511614176884613e+00 1.669353203794624108e+01 7.252511614176884613e+00 -4.068985370103129640e+01 -1.041794663216916206e+01 1.669353203794624108e+01 -1.041794663216916206e+01 -4.860287318728990158e+01
-4.912748985931095547e+01 7.328227102151734229e+00 1.649465371653112200e+01 7.328227102151734229e+00 -4.043517083125628631e+01 -1.041536629763492172e+01 1.649465371653112200e+01 -1.041536629763492172e+01 -4.780722510803435199e+01
-4.873822521297027066e+01 7.402151760934909674e+00 1.627626883628626686e+01 7.402151760934909674e+00 -4.011572926716300458e+01 -1.040300379934401320e+01 1.627626883628626686e+01 -1.040300379934401320e+01 -4.683337989609334073e+01
-4.828660890079475365e+01 7.473496085183845672e+00 1.603874326554115726e+01 7.473496085183845672e+00 -3.973466777389385385e+01 -1.038095541843577152e+01 1.603874326554115726e+01 -1.038095541843577152e+01 -4.568823128104341436e+01
-4.777396960250725044e+01 7.542394868493614624e+00 1.578182667333351930e+01 7.542394868493614624e+00 -3.929393123046344982e+01 -1.034912487377086343e+01 1.578182667333351930e+01 -1.034912487377086343e+01 -4.437932770420861317e+01
-4.720616121137948795e+01 7.607846787015108525e+00 1.550578864685349068e+01 7.607846787015108525e+00 -3.879746716358461356e+01 -1.030737737175421209e+01 1.550578864685349068e+01 -1.030737737175421209e+01 -4.291348587025401429e+01
-4.658299116513277482e+01 7.669928865659796813e+00 1.521087951706335417e+01 7.669928865659796813e+00 -3.824750929568998714e+01 -1.025561663124648071e+01 1.521087951706335417e+01 -1.025561663124648071e+01 -4.130037240556909239e+01
1.548656837437503953e+01 2.130423651471538005e-01 8.208826776442279538e+00 2.130423651471538005e-01 2.378826838979619041e+01 2.123644789533118526e+01 8.208826776442279538e+00 2.123644789533118526e+01 1.853213838753324794e+01
1.543213581126304135e+01 2.429387030279717141e-01 8.130300241618048318e+00 2.429387030279717141e-01 2.367271639036571429e+01 2.120267741662438965e+01 8.130300241618048318e+00 2.120267741662438965e+01 1.830225500838458785e+01
1.536673536088115632e+01 2.709068155661806254e-01 8.035764129407935386e+00 2.709068155661806254e-01 2.353844822201340392e+01 2.111986986773674957e+01 8.035764129407935386e+00 2.111986986773674957e+01 1.801284430558566640e+01
1.529052623449620896e+01 2.967344210726860498e-01 7.925129989108151030e+00 2.967344210726860498e-01 2.338631301149563058e+01 2.098867978387631084e+01 7.925129989108151030e+00 2.098867978387631084e+01 1.766381782843268766e+01
1.520168634761013493e+01 3.201915477176354718e-01 7.798415510859453725e+00 3.201915477176354718e-01 2.321546163205602298e+01 2.080963786926580283e+01 7.798415510859453725e+00 2.080963786926580283e+01 1.725450335157685089e+01
1.509871203825851005e+01 3.410836039526922714e-01 7.655726835506390771e+00 3.410836039526922714e-01 2.302529261890881074e+01 2.058338096897251290e+01 7.655726835506390771e+00 2.058338096897251290e+01 1.678442324121769147e+01
1.497994043321010160e+01 3.592513785110354463e-01 7.497063963048961277e+00 3.592513785110354463e-01 2.281488608473457802e+01 2.031061668862675518e+01 7.497063963048961277e+00 2.031061668862675518e+01 1.625255146919126048e+01
1.484282415219576912e+01 3.746241108296335387e-01 7.322533034331713431e+00 3.746241108296335387e-01 2.258249070559830329e+01 1.999203494371808532e+01 7.322533034331713431e+00 1.999203494371808532e+01 1.565703057071797311e+01
1.468499271635396219e+01 3.871664206269707087e-01 7.132240190199193641e+00 3.871664206269707087e-01 2.232640822798722624e+01 1.962829026945454913e+01 7.132240190199193641e+00 1.962829026945454913e+01 1.499603846129977214e+01
1.450370415386720424e+01 3.968075473400155539e-01 6.926167740510644322e+00 3.968075473400155539e-01 2.204448045472888396e+01 1.921996644048115144e+01 6.926167740510644322e+00 1.921996644048115144e+01 1.426693930996373005e+01
5.052589846153145459e+01 -1.076523096696142900e+01 -7.990737426915599073e+00 -1.076523096696142900e+01 6.004852401790466132e+01 2.524811923726604235e+01 -7.990737426915599073e+00 2.524811923726604235e+01 5.335191835879708577e+01
5.026578224737630762e+01 -1.074909920122683005e+01 -7.987214984397601469e+00 -1.074909920122683005e+01 5.979412539160482254e+01 2.505617164498093885e+01 -7.987214984397601469e+00 2.505617164498093885e+01 5.271895075328032476e+01
4.992308432529920736e+01 -1.071219012962520090e+01 -7.955257752277795191e+00 -1.071219012962520090e+01 5.944525043264832931e+01 2.478884037948457575e+01 -7.955257752277795191e+00 2.478884037948457575e+01 5.185499940506162631e+01
4.949979564107119501e+01 -1.065540563357419046e+01 -7.895563412407570425e+00 -1.065540563357419046e+01 5.900377097039259411e+01 2.444821848633112538e+01 -7.895563412407570425e+00 2.444821848633112538e+01 5.076476090416496589e+01
4.899851973916210568e+01 -1.057988582731875837e+01 -7.808999812943533847e+00 -1.057988582731875837e+01 5.847235861582952055e+01 2.403697757651249844e+01 -7.808999812943533847e+00 2.403697757651249844e+01 4.945519505247374781e+01
4.842228557980479309e+01 -1.048716220760585571e+01 -7.696639001608557074e+00 -1.048716220760585571e+01 5.785450177821606133e+01 2.355874219232982725e+01 -7.696639001608557074e+00 2.355874219232982725e+01 4.793503138144560438e+01
4.777471770530039663e+01 -1.037924273683704968e+01 -7.559757225691768667e+00 -1.037924273683704968e+01 5.715433549876899377e+01 2.301785157456615138e+01 -7.559757225691768667e+00 2.301785157456615138e+01 4.621468406895984060e+01
4.705991712360464163e+01 -1.025827151045807817e+01 -7.399954048462211276e+00 -1.025827151045807817e+01 5.637669250055650139e+01 2.241952982879163514e+01 -7.399954048462211276e+00 2.241952982879163514e+01 4.430664332181941489e+01
4.628331213985397596e+01 -1.012680102304720009e+01 -7.218982182863623365e+00 -1.012680102304720009e+01 5.552802208654630789e+01 2.176951155949210914e+01 -7.218982182863623365e+00 2.176951155949210914e+01 4.222620709086334045e+01
4.545039912570690177e+01 -9.987400785813196791e+00 -7.018730474883915882e+00 -9.987400785813196791e+00 5.461513090894710842e+01 2.107424606963530422e+01 -7.018730474883915882e+00 2.107424606963530422e+01 3.999037498998284690e+01
5.018920328767817551e+01 6.738523742877817746e+00 2.323358991169771315e+01 6.738523742877817746e+00 2.965326597064288094e+01 1.653846147836536318e+01 2.323358991169771315e+01 1.653846147836536318e+01 5.366336447696266276e+01
5.004253921963187679e+01 6.744217759637262333e+00 2.308882384923789743e+01 6.744217759637262333e+00 2.963357847633218967e+01 1.664454273605343815e+01 2.308882384923789743e+01 1.664454273605343815e+01 5.344474874259247343e+01
4.978774059694485032e+01 6.730327809663465111e+00 2.287635075112941152e+01 6.730327809663465111e+00 2.954440672296004422e+01 1.669967117104260623e+01 2.287635075112941152e+01 1.669967117104260623e+01 5.298738116003915621e+01
4.942706777172463717e+01 6.697181730285002743e+00 2.259749922128279565e+01 6.697181730285002743e+00 2.938573345593018971e+01 1.670370874656294191e+01 2.259749922128279565e+01 1.670370874656294191e+01 5.229680045469597616e+01
4.896298815123366666e+01 6.645469705351501055e+00 2.225433981124693616e+01 6.645469705351501055e+00 2.915716181952909025e+01 1.665670722640316015e+01 2.225433981124693616e+01 1.665670722640316015e+01 5.137681989233213642e+01
4.839865932658398862e+01 6.576123483059962638e+00 2.184944345586170655e+01 6.576123483059962638e+00 2.885805339369584388e+01 1.655932228522041783e+01 2.184944345586170655e+01 1.655932228522041783e+01 5.023240879666499126e+01
4.773794632733353183e+01 6.490609704090849696e+00 2.138605401922036719e+01 6.490609704090849696e+00 2.848799406812067403e+01 1.641260645338539703e+01 2.138605401922036719e+01 1.641260645338539703e+01 4.887005489588103302e+01
4.698616356912444303e+01 6.390602064279514494e+00 2.086795025789963276e+01 6.390602064279514494e+00 2.804743246230583154e+01 1.621828519052217032e+01 2.086795025789963276e+01 1.621828519052217032e+01 4.729850627027433774e+01
4.614922937846729667e+01 6.278084842193642601e+00 2.029939405717097500e+01 6.278084842193642601e+00 2.753702425090846617e+01 1.597851532116083106e+01 2.029939405717097500e+01 1.597851532116083106e+01 4.552858155168784293e+01
4.523447695876441088e+01 6.155266626152046783e+00 1.968554454131037090e+01 6.155266626152046783e+00 2.695852940274514253e+01 1.569610934448862238e+01 1.968554454131037090e+01 1.569610934448862238e+01 4.357296286835848775e+01
-4.930032206451879517e+01 -1.122631862691847360e+01 -5.791341860075813308e+00 -1.122631862691847360e+01 -3.833871199099861826e+01 -2.804659316496783461e+00 -5.791341860075813308e+00 -2.804659316496783461e+00 -5.793690546876874237e+01
-4.928405452069176818e+01 -1.120573874011245330e+01 -5.704267184656141687e+00 -1.120573874011245330e+01 -3.827735736120368415e+01 -2.843162378809262592e+00 -5.704267184656141687e+00 -2.843162378809262592e+00 -5.782143478489361854e+01
-4.919006854558701036e+01 -1.117982617917615507e+01 -5.612167859604690001e+00 -1.117982617917615507e+01 -3.814273140382810112e+01 -2.879336005851837577e+00 -5.612167859604690001e+00 -2.879336005851837577e+00 -5.749300366336817092e+01
-4.901919195504422788e+01 -1.114848468645379675e+01 -5.514485590517930191e+00 -1.114848468645379675e+01 -3.793535391021308811e+01 -2.913276455280287447e+00 -5.514485590517930191e+00 -2.913276455280287447e+00 -5.695501962520705064e+01
-4.877117447915838966e+01 -1.111184902266347230e+01 -5.411008610553142084e+00 -1.111184902266347230e+01 -3.765539814413904196e+01 -2.944829714845364599e+00 -5.411008610553142084e+00 -2.944829714845364599e+00 -5.620809871940726055e+01
-4.844796052257628105e+01 -1.106961116330668204e+01 -5.301621410523387645e+00 -1.106961116330668204e+01 -3.730448123422311113e+01 -2.973803269235505642e+00 -5.301621410523387645e+00 -2.973803269235505642e+00 -5.525765062622370749e+01
-4.805016613429490491e+01 -1.102182886297689635e+01 -5.186054468992479904e+00 -1.102182886297689635e+01 -3.688435506980048473e+01 -3.000023854670303969e+00 -5.186054468992479904e+00 -3.000023854670303969e+00 -5.410598552939513439e+01
-4.758158386595202671e+01 -1.096871388851683093e+01 -5.064019012993076885e+00 -1.096871388851683093e+01 -3.639771486523306265e+01 -3.023221949713573053e+00 -5.064019012993076885e+00 -3.023221949713573053e+00 -5.276138158731873062e+01
-4.704504369262762253e+01 -1.090966944246064152e+01 -4.935592048649802166e+00 -1.090966944246064152e+01 -3.584889221503097900e+01 -3.043051026804500125e+00 -4.935592048649802166e+00 -3.043051026804500125e+00 -5.123444639366157816e+01
-4.644195097609610201e+01 -1.084542708299226987e+01 -4.800311539214904499e+00 -1.084542708299226987e+01 -3.523798337685002480e+01 -3.059318570631522238e+00 -4.800311539214904499e+00 -3.059318570631522238e+00 -4.952829869647098349e+01
2.360326776313200980e+00 1.272395403997544427e+01 1.137016982028897161e+01 1.272395403997544427e+01 -1.759368105487025247e+01 -1.073279632760188385e+01 1.137016982028897161e+01 -1.073279632760188385e+01 -2.745233908161643921e+00
2.280595752464317894e+00 1.270764998586574634e+01 1.137995590427866688e+01 1.270764998586574634e+01 -1.768858416042704107e+01 -1.071702174445431588e+01 1.137995590427866688e+01 -1.071702174445431588e+01 -2.989794719807118639e+00
2.203658144381150041e+00 1.267783529341206439e+01 1.136838057358936283e+01 1.267783529341206439e+01 -1.776263706464757419e+01 -1.068441363623491824e+01 1.136838057358936283e+01 -1.068441363623491824e+01 -3.220680574534156904e+00
2.131138880188852447e+00 1.263456473547255143e+01 1.133527950964660391e+01 1.263456473547255143e+01 -1.781468953751067730e+01 -1.063550147390582445e+01 1.133527950964660391e+01 -1.063550147390582445e+01 -3.432560247482699722e+00
2.063074475126192908e+00 1.257789308490535873e+01 1.128068922768915883e+01 1.257789308490535873e+01 -1.784523453473970633e+01 -1.057059563699655591e+01 1.128068922768915883e+01 -1.057059563699655591e+01 -3.625415481033364085e+00
1.998917200611657785e+00 1.250811246362062512e+01 1.120444540914257558e+01 1.250811246362062512e+01 -1.785505713396817029e+01 -1.049009779313355217e+01 1.120444540914257558e+01 -1.049009779313355217e+01 -3.799757488528895166e+00
1.937827206153594162e+00 1.242546022067033995e+01 1.110662108448438623e+01 1.242546022067033995e+01 -1.784578226332122242e+01 -1.039411748803312463e+01 1.110662108448438623e+01 -1.039411748803312463e+01 -3.956572181416015965e+00
1.878709034588976978e+00 1.233022847796464383e+01 1.098719799609520642e+01 1.233022847796464383e+01 -1.781845060710373119e+01 -1.028291032836663632e+01 1.098719799609520642e+01 -1.028291032836663632e+01 -4.096845471141449480e+00
1.820357683038478003e+00 1.222263632693614177e+01 1.084610311349750411e+01 1.222263632693614177e+01 -1.777510701868668264e+01 -1.015634851079840750e+01 1.084610311349750411e+01 -1.015634851079840750e+01 -4.222348346785421036e+00
1.761294284332012072e+00 1.210314020806942814e+01 1.068342772478819569e+01 1.210314020806942814e+01 -1.771724862285954316e+01 -1.001448680818658765e+01 1.068342772478819569e+01 -1.001448680818658765e+01 -4.334523160279245779e+00
3.499180339045531696e+01 -1.504989782984900692e+01 9.045262698876964436e+00 -1.504989782984900692e+01 2.501903722308913558e+01 -1.456688546019710273e+01 9.045262698876964436e+00 -1.456688546019710273e+01 -3.067088934465403427e-01
3.504553598575976281e+01 -1.504442245726064264e+01 8.895209320836388045e+00 -1.504442245726064264e+01 2.508768184598954676e+01 -1.464169207797187511e+01 8.895209320836388045e+00 -1.464169207797187511e+01 -1.537681806648346083e-01
3.510296577798883533e+01 -1.502227448711221491e+01 8.721810785071795635e+00 -1.502227448711221491e+01 2.517169624467658195e+01 -1.468672745765365306e+01 8.721810785071795635e+00 -1.468672745765365306e+01 9.489472106520019032e-03
3.516025472462077062e+01 -1.498378842769690422e+01 8.525243148579594532e+00 -1.498378842769690422e+01 2.526696068543424545e+01 -1.470230850183597404e+01 8.525243148579594532e+00 -1.470230850183597404e+01 1.753175570254663362e-01
3.521699789456384622e+01 -1.492915794171076094e+01 8.305964159550454085e+00 -1.492915794171076094e+01 2.537307023717078636e+01 -1.468847042191811525e+01 8.305964159550454085e+00 -1.468847042191811525e+01 3.430470575056448479e-01
3.527178683184676089e+01 -1.485864711464839871e+01 8.064607623171450967e+00 -1.485864711464839871e+01 2.548856362681599919e+01 -1.464526603499900581e+01 8.064607623171450967e+00 -1.464526603499900581e+01 5.105652895901308108e-01
3.532360040589033190e+01 -1.477266087760156665e+01 7.801842556028943498e+00 -1.477266087760156665e+01 2.561240211809107237e+01 -1.457274815817756952e+01 7.801842556028943498e+00 -1.457274815817756952e+01 6.759180206187691553e-01
3.537087170942652392e+01 -1.467158655596236017e+01 7.518461214606781517e+00 -1.467158655596236017e+01 2.574301880372793860e+01 -1.447098721425236256e+01 7.518461214606781517e+00 -1.447098721425236256e+01 8.365876355428910616e-01
3.541242116057937750e+01 -1.455598753211929974e+01 7.215273461088447249e+00 -1.455598753211929974e+01 2.587916367905209469e+01 -1.434001841462267279e+01 7.215273461088447249e+00 -1.434001841462267279e+01 9.905846903030590678e-01
3.544662903498191753e+01 -1.442639197706161092e+01 6.893018734858870289e+00 -1.442639197706161092e+01 2.601925223109583740e+01 -1.417984175928849844e+01 6.893018734858870289e+00 -1.417984175928849844e+01 1.135338752751681834e+00
1.703041503854058192e+01 5.531166834061876258e+00 7.073225638051462205e+00 5.531166834061876258e+00 -1.403255117146082753e+01 -1.912893431538507372e+01 7.073225638051462205e+00 -1.912893431538507372e+01 -2.673314133348775101e+01
1.699058460540142690e+01 5.613249944330812369e+00 7.225025665584539070e+00 5.613249944330812369e+00 -1.400304714691330865e+01 -1.919582831672028433e+01 7.225025665584539070e+00 -1.919582831672028433e+01 -2.675168151681452500e+01
1.698311753746038733e+01 5.692801536444126675e+00 7.365005870937777033e+00 5.692801536444126675e+00 -1.392262136148006491e+01 -1.923671506678768139e+01 7.365005870937777033e+00 -1.923671506678768139e+01 -2.666471749384266587e+01
1.701029037982143777e+01 5.769439150824354101e+00 7.493821899101119399e+00 5.769439150824354101e+00 -1.378925224310877340e+01 -1.925172205211309162e+01 7.493821899101119399e+00 -1.925172205211309162e+01 -2.646989987002486799e+01
1.707124715152548333e+01 5.842743903172360476e+00 7.611728723126210738e+00 5.842743903172360476e+00 -1.360414180761432767e+01 -1.924064893672735366e+01 7.611728723126210738e+00 -1.924064893672735366e+01 -2.616946876574344927e+01
1.716500438508760595e+01 5.912205847384856661e+00 7.718926678982203526e+00 5.912205847384856661e+00 -1.336863776969828344e+01 -1.920322253521799638e+01 7.718926678982203526e+00 -1.920322253521799638e+01 -2.576588284971069598e+01
1.729059682538371945e+01 5.977242187915225102e+00 7.815652527359908674e+00 5.977242187915225102e+00 -1.308414248114469203e+01 -1.913900575092506173e+01 7.815652527359908674e+00 -1.913900575092506173e+01 -2.526201967493803835e+01
1.744638535993896156e+01 6.037342978660175774e+00 7.902051967145982125e+00 6.037342978660175774e+00 -1.275260466456254882e+01 -1.904748863774525347e+01 7.902051967145982125e+00 -1.904748863774525347e+01 -2.466112104165353003e+01
1.763124082238175916e+01 6.091943636433920339e+00 7.978343546670403796e+00 6.091943636433920339e+00 -1.237595483020003329e+01 -1.892785163944113691e+01 7.978343546670403796e+00 -1.892785163944113691e+01 -2.396648338716773452e+01
1.784350588787642522e+01 6.140261029720693209e+00 8.044527265933174576e+00 6.140261029720693209e+00 -1.195568639164535085e+01 -1.877949374810527061e+01 8.044527265933174576e+00 -1.877949374810527061e+01 -2.318182203309033795e+01
1.848496873263720275e+01 3.355205490225013243e+00 -8.907072743263073633e+00 3.355205490225013243e+00 2.118368991961662928e+01 1.893188661811295148e+01 -8.907072743263073633e+00 1.893188661811295148e+01 -2.118726126279607413e+01
1.844854103220686170e+01 3.476059743417432735e+00 -8.676078266416569207e+00 3.476059743417432735e+00 2.107819244209582266e+01 1.872473085698924322e+01 -8.676078266416569207e+00 1.872473085698924322e+01 -2.140473820570838015e+01
1.844904102025198256e+01 3.594521196679624886e+00 -8.433655491395839476e+00 3.594521196679624886e+00 2.100733699341563465e+01 1.848862935939613550e+01 -8.433655491395839476e+00 1.848862935939613550e+01 -2.153355655419096237e+01
1.848771866688537457e+01 3.710143432114156870e+00 -8.180125839087038386e+00 3.710143432114156870e+00 2.097264139442732755e+01 1.822368926562900526e+01 -8.180125839087038386e+00 1.822368926562900526e+01 -2.157201992023358628e+01
1.856362756616447740e+01 3.822051470642067184e+00 -7.916167864694256373e+00 3.822051470642067184e+00 2.097364137051757282e+01 1.793044627716477279e+01 -7.916167864694256373e+00 1.793044627716477279e+01 -2.152132470380136198e+01
1.867578559871495258e+01 3.929548900343362572e+00 -7.642352983126206034e+00 3.929548900343362572e+00 2.100981907692534989e+01 1.760927538503728229e+01 -7.642352983126206034e+00 1.760927538503728229e+01 -2.138288158545017836e+01
1.882315707501474833e+01 4.031939309298051555e+00 -7.359163325712112069e+00 4.031939309298051555e+00 2.108046024501476978e+01 1.726048015341678266e+01 -7.359163325712112069e+00 1.726048015341678266e+01 -2.115886908451948756e+01
1.900445631151927373e+01 4.128490572154347227e+00 -7.067027453633508927e+00 4.128490572154347227e+00 2.118451132854790231e+01 1.688425700617814940e+01 -7.067027453633508927e+00 1.688425700617814940e+01 -2.085180499795080422e+01
1.921787977992291019e+01 4.218488420276361950e+00 -6.766213217628854970e+00 4.218488420276361950e+00 2.132047236338937424e+01 1.648071308361675591e+01 -6.766213217628854970e+00 1.648071308361675591e+01 -2.046506424504870481e+01
1.946203465638566854e+01 4.301361438755384015e+00 -6.456845614709429526e+00 4.301361438755384015e+00 2.148705766599458755e+01 1.604974124543722880e+01 -6.456845614709429526e+00 1.604974124543722880e+01 -2.000211102869724300e+01
1.212244176018462483e+01 1.083463641471396244e+01 9.060687465320587108e+00 1.083463641471396244e+01 1.563659114319924370e+01 -1.613656052058652435e+01 9.060687465320587108e+00 -1.613656052058652435e+01 -1.398630306775094390e+01
1.207538750652570769e+01 1.080307563482078770e+01 9.268396847992544707e+00 1.080307563482078770e+01 1.572817120167335858e+01 -1.600789654573792475e+01 9.268396847992544707e+00 -1.600789654573792475e+01 -1.393546510695710694e+01
1.205957125205651437e+01 1.076527442799418921e+01 9.461240386044364570e+00 1.076527442799418921e+01 1.584634480365973452e+01 -1.585529300204990300e+01 9.461240386044364570e+00 -1.585529300204990300e+01 -1.381919232466884218e+01
1.207402465466668495e+01 1.072130452327938066e+01 9.639020824601715276e+00 1.072130452327938066e+01 1.598890628101811195e+01 -1.567819398942206277e+01 9.639020824601715276e+00 -1.567819398942206277e+01 -1.364139395385018716e+01
1.211826354330103861e+01 1.067118385293766103e+01 9.801325721654629675e+00 1.067118385293766103e+01 1.615429552701512961e+01 -1.547613326906053288e+01 9.801325721654629675e+00 -1.547613326906053288e+01 -1.340393494967665156e+01
1.219135544037182406e+01 1.061507380732076022e+01 9.947706770670531995e+00 1.061507380732076022e+01 1.634036067029444084e+01 -1.524853700860361272e+01 9.947706770670531995e+00 -1.524853700860361272e+01 -1.310950515134367400e+01
1.229303136195949619e+01 1.055306404773519269e+01 1.007773359737815255e+01 1.055306404773519269e+01 1.654570299447441073e+01 -1.499475964664440220e+01 1.007773359737815255e+01 -1.499475964664440220e+01 -1.276054334638845411e+01
1.242180293037591099e+01 1.048528010001007793e+01 1.019095789524491735e+01 1.048528010001007793e+01 1.676786577975653714e+01 -1.471394043464035306e+01 1.019095789524491735e+01 -1.471394043464035306e+01 -1.236051046124246078e+01
1.257664800672680094e+01 1.041179369319062964e+01 1.028707481582867800e+01 1.041179369319062964e+01 1.700476888382968355e+01 -1.440516482726502190e+01 1.028707481582867800e+01 -1.440516482726502190e+01 -1.191259843841761601e+01
1.275611407784662887e+01 1.033269448858335693e+01 1.036560018807425543e+01 1.033269448858335693e+01 1.725452941925703598e+01 -1.406744655014674805e+01 1.036560018807425543e+01 -1.406744655014674805e+01 -1.142019647530017679e+01
8.851426254736390220e+00 2.685881595535141386e+00 -7.566259714397181035e-01 2.685881595535141386e+00 -1.415105553230842972e+01 -1.124674025505324870e+01 -7.566259714397181035e-01 -1.124674025505324870e+01 8.070253707601722226e-01
8.788835208064121218e+00 2.714909327325179866e+00 -7.041764885615925396e-01 2.714909327325179866e+00 -1.442934076851305214e+01 -1.123315164810903788e+01 -7.041764885615925396e-01 -1.123315164810903788e+01 3.506005730265568388e-01
8.725536610429468709e+00 2.740653296956470086e+00 -6.461210249815159123e-01 2.740653296956470086e+00 -1.468478480826539112e+01 -1.119646785205937611e+01 -6.461210249815159123e-01 -1.119646785205937611e+01 -9.319716137839184622e-02
8.662038447138760588e+00 2.762913938772955547e+00 -5.823507267052754344e-01 2.762913938772955547e+00 -1.491573669931988277e+01 -1.113712428288111589e+01 -5.823507267052754344e-01 -1.113712428288111589e+01 -5.205398003248625782e-01
8.597451743905924815e+00 2.781509829450949045e+00 -5.129744477270837821e-01 2.781509829450949045e+00 -1.512185173736152421e+01 -1.105553821421873906e+01 -5.129744477270837821e-01 -1.105553821421873906e+01 -9.314999131423303824e-01
8.530125548485404607e+00 2.796386541993343577e+00 -4.382280383677350510e-01 2.796386541993343577e+00 -1.530356533836716437e+01 -1.095205435038725383e+01 -4.382280383677350510e-01 -1.095205435038725383e+01 -1.327166039772921691e+00
8.458118631313741531e+00 2.807398937741189648e+00 -3.580752139624917008e-01 2.807398937741189648e+00 -1.546267359324131263e+01 -1.082710810736350737e+01 -3.580752139624917008e-01 -1.082710810736350737e+01 -1.710604234386959632e+00
8.379362766500893400e+00 2.814528874362117516e+00 -2.731872408089983106e-01 2.814528874362117516e+00 -1.559964820262555563e+01 -1.068091719313592769e+01 -2.731872408089983106e-01 -1.068091719313592769e+01 -2.082685328938144398e+00
8.292116290139459167e+00 2.817576786200071570e+00 -1.833101262540921261e-01 2.817576786200071570e+00 -1.571713794704573530e+01 -1.051386259668425538e+01 -1.833101262540921261e-01 -1.051386259668425538e+01 -2.447400636547607533e+00
8.194365403336504983e+00 2.816760381243476719e+00 -8.920584825726157741e-02 2.816760381243476719e+00 -1.581546938848448924e+01 -1.032576289468480724e+01 -8.920584825726157741e-02 -1.032576289468480724e+01 -2.806691386778807029e+00
-2.195433766559076716e+01 -9.562654200373980729e+00 6.258423146785696112e+00 -9.562654200373980729e+00 -3.584496996113833944e+01 1.139539561556641978e+01 6.258423146785696112e+00 1.139539561556641978e+01 -2.883207640393780480e+01