-3.348892498000000160e+02
-3.348868656299999884e+02
-3.348795459400000141e+02
-3.348677080799999999e+02
-3.348514482400000247e+02
-3.348312656499999775e+02
-3.348075226799999768e+02
-3.347808555299999966e+02
-3.347517164800000273e+02
-3.347209011300000157e+02
-3.295974881500000038e+02
-3.296447028599999953e+02
-3.297123225099999786e+02
-3.297986381499999879e+02
-3.299015240400000266e+02
-3.300180012000000147e+02
-3.301450073899999893e+02
-3.302787801200000217e+02
-3.304158561599999757e+02
-3.305525435199999720e+02
-3.307005853000000002e+02
-3.307582647899999984e+02
-3.308431474500000036e+02
-3.309531781200000182e+02
-3.310859238799999957e+02
-3.312381927600000040e+02
-3.314063598899999761e+02
-3.315861957199999779e+02
-3.317726786599999969e+02
-3.319611373199999775e+02
-3.259280011600000080e+02
-3.260014895699999897e+02
-3.261288354899999717e+02
-3.263062502899999799e+02
-3.265277964599999905e+02
-3.267857483199999820e+02
-3.270705932399999938e+02
-3.273714794699999970e+02
-3.276777374999999779e+02
-3.279790288799999871e+02
-3.280926582299999836e+02
-3.281215389800000253e+02
-3.281658804599999826e+02
-3.282250437100000227e+02
-3.282983208200000149e+02
-3.283845745300000090e+02
-3.284826513200000022e+02
-3.285907743500000038e+02
-3.287073488999999995e+02
-3.288302341899999988e+02
-3.233771275600000195e+02
-3.234508221300000059e+02
-3.235556756799999789e+02
-3.236900875599999949e+02
-3.238523881599999754e+02
-3.240396913899999731e+02
-3.242480149599999777e+02
-3.244727254599999924e+02
-3.247082844600000158e+02
-3.249488287400000104e+02
-3.299557820900000138e+02
-3.299603815500000223e+02
-3.299705257900000106e+02
-3.299860503699999867e+02
-3.300068388400000003e+02
-3.300324217599999770e+02
-3.300626481200000057e+02
-3.300969680300000277e+02
-3.301348482500000046e+02
-3.301759282400000188e+02
-3.330013957699999878e+02
-3.330000346499999750e+02
-3.330003000899999961e+02
-3.330024855799999841e+02
-3.330064285299999938e+02
-3.330123803399999929e+02
-3.330201692399999729e+02
-3.330299603899999852e+02
-3.330414620700000228e+02
-3.330549906100000044e+02
-3.302337135299999886e+02
-3.302588060499999756e+02
-3.302908003200000167e+02
-3.303286913700000014e+02
-3.303714726800000108e+02
-3.304180715100000043e+02
-3.304670112300000255e+02
-3.305174568699999895e+02
-3.305681794600000103e+02
-3.306183995499999924e+02
-3.269106778199999894e+02
-3.269462715600000138e+02
-3.270136199799999872e+02
-3.271109049699999787e+02
-3.272358030500000154e+02
-3.273850297600000090e+02
-3.275545259300000112e+02
-3.277396927899999923e+02
-3.279354238700000224e+02
-3.281366930799999864e+02
-3.253063292200000092e+02
-3.253261911000000168e+02
-3.253583587400000283e+02
-3.254023623799999996e+02
-3.254577015400000164e+02
-3.255237678999999957e+02
-3.255995778800000267e+02
-3.256836358400000222e+02
-3.257752148000000147e+02
-3.258731086199999822e+02
-3.257345736500000157e+02
-3.257533728199999814e+02
-3.257802538099999765e+02
-3.258146789599999806e+02
-3.258565898699999934e+02
-3.259056451499999980e+02
-3.259615472300000079e+02
-3.260240234299999997e+02
-3.260925019000000020e+02
-3.261667710599999737e+02
-3.321225788599999760e+02
-3.321361344900000176e+02
-3.321517474500000162e+02
-3.321693628300000114e+02
-3.321885963700000275e+02
-3.322088027600000260e+02
-3.322295716699999844e+02
-3.322504736999999864e+02
-3.322708769899999766e+02
-3.322902858100000003e+02
-3.256057125899999960e+02
-3.256225638500000059e+02
-3.256556330500000058e+02
-3.257038739000000191e+02
-3.257658270900000161e+02
-3.258394907499999817e+02
-3.259230266100000222e+02
-3.260137729300000160e+02
-3.261096405800000184e+02
-3.262080399299999840e+02
-3.283413574799999992e+02
-3.283606221300000243e+02
-3.284012094099999786e+02
-3.284627455199999986e+02
-3.285442483200000083e+02
-3.286445129599999859e+02
-3.287619824399999970e+02
-3.288945077800000263e+02
-3.290396521000000121e+02
-3.291945171400000163e+02
-3.266380798600000048e+02
-3.267244255100000032e+02
-3.268734294600000112e+02
-3.270815500799999995e+02
-3.273429921000000036e+02
-3.276495319399999744e+02
-3.279907716999999820e+02
-3.283543943700000227e+02
-3.287270693199999982e+02
-3.290963241700000026e+02
-3.262352826299999720e+02
-3.262424108600000068e+02
-3.262666880699999865e+02
-3.263079185299999949e+02
-3.263657631500000207e+02
-3.264395764099999724e+02
-3.265284778899999765e+02
-3.266317528000000152e+02
-3.267476497200000267e+02
-3.268745534199999838e+02
-3.298177172000000041e+02
-3.298150845100000197e+02
-3.298166504000000145e+02
-3.298223981200000026e+02
-3.298322203100000252e+02
-3.298462620500000071e+02
-3.298642210200000022e+02
-3.298859887500000241e+02
-3.299113019999999779e+02
-3.299400474000000258e+02
-3.275139099500000270e+02
-3.275320154199999934e+02
-3.275667679200000180e+02
-3.276177472400000283e+02
-3.276846888599999943e+02
-3.277665133400000173e+02
-3.278623371099999986e+02
-3.279707352300000025e+02
-3.280897540099999787e+02
-3.282174099800000135e+02
-3.306642243100000087e+02
-3.307162622000000169e+02
-3.307889180899999815e+02
-3.308800991100000033e+02
-3.309870736999999963e+02
-3.311066749500000128e+02
-3.312353491499999905e+02
-3.313697216900000058e+02
-3.315064312000000086e+02
-3.316425555800000211e+02
-3.266335700199999792e+02
-3.266642765099999792e+02
-3.267326028100000030e+02
-3.268361299300000269e+02
-3.269710919500000159e+02
-3.271325357700000040e+02
-3.273140436200000067e+02
-3.275087649999999826e+02
-3.277094949300000053e+02
-3.279094857800000113e+02
-3.279725727300000244e+02
-3.279994218499999761e+02
-3.280435580999999843e+02
-3.281039218999999889e+02
-3.281789181899999903e+02
-3.282669089600000234e+02
-3.283658676399999763e+02
-3.284737024699999779e+02
-3.285878480599999989e+02
-3.287056436099999814e+02
-3.282375463700000182e+02
-3.282651526500000045e+02
-3.283074149700000248e+02
-3.283632379700000001e+02
-3.284314048499999785e+02
-3.285101939099999981e+02
-3.285977781500000106e+02
-3.286922971199999779e+02
-3.287914720399999737e+02
-3.288931144000000018e+02
-3.199507277100000238e+02
-3.199827347500000201e+02
-3.200593500100000028e+02
-3.201799026400000230e+02
-3.203426172499999893e+02
-3.205453359399999727e+02
-3.207838872699999797e+02
-3.210528831099999820e+02
-3.213454410200000098e+02
-3.216534260600000152e+02
-3.290368928299999993e+02
-3.290410957500000109e+02
-3.290568706000000248e+02
-3.290844216799999913e+02
-3.291233871900000167e+02
-3.291738638699999910e+02
-3.292354772200000070e+02
-3.293080381699999748e+02
-3.293910426900000061e+02
-3.294839222200000108e+02
-3.300201577400000019e+02
-3.300362849100000062e+02
-3.300710908699999777e+02
-3.301240091399999983e+02
-3.301939382300000148e+02
-3.302795136400000047e+02
-3.303788814900000261e+02
-3.304898682900000040e+02
-3.306099887999999964e+02
-3.307364257400000156e+02
-3.256052221799999984e+02
-3.256168101999999749e+02
-3.256475716200000079e+02
-3.256968149400000243e+02
-3.257640122600000154e+02
-3.258478358300000082e+02
-3.259467742900000076e+02
-3.260593589200000224e+02
-3.261830472699999746e+02
-3.263155391299999906e+02
-3.314869696200000249e+02
-3.315035816800000248e+02
-3.315272751200000130e+02
-3.315577358599999798e+02
-3.315946292699999844e+02
-3.316372377800000208e+02
-3.316852336900000182e+02
-3.317378240099999971e+02
-3.317942843100000232e+02
-3.318538673699999890e+02
-3.261092037799999730e+02
-3.261393272899999829e+02
-3.261873814599999832e+02
-3.262525664199999937e+02
-3.263342482499999733e+02
-3.264310696699999994e+02
-3.265416369800000211e+02
-3.266641456300000073e+02
-3.267959560200000055e+02
-3.269347569899999826e+02
-3.272768551500000171e+02
-3.273011297400000217e+02
-3.273542363600000158e+02
-3.274353876900000273e+02
-3.275436030899999764e+02
-3.276773063200000138e+02
-3.278344153400000209e+02
-3.280117476799999849e+02
-3.282061676999999804e+02
-3.284132118300000229e+02
-2.973667842400000154e+02
-2.976950116699999853e+02
-2.983670568000000003e+02
-2.993459133399999814e+02
-3.005646004199999766e+02
-3.019236463899999876e+02
-3.033075634400000240e+02
-3.046150679599999762e+02
-3.057809983999999872e+02
-3.067824271599999975e+02
-3.301256025000000136e+02
-3.301288709899999958e+02
-3.301453633699999841e+02
-3.301746838999999909e+02
-3.302167443100000241e+02
-3.302713996499999780e+02
-3.303378416400000219e+02
-3.304153674300000034e+02
-3.305031867000000148e+02
-3.305998845799999799e+02
-3.259595946599999934e+02
-3.259924380200000087e+02
-3.260513879499999916e+02
-3.261353470999999900e+02
-3.262422017800000162e+02
-3.263690909700000020e+02
-3.265131002200000125e+02
-3.266700401400000260e+02
-3.268358967099999859e+02
-3.270061352000000170e+02
-3.303175100400000019e+02
-3.303257581299999970e+02
-3.303376785300000051e+02
-3.303529384000000277e+02
-3.303711744799999792e+02
-3.303920762399999944e+02
-3.304152473600000235e+02
-3.304400263900000141e+02
-3.304660560899999950e+02
-3.304929153900000074e+02
-3.260779244899999867e+02
-3.260986452899999790e+02
-3.261404976599999941e+02
-3.262029678100000183e+02
-3.262853218700000184e+02
-3.263866238300000191e+02
-3.265054151200000092e+02
-3.266397636400000124e+02
-3.267872602099999995e+02
-3.269453578399999856e+02
-3.293819582500000251e+02
-3.293977440900000033e+02
-3.294349578900000211e+02
-3.294923105899999882e+02
-3.295673071800000002e+02
-3.296569398400000068e+02
-3.297575955600000270e+02
-3.298656667800000264e+02
-3.299772080700000174e+02
-3.300887429399999746e+02
-3.289874907799999733e+02
-3.289996294599999942e+02
-3.290334820699999909e+02
-3.290878956999999900e+02
-3.291610809000000017e+02
-3.292502691999999911e+02
-3.293523659699999939e+02
-3.294639336399999934e+02
-3.295813158099999782e+02
-3.297008432999999741e+02
-3.267320942499999887e+02
-3.267438417199999776e+02
-3.267806346500000245e+02
-3.268413104800000042e+02
-3.269240075800000227e+02
-3.270261478900000043e+02
-3.271449797000000217e+02
-3.272771428400000104e+02
-3.274189209099999971e+02
-3.275661508700000013e+02
-3.316665409299999965e+02
-3.316715989300000160e+02
-3.316809803400000192e+02
-3.316940611599999897e+02
-3.317110788200000115e+02
-3.317319231000000173e+02
-3.317563724099999831e+02
-3.317843751899999916e+02
-3.318154135899999915e+02
-3.318492996599999856e+02
-3.300298231300000111e+02
-3.300693055099999924e+02
-3.301225708700000041e+02
-3.301877575500000148e+02
-3.302627523599999790e+02
-3.303454503899999963e+02
-3.304330540700000256e+02
-3.305228479400000197e+02
-3.306124877500000139e+02
-3.306994513000000211e+02
-3.281896030899999914e+02
-3.282228728800000113e+02
-3.282999108600000113e+02
-3.284175682900000197e+02
-3.285708761700000196e+02
-3.287535657000000242e+02
-3.289575033799999915e+02
-3.291740887700000258e+02
-3.293946304300000065e+02
-3.296114031999999838e+02
-3.295918307200000186e+02
-3.296106769400000189e+02
-3.296437575900000070e+02
-3.296901014599999939e+02
-3.297479501899999832e+02
-3.298149402000000237e+02
-3.298885494599999788e+02
-3.299660805400000072e+02
-3.300449251699999991e+02
-3.301222002299999758e+02
-3.141138903899999946e+02
-3.142456700299999852e+02
-3.145580652599999780e+02
-3.150369456500000069e+02
-3.156572407200000043e+02
-3.163820433099999718e+02
-3.171633726499999852e+02
-3.179505680999999981e+02
-3.187005771699999741e+02
-3.193831924300000082e+02
-3.265230676300000141e+02
-3.265180159600000138e+02
-3.265120008399999847e+02
-3.265049757300000124e+02
-3.264973625100000163e+02
-3.264893388500000242e+02
-3.264809730599999966e+02
-3.264724982199999772e+02
-3.264641284499999756e+02
-3.264560051999999928e+02
-3.267436312699999803e+02
-3.267954358700000057e+02
-3.268884615599999961e+02
-3.270194277400000260e+02
-3.271834458299999824e+02
-3.273741438199999720e+02
-3.275838593899999864e+02
-3.278044114699999909e+02
-3.280274411099999838e+02
-3.282453927700000236e+02
-3.276875974199999746e+02
-3.277106904799999825e+02
-3.277412391799999796e+02
-3.277789322599999764e+02
-3.278231057699999837e+02
-3.278732790999999906e+02
-3.279293785300000081e+02
-3.279905306599999903e+02
-3.280561737900000026e+02
-3.281256747099999984e+02
-3.113438487700000223e+02
-3.115704038299999752e+02
-3.119961245700000063e+02
-3.126022262100000262e+02
-3.133566573599999856e+02
-3.142129608399999938e+02
-3.151146954299999834e+02
-3.160055443800000035e+02
-3.168399558599999750e+02
-3.175908489299999928e+02
-3.089162784100000181e+02
-3.091140283899999872e+02
-3.095550415199999748e+02
-3.102133086499999877e+02
-3.110438237800000252e+02
-3.119841318200000160e+02
-3.129627559099999985e+02
-3.139102775499999893e+02
-3.147779351099999872e+02
-3.155416584000000171e+02
-3.235592182400000070e+02
-3.236813042900000141e+02
-3.238827298400000245e+02
-3.241531431700000212e+02
-3.244779336500000113e+02
-3.248387872199999720e+02
-3.252157980599999973e+02
-3.255890629699999863e+02
-3.259425437099999954e+02
-3.262646746799999846e+02
-3.242671541600000182e+02
-3.243430467700000008e+02
-3.244763453799999979e+02
-3.246618563299999778e+02
-3.248924094500000024e+02
-3.251591443199999958e+02
-3.254505164000000264e+02
-3.257550404599999752e+02
-3.260614081900000087e+02
-3.263597195699999816e+02
-3.309679625900000133e+02
-3.309830587399999899e+02
-3.310021851800000263e+02
-3.310249675000000025e+02
-3.310509524999999940e+02
-3.310797723599999927e+02
-3.311108100499999978e+02
-3.311432171299999823e+02
-3.311768207000000075e+02
-3.312111898800000063e+02
-3.315994989600000054e+02
-3.315951929899999868e+02
-3.316011347900000032e+02
-3.316173594499999808e+02
-3.316438502199999903e+02
-3.316801319499999749e+02
-3.317259372099999837e+02
-3.317806743300000107e+02
-3.318435524999999870e+02
-3.319138472099999717e+02
-3.189559982499999933e+02
-3.190118742099999736e+02
-3.191473359799999798e+02
-3.193583309900000131e+02
-3.196377191099999777e+02
-3.199748637700000131e+02
-3.203563649600000076e+02
-3.207658975599999849e+02
-3.211858609999999885e+02
-3.216007165999999984e+02
-3.247366826800000013e+02
-3.247391255900000147e+02
-3.247527715499999772e+02
-3.247772998099999882e+02
-3.248126014900000200e+02
-3.248580198799999721e+02
-3.249129956699999866e+02
-3.249768868300000122e+02
-3.250487000699999953e+02
-3.251274700499999994e+02
-3.170258428500000036e+02
-3.170515383399999791e+02
-3.170860874499999795e+02
-3.171294747599999937e+02
-3.171813138399999730e+02
-3.172409172399999875e+02
-3.173076692899999784e+02
-3.173811257099999921e+02
-3.174602432500000191e+02
-3.175442661299999827e+02
-3.297547097400000098e+02
-3.297626922700000023e+02
-3.297790486999999757e+02
-3.298035712099999728e+02
-3.298359711200000106e+02
-3.298762162500000272e+02
-3.299235021000000074e+02
-3.299770371999999838e+02
-3.300362397399999850e+02
-3.301002390900000023e+02
-3.273176521500000149e+02
-3.273458399799999938e+02
-3.273970569900000100e+02
-3.274706230599999799e+02
-3.275657191299999909e+02
-3.276809695000000033e+02
-3.278146466300000270e+02
-3.279644893700000239e+02
-3.281277384100000063e+02
-3.283013311500000100e+02
-3.229588870800000109e+02
-3.230726622799999745e+02
-3.232899048799999946e+02
-3.236021084000000201e+02
-3.239963300900000149e+02
-3.244543587100000082e+02
-3.249531489899999883e+02
-3.254679704000000129e+02
-3.259752644000000146e+02
-3.264558200600000077e+02
-3.290031035900000234e+02
-3.290260262200000057e+02
-3.290654553100000044e+02
-3.291208377599999721e+02
-3.291917169100000251e+02
-3.292769655600000078e+02
-3.293756185500000129e+02
-3.294860566699999822e+02
-3.296066468399999962e+02
-3.297356469399999810e+02
-3.318303047399999741e+02
-3.318270836799999870e+02
-3.318281453999999826e+02
-3.318335157600000116e+02
-3.318435050200000092e+02
-3.318581011100000069e+02
-3.318776202700000226e+02
-3.319025044499999808e+02
-3.319323886600000151e+02
-3.319677096199999937e+02
-3.294697415599999886e+02
-3.294963053399999922e+02
-3.295479708199999891e+02
-3.296239431299999865e+02
-3.297231314499999826e+02
-3.298441616999999724e+02
-3.299851553199999898e+02
-3.301429653100000223e+02
-3.303141239799999767e+02
-3.304951894499999980e+02
-3.245144581000000130e+02
-3.245290308200000027e+02
-3.245994243499999925e+02
-3.247241435899999829e+02
-3.248994082799999887e+02
-3.251188658699999792e+02
-3.253746941900000138e+02
-3.256572109200000114e+02
-3.259551913700000227e+02
-3.262573624400000085e+02
-3.302438248400000020e+02
-3.302532979900000214e+02
-3.302849512600000139e+02
-3.303382754400000181e+02
-3.304113785999999777e+02
-3.305020951999999852e+02
-3.306074575299999765e+02
-3.307241907399999832e+02
-3.308480756299999825e+02
-3.309750965200000223e+02
-3.284037776200000280e+02
-3.284338330200000087e+02
-3.284718305700000087e+02
-3.285167785300000105e+02
-3.285677849599999831e+02
-3.286238148599999818e+02
-3.286839024199999812e+02
-3.287470695700000078e+02
-3.288126883099999986e+02
-3.288802254199999879e+02
-3.264229976500000134e+02
-3.264499465299999770e+02
-3.265052033000000051e+02
-3.265864351999999826e+02
-3.266908105100000057e+02
-3.268141633399999932e+02
-3.269519701799999893e+02
-3.270988991599999736e+02
-3.272500068900000088e+02
-3.274001823699999818e+02
-3.315156546499999877e+02
-3.315203578699999980e+02
-3.315307538900000282e+02
-3.315464009899999951e+02
-3.315670557799999756e+02
-3.315923565900000085e+02
-3.316219431800000166e+02
-3.316556011100000205e+02
-3.316927508300000227e+02
-3.317331031400000256e+02
-3.225591388400000028e+02
-3.225648328199999924e+02
-3.225787924699999962e+02
-3.226006106899999963e+02
-3.226302603299999987e+02
-3.226673761800000193e+02
-3.227116990600000008e+02
-3.227627117000000112e+02
-3.228201104500000156e+02
-3.228835842799999796e+02
-3.264311520699999960e+02
-3.264518532700000151e+02
-3.264965379199999802e+02
-3.265647402899999747e+02
-3.266559679000000074e+02
-3.267690479699999742e+02
-3.269025097400000277e+02
-3.270543644100000051e+02
-3.272217482699999778e+02
-3.274015663199999722e+02
-3.272207807400000092e+02
-3.272406351600000107e+02
-3.272712899200000152e+02
-3.273122061199999848e+02
-3.273632054500000095e+02
-3.274235100399999965e+02
-3.274923523599999839e+02
-3.275686153300000001e+02
-3.276514472299999738e+02
-3.277396741900000166e+02
-3.276634548100000188e+02
-3.276549448000000098e+02
-3.276735166099999788e+02
-3.277192498900000146e+02
-3.277914180600000122e+02
-3.278889261499999748e+02
-3.280092262100000085e+02
-3.281495744499999887e+02
-3.283059873400000015e+02
-3.284740053900000021e+02
-3.169685282899999947e+02
-3.170511384800000201e+02
-3.172504362899999819e+02
-3.175597915299999840e+02
-3.179673817099999837e+02
-3.184554719299999874e+02
-3.190000286100000153e+02
-3.195723829300000034e+02
-3.201436027500000137e+02
-3.206904916899999876e+02
-3.202720557399999848e+02
-3.204557241499999805e+02
-3.207673163800000111e+02
-3.211959115099999735e+02
-3.217237517899999943e+02
-3.223257143600000063e+02
-3.229701876899999888e+02
-3.236238286600000151e+02
-3.242563430899999730e+02
-3.248444968499999845e+02
-3.185906292000000235e+02
-3.186415945900000111e+02
-3.187477409699999953e+02
-3.189064512799999989e+02
-3.191137806300000079e+02
-3.193633625699999925e+02
-3.196471199499999898e+02
-3.199552318799999853e+02
-3.202766503500000113e+02
-3.206004550200000267e+02
-3.302674974799999745e+02
-3.302906412699999805e+02
-3.303207206100000235e+02
-3.303575894200000107e+02
-3.304010518900000193e+02
-3.304507866700000136e+02
-3.305063559000000168e+02
-3.305672504600000252e+02
-3.306332603800000243e+02
-3.307034066400000256e+02
-3.276206694300000208e+02
-3.276428524099999890e+02
-3.276820646200000056e+02
-3.277379494300000147e+02
-3.278097071099999766e+02
-3.278964513099999749e+02
-3.279966137200000276e+02
-3.281084156100000087e+02
-3.282301349900000105e+02
-3.283593339700000229e+02
-3.325252098500000102e+02
-3.325269611599999848e+02
-3.325306233700000007e+02
-3.325361888900000054e+02
-3.325435780099999761e+02
-3.325526380000000017e+02
-3.325634998400000200e+02
-3.325761063400000239e+02
-3.325903177299999811e+02
-3.326060194099999876e+02
-3.266590866000000233e+02
-3.266761231099999918e+02
-3.267084383499999944e+02
-3.267554745599999819e+02
-3.268166770000000270e+02
-3.268911251399999855e+02
-3.269778479899999866e+02
-3.270755510199999776e+02
-3.271827328599999873e+02
-3.272975161699999944e+02
-3.307696304099999907e+02
-3.307628486799999905e+02
-3.307634204700000282e+02
-3.307717015900000206e+02
-3.307876403099999720e+02
-3.308112353700000199e+02
-3.308425094799999897e+02
-3.308809519000000137e+02
-3.309262664299999983e+02
-3.309781923200000051e+02
-3.238966734399999723e+02
-3.240142365099999893e+02
-3.242102382799999987e+02
-3.244755237900000111e+02
-3.247971284899999773e+02
-3.251589949199999978e+02
-3.255424586899999895e+02
-3.259291183000000274e+02
-3.263035427400000117e+02
-3.266537592700000232e+02
-3.237177797900000087e+02
-3.237495569499999988e+02
-3.238161340300000006e+02
-3.239168860500000164e+02
-3.240507326599999942e+02
-3.242158964999999853e+02
-3.244095785200000250e+02
-3.246280922299999929e+02
-3.248665390099999968e+02
-3.251198290400000133e+02
-3.239182986600000049e+02
-3.239659898699999871e+02
-3.240740171200000077e+02
-3.242382883399999969e+02
-3.244530357500000264e+02
-3.247102879299999927e+02
-3.249998921499999938e+02
-3.253109280599999806e+02
-3.256313096100000166e+02
-3.259499571999999716e+02
-3.245695576300000198e+02
-3.246369739799999934e+02
-3.247684288699999797e+02
-3.249576200999999855e+02
-3.251966262099999767e+02
-3.254747680500000229e+02
-3.257794536399999856e+02
-3.260973853799999915e+02
-3.264151563699999770e+02
-3.267221156900000096e+02
-3.208863715699999943e+02
-3.209103798200000028e+02
-3.209687582700000235e+02
-3.210601245999999946e+02
-3.211826981199999977e+02
-3.213333680900000218e+02
-3.215084473900000148e+02
-3.217030015899999853e+02
-3.219116739400000142e+02
-3.221288736899999776e+02
-3.300439255699999990e+02
-3.300480974500000002e+02
-3.300565201300000240e+02
-3.300687892299999930e+02
-3.300844822999999906e+02
-3.301031196600000044e+02
-3.301241186500000140e+02
-3.301470076800000015e+02
-3.301711247800000137e+02
-3.301960581000000161e+02
-3.301226345900000183e+02
-3.301300333899999941e+02
-3.301496023099999775e+02
-3.301809848799999827e+02
-3.302237180500000022e+02
-3.302767477500000268e+02
-3.303390977799999746e+02
-3.304093936799999938e+02
-3.304861666200000059e+02
-3.305675570399999970e+02
-3.279579879799999844e+02
-3.279798848699999780e+02
-3.280191186999999786e+02
-3.280753732300000252e+02
-3.281480773700000100e+02
-3.282362259099999733e+02
-3.283385054500000138e+02
-3.284530618000000004e+02
-3.285779311599999915e+02
-3.287108592600000065e+02
-3.262819935800000053e+02
-3.262901457500000220e+02
-3.263199931300000003e+02
-3.263708188499999778e+02
-3.264414573399999995e+02
-3.265299677200000019e+02
-3.266336916600000109e+02
-3.267497575200000028e+02
-3.268745808599999805e+02
-3.270046665500000245e+02
-3.294221844799999985e+02
-3.294368406199999981e+02
-3.294607738199999858e+02
-3.294938707200000181e+02
-3.295357354500000042e+02
-3.295862666200000035e+02
-3.296449352000000204e+02
-3.297116883799999982e+02
-3.297857994099999814e+02
-3.298667435799999907e+02
-3.275333626899999899e+02
-3.275798027299999831e+02
-3.276386353799999824e+02
-3.277091312300000254e+02
-3.277903180999999790e+02
-3.278812046099999975e+02
-3.279806423100000075e+02
-3.280871976600000153e+02
-3.281999060699999973e+02
-3.283171543299999939e+02
-3.271419262000000003e+02
-3.271901777300000163e+02
-3.272677503900000033e+02
-3.273720769799999744e+02
-3.274998514999999770e+02
-3.276466178200000172e+02
-3.278069376500000089e+02
-3.279752961199999959e+02
-3.281462657800000216e+02
-3.283144998800000280e+02
-3.307859747300000208e+02
-3.307972065499999985e+02
-3.308162849600000186e+02
-3.308428626400000212e+02
-3.308766311599999881e+02
-3.309169277400000055e+02
-3.309633287799999835e+02
-3.310150194199999873e+02
-3.310707974100000115e+02
-3.311296826399999986e+02
-3.285469452699999806e+02
-3.285550636199999985e+02
-3.285765195800000242e+02
-3.286112751100000082e+02
-3.286588043900000002e+02
-3.287184893799999941e+02
-3.287893368699999996e+02
-3.288703188900000214e+02
-3.289603823200000079e+02
-3.290582181699999751e+02
-3.311268393700000274e+02
-3.311371446800000058e+02
-3.311513846899999862e+02
-3.311694656799999734e+02
-3.311911211799999819e+02
-3.312164712200000167e+02
-3.312449637099999791e+02
-3.312765196799999785e+02
-3.313109454699999787e+02
-3.313479923900000017e+02
-3.270264478799999779e+02
-3.270478760600000214e+02
-3.270918322800000055e+02
-3.271579253500000277e+02
-3.272454503499999987e+02
-3.273530311100000176e+02
-3.274794502199999897e+02
-3.276228443300000208e+02
-3.277806239399999981e+02
-3.279496368800000141e+02
-3.282426641399999880e+02
-3.282562884600000075e+02
-3.282694434399999750e+02
-3.282819229400000154e+02
-3.282933216900000275e+02
-3.283033607500000244e+02
-3.283117212600000130e+02
-3.283183373699999947e+02
-3.283231501600000115e+02
-3.283260493099999735e+02
-3.267852677500000027e+02
-3.267785544000000186e+02
-3.267723556299999927e+02
-3.267671449000000052e+02
-3.267629746200000227e+02
-3.267600513799999931e+02
-3.267586090500000182e+02
-3.267587550000000078e+02
-3.267604916799999728e+02
-3.267639522499999885e+02
-3.276344701900000018e+02
-3.276769690599999763e+02
-3.277370735299999751e+02
-3.278139721800000075e+02
-3.279065044800000237e+02
-3.280133525499999791e+02
-3.281329232300000172e+02
-3.282631329700000151e+02
-3.284016131100000280e+02
-3.285458287899999732e+02
-3.181157821799999965e+02
-3.182868678199999977e+02
-3.185783029099999908e+02
-3.189776176299999975e+02
-3.194651664500000265e+02
-3.200153440299999943e+02
-3.205976776599999880e+02
-3.211816302099999803e+02
-3.217409441600000264e+02
-3.222575300099999822e+02
-3.294093868900000075e+02
-3.294323764100000176e+02
-3.294699719999999843e+02
-3.295215799800000127e+02
-3.295865665599999943e+02
-3.296635763400000201e+02
-3.297512218599999869e+02
-3.298478950499999769e+02
-3.299512773100000231e+02
-3.300592608599999949e+02
-3.323475222899999721e+02
-3.323495791400000030e+02
-3.323557359600000041e+02
-3.323660029600000030e+02
-3.323805421499999966e+02
-3.323992470300000264e+02
-3.324223498499999891e+02
-3.324496775499999899e+02
-3.324814069299999915e+02
-3.325174940800000059e+02
-3.241187102999999752e+02
-3.241456673100000216e+02
-3.242534693100000140e+02
-3.244380708099999993e+02
-3.246919444700000099e+02
-3.250037962600000014e+02
-3.253594435200000135e+02
-3.257415649299999814e+02
-3.261325320299999930e+02
-3.265156062899999938e+02
-3.272637603700000000e+02
-3.273319065399999772e+02
-3.274214578099999926e+02
-3.275297246000000086e+02
-3.276532846200000222e+02
-3.277886170900000025e+02
-3.279314970899999935e+02
-3.280781018600000039e+02
-3.282241976999999906e+02
-3.283664027099999885e+02
-3.312249033400000258e+02
-3.312290806600000224e+02
-3.312346603699999719e+02
-3.312415819799999781e+02
-3.312495880399999919e+02
-3.312588804800000162e+02
-3.312692230100000188e+02
-3.312808044000000223e+02
-3.312935835600000019e+02
-3.313075964500000055e+02
-3.265530036800000175e+02
-3.265833097500000122e+02
-3.266193061700000158e+02
-3.266605228999999895e+02
-3.267066035000000284e+02
-3.267573348199999828e+02
-3.268121336799999881e+02
-3.268704055700000026e+02
-3.269317542699999990e+02
-3.269956859100000202e+02
-3.284958832500000199e+02
-3.285159833999999819e+02
-3.285545392099999731e+02
-3.286106320299999766e+02
-3.286829487800000038e+02
-3.287697980500000199e+02
-3.288688796100000218e+02
-3.289778740200000016e+02
-3.290943795700000010e+02
-3.292151527299999998e+02
-3.172283340700000167e+02
-3.172596651599999973e+02
-3.173271257399999854e+02
-3.174291686799999752e+02
-3.175634469500000137e+02
-3.177264749000000279e+02
-3.179141148499999758e+02
-3.181209872200000177e+02
-3.183414278999999851e+02
-3.185695595000000253e+02
-3.287292355800000223e+02
-3.287402755800000023e+02
-3.287659304200000179e+02
-3.288060140000000047e+02
-3.288599373199999718e+02
-3.289269543199999930e+02
-3.290059574800000064e+02
-3.290957118599999944e+02
-3.291948603600000069e+02
-3.293014817800000174e+02
-3.210342346200000065e+02
-3.211451818499999717e+02
-3.213684504500000116e+02
-3.216951641399999744e+02
-3.221115414999999871e+02
-3.225965997100000209e+02
-3.231248588600000176e+02
-3.236680876799999851e+02
-3.242003855500000213e+02
-3.247012316099999794e+02
-3.222773790100000042e+02
-3.224085684699999774e+02
-3.226603534700000182e+02
-3.230204653900000267e+02
-3.234693202899999847e+02
-3.239812615199999755e+02
-3.245253119700000184e+02
-3.250708435500000064e+02
-3.255914023600000178e+02
-3.260688029799999867e+02
-3.265078254300000253e+02
-3.265115443500000083e+02
-3.265314540200000124e+02
-3.265672683799999731e+02
-3.266183478199999968e+02
-3.266842092100000059e+02
-3.267637915999999905e+02
-3.268561945800000217e+02
-3.269594217900000217e+02
-3.270719557200000054e+02
-3.296891683100000137e+02
-3.297066148200000271e+02
-3.297370332400000166e+02
-3.297798227399999860e+02
-3.298345025300000088e+02
-3.298999018700000079e+02
-3.299751842900000156e+02
-3.300587066300000174e+02
-3.301489969599999768e+02
-3.302447676099999967e+02
-3.301443813600000112e+02
-3.301566883400000165e+02
-3.301742578399999957e+02
-3.301962855900000022e+02
-3.302226613799999768e+02
-3.302523926299999744e+02
-3.302848559000000250e+02
-3.303194330399999785e+02
-3.303554592200000002e+02
-3.303919285800000125e+02
-3.253785788199999729e+02
-3.254159714200000053e+02
-3.254774187699999857e+02
-3.255622682499999883e+02
-3.256698265300000230e+02
-3.257984923999999864e+02
-3.259466483200000084e+02
-3.261117212699999754e+02
-3.262904603700000052e+02
-3.264795494499999791e+02
-3.181301416100000097e+02
-3.182391084700000192e+02
-3.184759303800000225e+02
-3.188301253899999779e+02
-3.192845463699999868e+02
-3.198141643700000145e+02
-3.203887931099999946e+02
-3.209759022399999822e+02
-3.215453123899999923e+02
-3.220743802599999981e+02
-3.277871041500000047e+02
-3.277806918699999983e+02
-3.277992084900000123e+02
-3.278418337800000018e+02
-3.279071990099999994e+02
-3.279932818799999836e+02
-3.280969621200000006e+02
-3.282147554700000001e+02
-3.283428407299999776e+02
-3.284766727200000105e+02
-3.325515602199999989e+02
-3.325516813300000081e+02
-3.325598086100000046e+02