-3.347550975699999753e+02
-3.347514205300000185e+02
-3.347418161400000258e+02
-3.347270167199999946e+02
-3.347074958200000196e+02
-3.346836378200000013e+02
-3.346555719799999906e+02
-3.346240839800000231e+02
-3.345896726099999796e+02
-3.345532376099999965e+02
-3.343874088800000095e+02
-3.343801200799999833e+02
-3.343685695199999941e+02
-3.343530878400000006e+02
-3.343339169500000025e+02
-3.343115873099999931e+02
-3.342869237500000281e+02
-3.342604721100000233e+02
-3.342331840100000022e+02
-3.342057798499999990e+02
-3.329458122300000014e+02
-3.329550348800000279e+02
-3.329670168999999760e+02
-3.329817626000000246e+02
-3.329989938400000256e+02
-3.330188316499999814e+02
-3.330412091399999781e+02
-3.330658114899999873e+02
-3.330927634299999909e+02
-3.331216914899999892e+02
-3.336906098599999950e+02
-3.336909034399999996e+02
-3.336869956200000047e+02
-3.336789011199999777e+02
-3.336668548299999770e+02
-3.336512402199999769e+02
-3.336324067300000138e+02
-3.336108203399999752e+02
-3.335870431399999916e+02
-3.335612724700000058e+02
-3.331783764599999813e+02
-3.331933664599999929e+02
-3.332114066299999990e+02
-3.332323334100000238e+02
-3.332556198799999834e+02
-3.332811037499999998e+02
-3.333083871800000111e+02
-3.333373150099999975e+02
-3.333674407799999813e+02
-3.333988729999999805e+02
-3.334993742500000167e+02
-3.334848503499999879e+02
-3.334724442400000157e+02
-3.334624411699999769e+02
-3.334553823200000124e+02
-3.334517308299999740e+02
-3.334519941899999935e+02
-3.334564777599999843e+02
-3.334655500000000075e+02
-3.334796351400000276e+02
-3.336777524199999903e+02
-3.336828562100000113e+02
-3.336859541000000036e+02
-3.336872913199999857e+02
-3.336869549499999721e+02
-3.336851482800000213e+02
-3.336822265499999958e+02
-3.336782830800000283e+02
-3.336736379499999998e+02
-3.336685429699999759e+02
-3.343153078500000106e+02
-3.343110629299999914e+02
-3.343030510500000219e+02
-3.342914219099999968e+02
-3.342765792499999975e+02
-3.342590076500000009e+02
-3.342392874899999811e+02
-3.342178099500000030e+02
-3.341951326000000222e+02
-3.341718087699999842e+02
-3.335333601199999976e+02
-3.335323185699999726e+02
-3.335318972200000189e+02
-3.335319893000000206e+02
-3.335325559199999930e+02
-3.335337984899999810e+02
-3.335359276899999941e+02
-3.335387891699999727e+02
-3.335423281199999792e+02
-3.335471690599999874e+02
-3.344480899900000281e+02
-3.344411385700000210e+02
-3.344291136400000255e+02
-3.344126777600000082e+02
-3.343922795700000279e+02
-3.343684536700000081e+02
-3.343417370299999902e+02
-3.343128521799999930e+02
-3.342822249600000077e+02
-3.342508698199999913e+02
-3.341027280999999789e+02
-3.340969765099999904e+02
-3.340888656700000183e+02
-3.340787411700000007e+02
-3.340665405099999816e+02
-3.340527478000000201e+02
-3.340374480799999901e+02
-3.340211332599999992e+02
-3.340042086199999858e+02
-3.339873176300000068e+02
-3.345707280400000059e+02
-3.345698484100000201e+02
-3.345637328500000081e+02
-3.345522294900000020e+02
-3.345358019600000148e+02
-3.345149688399999945e+02
-3.344901101500000209e+02
-3.344618461399999774e+02
-3.344310527900000238e+02
-3.343984513600000241e+02
-3.335785644399999796e+02
-3.335823714800000062e+02
-3.335840531299999725e+02
-3.335837027100000114e+02
-3.335813437400000225e+02
-3.335771065600000043e+02
-3.335712941799999953e+02
-3.335640963999999826e+02
-3.335561203699999737e+02
-3.335477226900000005e+02
-3.332315321400000130e+02
-3.332356081099999869e+02
-3.332395733800000244e+02
-3.332433632899999907e+02
-3.332469174199999884e+02
-3.332506796000000122e+02
-3.332548060299999975e+02
-3.332595871500000158e+02
-3.332660223899999892e+02
-3.332740862800000059e+02
-3.319418636099999844e+02
-3.319714856100000020e+02
-3.320094638799999984e+02
-3.320554949799999918e+02
-3.321088211900000147e+02
-3.321689267200000018e+02
-3.322349787399999741e+02
-3.323061180899999840e+02
-3.323816591199999948e+02
-3.324603439399999729e+02
-3.337013484600000197e+02
-3.337003413400000227e+02
-3.336983368499999756e+02
-3.336952709400000003e+02
-3.336915701300000023e+02
-3.336876137699999845e+02
-3.336838763399999834e+02
-3.336804136499999913e+02
-3.336779180500000166e+02
-3.336772513999999887e+02
-3.333541719400000147e+02
-3.333629598699999974e+02
-3.333733674999999721e+02
-3.333856520300000170e+02
-3.333998124099999814e+02
-3.334161847299999977e+02
-3.334349331000000234e+02
-3.334563285500000234e+02
-3.334809489400000189e+02
-3.335091177300000140e+02
-3.338529862500000149e+02
-3.338456868399999848e+02
-3.338374256700000160e+02
-3.338283923899999763e+02
-3.338187845200000083e+02
-3.338087797800000089e+02
-3.337985413000000108e+02
-3.337883289700000091e+02
-3.337787543599999935e+02
-3.337697976700000027e+02
-3.332522897299999727e+02
-3.332526407999999947e+02
-3.332475235300000236e+02
-3.332373074399999950e+02
-3.332220096199999944e+02
-3.332024846400000229e+02
-3.331791771200000198e+02
-3.331528524600000196e+02
-3.331243231600000172e+02
-3.330942293800000016e+02
-3.328989239800000064e+02
-3.329002462700000251e+02
-3.329045314300000200e+02
-3.329125055100000168e+02
-3.329243174000000067e+02
-3.329397572299999979e+02
-3.329590524899999764e+02
-3.329823937500000284e+02
-3.330096346099999778e+02
-3.330407195500000057e+02
-3.343995335399999931e+02
-3.343953259599999797e+02
-3.343852569000000017e+02
-3.343698853700000200e+02
-3.343493597099999874e+02
-3.343242487399999732e+02
-3.342951843600000075e+02
-3.342628999799999860e+02
-3.342279884299999821e+02
-3.341912845599999855e+02
-3.322708716600000116e+02
-3.322886050000000182e+02
-3.323128105700000106e+02
-3.323432331899999781e+02
-3.323794386800000211e+02
-3.324208599199999981e+02
-3.324668801400000007e+02
-3.325172875299999760e+02
-3.325714301200000023e+02
-3.326288412999999764e+02
-3.336574402200000122e+02
-3.336695248500000162e+02
-3.336805620299999759e+02
-3.336903459200000270e+02
-3.336987396000000103e+02
-3.337057030500000110e+02
-3.337112874800000100e+02
-3.337156891500000029e+02
-3.337188244999999824e+02
-3.337208469199999854e+02
-3.338244622899999854e+02
-3.338193327600000089e+02
-3.338134810999999900e+02
-3.338069333099999767e+02
-3.338003180499999871e+02
-3.337939882100000091e+02
-3.337881919899999730e+02
-3.337834442899999772e+02
-3.337799911999999836e+02
-3.337783210000000054e+02
-3.338331836300000077e+02
-3.338330331600000136e+02
-3.338307841600000074e+02
-3.338265656300000046e+02
-3.338206849399999783e+02
-3.338133625500000221e+02
-3.338047728999999890e+02
-3.337952882100000238e+02
-3.337852739499999757e+02
-3.337750136700000212e+02
-3.345717514899999969e+02
-3.345681726000000253e+02
-3.345601417899999888e+02
-3.345481083099999751e+02
-3.345324942600000213e+02
-3.345135120799999982e+02
-3.344917588399999886e+02
-3.344676429099999950e+02
-3.344413752199999976e+02
-3.344135785999999939e+02
-3.336045195799999874e+02
-3.336115923500000235e+02
-3.336177658199999883e+02
-3.336230437799999891e+02
-3.336272113499999818e+02
-3.336304417200000216e+02
-3.336328236599999855e+02
-3.336346530100000223e+02
-3.336360065299999746e+02
-3.336371441599999912e+02
-3.336358467100000098e+02
-3.336467310799999950e+02
-3.336566576299999838e+02
-3.336653159499999788e+02
-3.336727023299999928e+02
-3.336787548600000264e+02
-3.336835343399999942e+02
-3.336870729600000232e+02
-3.336894622699999786e+02
-3.336907449299999939e+02
-3.344394985399999882e+02
-3.344433208699999795e+02
-3.344441776200000049e+02
-3.344419178100000067e+02
-3.344365759500000195e+02
-3.344283166800000231e+02
-3.344173847399999886e+02
-3.344041261300000087e+02
-3.343886698900000169e+02
-3.343716177100000095e+02
-3.342465632899999832e+02
-3.342477388899999937e+02
-3.342440169100000276e+02
-3.342354143000000022e+02
-3.342224753699999837e+02
-3.342054564000000028e+02
-3.341851761600000259e+02
-3.341620253099999900e+02
-3.341368126699999834e+02
-3.341102275800000143e+02
-3.335849615399999948e+02
-3.335853919200000064e+02
-3.335831964800000264e+02
-3.335783712100000002e+02
-3.335714023699999871e+02
-3.335625888000000145e+02
-3.335523023399999829e+02
-3.335413298199999872e+02
-3.335298406900000145e+02
-3.335186056699999995e+02
-3.343470198100000061e+02
-3.343454710600000226e+02
-3.343391613100000086e+02
-3.343282902099999774e+02
-3.343131258600000137e+02
-3.342941768300000263e+02
-3.342719586700000036e+02
-3.342471568799999773e+02
-3.342203302099999860e+02
-3.341922587600000156e+02
-3.340555193499999973e+02
-3.340620862700000089e+02
-3.340676858300000163e+02
-3.340724195199999826e+02
-3.340763643199999819e+02
-3.340794348800000080e+02
-3.340817723900000260e+02
-3.340834969599999908e+02
-3.340846950499999934e+02
-3.340856721999999763e+02
-3.336709826200000180e+02
-3.336761776700000155e+02
-3.336789862100000050e+02
-3.336793953800000168e+02
-3.336775169800000072e+02
-3.336735131400000114e+02
-3.336677565699999946e+02
-3.336607241300000055e+02
-3.336527233599999818e+02
-3.336442530400000237e+02
-3.340506114199999956e+02
-3.340579469499999732e+02
-3.340624432500000012e+02
-3.340638002800000095e+02
-3.340623990199999866e+02
-3.340582808999999997e+02
-3.340518493600000056e+02
-3.340434325200000103e+02
-3.340335768200000075e+02
-3.340226559899999756e+02
-3.341411859400000139e+02
-3.341417134600000054e+02
-3.341416896200000224e+02
-3.341407101500000181e+02
-3.341393680900000049e+02
-3.341379294500000015e+02
-3.341364143399999875e+02
-3.341349294600000235e+02
-3.341341869199999906e+02
-3.341343211999999880e+02
-3.345380919300000073e+02
-3.345394953699999974e+02
-3.345363007799999764e+02
-3.345288593899999796e+02
-3.345172523800000022e+02
-3.345017685400000005e+02
-3.344824972000000116e+02
-3.344603092699999820e+02
-3.344355648000000087e+02
-3.344088061599999833e+02
-3.340998172500000010e+02
-3.341046559600000023e+02
-3.341064834700000006e+02
-3.341053146099999935e+02
-3.341013183599999934e+02
-3.340948939799999948e+02
-3.340861814400000185e+02
-3.340758055700000000e+02
-3.340643681099999753e+02
-3.340524075700000139e+02
-3.335508299699999952e+02
-3.335594778299999916e+02
-3.335700658900000235e+02
-3.335821731600000248e+02
-3.335958771900000102e+02
-3.336108628700000054e+02
-3.336277218500000004e+02
-3.336461628600000040e+02
-3.336661999599999717e+02
-3.336878179400000022e+02
-3.341465056299999787e+02
-3.341441942199999744e+02
-3.341386204899999939e+02
-3.341301648900000032e+02
-3.341193433999999911e+02
-3.341065703200000030e+02
-3.340922306599999843e+02
-3.340772055499999738e+02
-3.340620609900000204e+02
-3.340473711399999956e+02
-3.344701946299999804e+02
-3.344646880999999894e+02
-3.344535349700000211e+02
-3.344373219299999960e+02
-3.344162277500000187e+02
-3.343909028200000080e+02
-3.343619026399999825e+02
-3.343299705499999845e+02
-3.342956093000000237e+02
-3.342600157300000205e+02
-3.341842109500000220e+02
-3.341829114700000218e+02
-3.341789808099999846e+02
-3.341724145000000021e+02
-3.341631747600000040e+02
-3.341521080800000050e+02
-3.341388327399999980e+02
-3.341239689600000133e+02
-3.341078223800000160e+02
-3.340909744499999761e+02
-3.340549220999999989e+02
-3.340495910999999865e+02
-3.340414339899999732e+02
-3.340306515300000001e+02
-3.340174870100000248e+02
-3.340024553700000070e+02
-3.339860345199999756e+02
-3.339690697999999998e+02
-3.339518406099999766e+02
-3.339349167999999963e+02
-3.343102486299999896e+02
-3.343080830200000264e+02
-3.343012226000000169e+02
-3.342897153100000196e+02
-3.342740190900000243e+02
-3.342545911899999851e+02
-3.342318746700000247e+02
-3.342066545600000040e+02
-3.341793376100000046e+02
-3.341505810900000029e+02
-3.341373795999999743e+02
-3.341335083000000168e+02
-3.341268280200000049e+02
-3.341177057300000115e+02
-3.341069762100000275e+02
-3.340949791599999799e+02
-3.340822572700000137e+02
-3.340692540399999757e+02
-3.340565932599999996e+02
-3.340449481399999740e+02
-3.332974501799999985e+02
-3.332987030499999719e+02
-3.333022154899999805e+02
-3.333083702000000130e+02
-3.333174098299999741e+02
-3.333294524500000193e+02
-3.333447689199999786e+02
-3.333637963799999966e+02
-3.333866257299999916e+02
-3.334134689800000046e+02
-3.339800162199999818e+02
-3.339731975799999759e+02
-3.339649309499999958e+02
-3.339554848700000207e+02
-3.339451479800000016e+02
-3.339341792999999825e+02
-3.339232281199999761e+02
-3.339126822399999810e+02
-3.339028213600000186e+02
-3.338939707200000271e+02
-3.341758427600000232e+02
-3.341805558799999858e+02
-3.341834025499999825e+02
-3.341844821700000239e+02
-3.341835535100000243e+02
-3.341808523999999920e+02
-3.341764398899999833e+02
-3.341704296699999759e+02
-3.341629796000000283e+02
-3.341544231899999886e+02
-3.342619950600000038e+02
-3.342672741900000233e+02
-3.342681015100000081e+02
-3.342644433500000218e+02
-3.342560107400000220e+02
-3.342437037799999757e+02
-3.342277265800000237e+02
-3.342083266600000115e+02
-3.341861589200000253e+02
-3.341617834799999969e+02
-3.336002108299999804e+02
-3.336027091400000018e+02
-3.336065384500000164e+02
-3.336117843900000253e+02
-3.336184074799999735e+02
-3.336262577699999952e+02
-3.336352107100000239e+02
-3.336455600900000036e+02
-3.336570204600000125e+02
-3.336697704300000282e+02
-3.342799363899999889e+02
-3.342765487899999926e+02
-3.342686213800000132e+02
-3.342565048199999751e+02
-3.342406487700000071e+02
-3.342216077699999914e+02
-3.342000838899999735e+02
-3.341763476799999921e+02
-3.341511133500000028e+02
-3.341249376000000098e+02
-3.338795199900000057e+02
-3.338896097699999927e+02
-3.338996615500000189e+02
-3.339095605800000044e+02
-3.339190883699999972e+02
-3.339281478999999990e+02
-3.339367530200000260e+02
-3.339449152000000254e+02
-3.339525805100000184e+02
-3.339599938000000066e+02
-3.343574113700000225e+02
-3.343550852000000191e+02
-3.343488731099999995e+02
-3.343388821099999859e+02
-3.343252122100000179e+02
-3.343085612400000173e+02
-3.342892547000000150e+02
-3.342680567400000200e+02
-3.342452842100000225e+02
-3.342213846000000217e+02
-3.339200255599999991e+02
-3.339214134800000124e+02
-3.339193116800000212e+02
-3.339136630699999841e+02
-3.339047798099999795e+02
-3.338931836300000100e+02
-3.338793119800000113e+02
-3.338637102999999797e+02
-3.338469643799999744e+02
-3.338298472299999844e+02
-3.333887505600000054e+02
-3.334020451499999922e+02
-3.334183711499999845e+02
-3.334378368299999806e+02
-3.334600723099999868e+02
-3.334848342899999807e+02
-3.335117043399999943e+02
-3.335401919299999918e+02
-3.335702973799999995e+02
-3.336018517399999723e+02
-3.332784200799999894e+02
-3.332774820800000271e+02
-3.332737205600000152e+02
-3.332670407599999862e+02
-3.332580121199999894e+02
-3.332468827600000054e+02
-3.332340478200000007e+02
-3.332199925799999960e+02
-3.332051531399999931e+02
-3.331902453999999807e+02
-3.331377240200000074e+02
-3.331411265899999989e+02
-3.331452173199999720e+02
-3.331504932199999871e+02
-3.331570620100000042e+02
-3.331652851900000201e+02
-3.331750282799999923e+02
-3.331869977700000049e+02
-3.332008514999999989e+02
-3.332169218700000215e+02
-3.337894846099999882e+02
-3.337892172400000277e+02
-3.337829259200000251e+02
-3.337713823000000275e+02
-3.337549241599999732e+02
-3.337341611800000010e+02
-3.337100843000000054e+02
-3.336833265800000277e+02
-3.336552111899999886e+02
-3.336263795699999832e+02
-3.340441801200000214e+02
-3.340349252799999817e+02
-3.340235193799999820e+02
-3.340103014399999779e+02
-3.339956811900000275e+02
-3.339800829499999963e+02
-3.339637818599999832e+02
-3.339471286799999916e+02
-3.339308856200000264e+02
-3.339153995799999848e+02
-3.339988741700000219e+02
-3.340035259699999983e+02
-3.340071736599999781e+02
-3.340099432800000159e+02
-3.340118487600000208e+02
-3.340133368499999733e+02
-3.340144349199999851e+02
-3.340160095900000101e+02
-3.340180988700000171e+02
-3.340213073599999802e+02
-3.341979897400000254e+02
-3.341956485599999951e+02
-3.341901082499999802e+02
-3.341814362499999902e+02
-3.341697650899999985e+02
-3.341556118899999888e+02
-3.341390502900000001e+02
-3.341208477700000117e+02
-3.341013005699999781e+02
-3.340806784800000173e+02
-3.344555643200000077e+02
-3.344577721200000155e+02
-3.344569393900000023e+02
-3.344532906000000025e+02
-3.344468702899999926e+02
-3.344378551699999775e+02
-3.344263825200000042e+02
-3.344128485800000021e+02
-3.343975388100000146e+02
-3.343811708700000054e+02
-3.341900493900000129e+02
-3.341843217699999968e+02
-3.341751759100000072e+02
-3.341627241300000151e+02
-3.341474553599999808e+02
-3.341298259899999721e+02
-3.341102330200000097e+02
-3.340892853600000194e+02
-3.340672629100000108e+02
-3.340449186600000075e+02
-3.340011795500000176e+02
-3.340015114899999844e+02
-3.340025365899999770e+02
-3.340042783399999848e+02
-3.340067372099999830e+02
-3.340102819100000033e+02
-3.340146027800000184e+02
-3.340196624299999826e+02
-3.340257696799999962e+02
-3.340325301400000058e+02
-3.336411590199999750e+02
-3.336420513799999981e+02
-3.336409939999999779e+02
-3.336379296499999896e+02
-3.336330486300000189e+02
-3.336269834700000274e+02
-3.336202453000000219e+02
-3.336135098899999889e+02
-3.336068426699999918e+02
-3.336010670800000071e+02
-3.331338505400000258e+02
-3.331383687599999917e+02
-3.331440578099999925e+02
-3.331512644399999772e+02
-3.331602242399999909e+02
-3.331712603199999876e+02
-3.331848139400000264e+02
-3.332009767999999781e+02
-3.332203989800000272e+02
-3.332430762199999776e+02
-3.337539767499999925e+02
-3.337557822100000067e+02
-3.337541265300000077e+02
-3.337490296299999954e+02
-3.337405643899999745e+02
-3.337293633799999952e+02
-3.337157775200000174e+02
-3.337004268499999853e+02
-3.336836104399999954e+02
-3.336662041800000225e+02
-3.321092214099999751e+02
-3.321115543000000230e+02
-3.321182931600000074e+02
-3.321293591300000116e+02
-3.321448460299999965e+02
-3.321652991799999768e+02
-3.321910663200000045e+02
-3.322218036799999936e+02
-3.322573992800000156e+02
-3.322979868400000214e+02
-3.335584157999999775e+02
-3.335505542799999716e+02
-3.335427964099999940e+02
-3.335353826499999741e+02
-3.335286675799999898e+02
-3.335230817600000250e+02
-3.335190580700000282e+02
-3.335169891200000052e+02
-3.335170354800000041e+02
-3.335195637200000078e+02
-3.340493384000000106e+02
-3.340468251699999769e+02
-3.340400736600000187e+02
-3.340293446200000176e+02
-3.340148776500000167e+02
-3.339970912900000144e+02
-3.339765822200000116e+02
-3.339540096200000221e+02
-3.339300603300000034e+02
-3.339052455500000178e+02
-3.340623104800000078e+02
-3.340638315499999749e+02
-3.340622707800000057e+02
-3.340576448400000231e+02
-3.340501135700000077e+02
-3.340399738300000081e+02
-3.340278621900000076e+02
-3.340140291000000161e+02
-3.339979970900000126e+02
-3.339810592200000201e+02
-3.325580656299999873e+02
-3.325603569500000276e+02
-3.325695286499999952e+02
-3.325851528900000176e+02
-3.326073738100000128e+02
-3.326359061900000142e+02
-3.326705344100000161e+02
-3.327108342600000128e+02
-3.327561617900000215e+02
-3.328063078299999802e+02
-3.329606150000000184e+02
-3.329582319599999778e+02
-3.329597418600000083e+02
-3.329649181699999758e+02
-3.329737789900000280e+02
-3.329860822200000143e+02
-3.330016594900000086e+02
-3.330203354500000046e+02
-3.330418986199999836e+02
-3.330663152700000182e+02
-3.335216230600000245e+02
-3.335359668899999974e+02
-3.335507063499999845e+02
-3.335656880000000228e+02
-3.335807785999999737e+02
-3.335964490700000056e+02
-3.336126817800000026e+02
-3.336294832500000211e+02
-3.336471335300000192e+02
-3.336657362099999773e+02
-3.332893483500000116e+02
-3.332943173799999954e+02
-3.333022383599999898e+02
-3.333132273400000258e+02
-3.333271406200000229e+02
-3.333437479099999905e+02
-3.333630790199999865e+02
-3.333849378499999716e+02
-3.334091365099999962e+02
-3.334356237700000065e+02
-3.331970107399999961e+02
-3.331980472600000098e+02
-3.331958824899999740e+02
-3.331908005500000058e+02
-3.331833082300000228e+02
-3.331737524100000201e+02
-3.331629866600000014e+02
-3.331518881299999748e+02
-3.331410428199999956e+02
-3.331313302400000111e+02
-3.342711999300000230e+02
-3.342714906900000074e+02
-3.342689659700000107e+02
-3.342635983399999873e+02
-3.342557858399999873e+02
-3.342460165499999789e+02
-3.342345195500000159e+02
-3.342216199299999744e+02
-3.342080585300000166e+02
-3.341943741000000045e+02
-3.332951807200000189e+02
-3.332976385800000116e+02
-3.332988122200000021e+02
-3.332988853100000028e+02
-3.332978370000000155e+02
-3.332962839200000076e+02
-3.332944259399999964e+02
-3.332928595399999949e+02
-3.332915736599999832e+02
-3.332913337599999863e+02
-3.331991043599999784e+02
-3.331935523999999873e+02
-3.331837191999999845e+02
-3.331700875600000131e+02
-3.331529494600000021e+02
-3.331327298699999915e+02
-3.331101038300000141e+02
-3.330857202799999754e+02
-3.330603897999999958e+02
-3.330346089700000221e+02
-3.341898710899999969e+02
-3.341891249299999913e+02
-3.341842170599999804e+02
-3.341753599099999974e+02
-3.341629809400000113e+02
-3.341474102500000072e+02
-3.341292003099999874e+02
-3.341090468699999860e+02
-3.340874775899999918e+02
-3.340652084800000239e+02
-3.330748627699999815e+02
-3.330763488299999722e+02
-3.330755492600000025e+02
-3.330726087099999972e+02
-3.330679338099999995e+02
-3.330615877999999839e+02
-3.330542827099999954e+02
-3.330464833600000247e+02
-3.330382365699999809e+02
-3.330300649600000042e+02
-3.337295223899999996e+02
-3.337276687799999877e+02
-3.337261373399999798e+02
-3.337249114400000281e+02
-3.337241393599999810e+02
-3.337238405300000181e+02
-3.337242591300000072e+02
-3.337253002699999911e+02
-3.337270650099999898e+02
-3.337297780999999759e+02
-3.341019279600000118e+02
-3.340979198699999984e+02
-3.340915033399999743e+02
-3.340832278600000222e+02
-3.340734100299999909e+02
-3.340625318200000038e+02
-3.340511614800000189e+02
-3.340397091799999885e+02
-3.340290348099999846e+02
-3.340196135300000151e+02
-3.335229538599999728e+02
-3.335156502599999726e+02
-3.335105134199999952e+02
-3.335078242600000067e+02
-3.335075174199999992e+02
-3.335098402400000168e+02
-3.335148449000000141e+02
-3.335227238900000089e+02
-3.335334866499999862e+02
-3.335472113899999727e+02
-3.330295167900000024e+02
-3.330076335499999800e+02
-3.329854925500000036e+02
-3.329636949299999742e+02
-3.329431295900000123e+02
-3.329244613600000093e+02
-3.329083321699999942e+02
-3.328954835100000196e+02
-3.328862300600000026e+02
-3.328808284799999910e+02
-3.336253201600000011e+02
-3.336351270399999862e+02
-3.336428973899999733e+02
-3.336484723899999949e+02
-3.336521175299999982e+02
-3.336538846999999919e+02
-3.336543471300000192e+02
-3.336538197099999934e+02
-3.336530109500000094e+02
-3.336523979899999972e+02
-3.335596505299999990e+02
-3.335608440500000142e+02
-3.335615088700000115e+02
-3.335617757200000142e+02
-3.335616763200000037e+02
-3.335614166299999965e+02
-3.335612770800000249e+02
-3.335615034100000003e+02
-3.335623116699999855e+02
-3.335640088299999775e+02
-3.339879314400000112e+02
-3.339926810200000205e+02
-3.339945181400000251e+02
-3.339934934099999850e+02
-3.339898637200000167e+02
-3.339836708299999941e+02
-3.339750702800000113e+02
-3.339643254599999977e+02
-3.339520462500000235e+02
-3.339385782599999857e+02
-3.342068143999999847e+02
-3.342157139199999847e+02
-3.342225936599999727e+02
-3.342275708199999826e+02
-3.342304759099999956e+02
-3.342315670400000158e+02
-3.342316112400000065e+02
-3.342309969699999783e+02
-3.342298840899999846e+02
-3.342287047099999882e+02
-3.345014662799999883e+02
-3.344982214099999851e+02
-3.344908526899999970e+02
-3.344794803500000171e+02
-3.344642335199999934e+02
-3.344455991400000130e+02
-3.344239800099999798e+02
-3.344004171700000256e+02
-3.343756011400000148e+02
-3.343496841599999811e+02
-3.340543662800000106e+02
-3.340465537300000278e+02
-3.340342610299999819e+02
-3.340179666799999723e+02
-3.339979877299999771e+02
-3.339749757899999736e+02
-3.339493893499999899e+02
-3.339221949199999813e+02
-3.338937311399999999e+02
-3.338646116900000038e+02
-3.346954878600000143e+02
-3.346919725899999776e+02
-3.346825233600000047e+02
-3.346676447099999905e+02
-3.346475773700000218e+02
-3.346229083999999716e+02
-3.345939763200000243e+02
-3.345614694899999790e+02
-3.345263621400000034e+02
-3.344892392699999846e+02
-3.339707868200000007e+02
-3.339614582500000211e+02
-3.339516291900000056e+02
-3.339413827999999853e+02
-3.339309276000000182e+02
-3.339205098900000053e+02
-3.339106898900000147e+02
-3.339019061299999862e+02
-3.338946324099999856e+02
-3.338890595400000052e+02
-3.341560261299999866e+02
-3.341553705399999785e+02
-3.341506617200000164e+02
-3.341421049699999912e+02
-3.341294953400000054e+02
-3.341133451700000023e+02
-3.340941269499999748e+02
-3.340721503799999823e+02
-3.340483375100000103e+02
-3.340230680399999983e+02
-3.334968010200000208e+02
-3.334978063199999951e+02
-3.334943751199999724e+02
-3.334867405300000200e+02
-3.334752637999999934e+02
-3.334605801100000235e+02
-3.334431199800000059e+02
-3.334233516200000054e+02
-3.334019824000000085e+02
-3.333798268599999801e+02
-3.328028423800000155e+02
-3.328099892000000182e+02
-3.328178698899999972e+02
-3.328266170599999896e+02
-3.328361398399999871e+02
-3.328463230799999906e+02
-3.328573618099999862e+02
-3.328694484600000010e+02
-3.328825057000000243e+02
-3.328971003799999835e+02
-3.338550962900000059e+02
-3.338534827899999868e+02
-3.338500160500000220e+02
-3.338448012900000208e+02
-3.338379906999999776e+02
-3.338297392399999808e+02
-3.338205756400000155e+02
-3.338114052899999820e+02
-3.338028340600000092e+02
-3.337951273900000047e+02
-3.322477731600000084e+02
-3.322600920400000177e+02
-3.322787019099999952e+02
-3.323034508100000153e+02
-3.323344634200000201e+02
-3.323713998999999717e+02
-3.324143023799999810e+02
-3.324616857400000072e+02
-3.325131015900000193e+02
-3.325683230399999957e+02
-3.327777934200000232e+02
-3.327743524699999966e+02
-3.327746941999999990e+02
-3.327790864699999815e+02
-3.327873685900000282e+02
-3.327997398800000042e+02
-3.328166048499999761e+02
-3.328377240199999960e+02
-3.328631365599999867e+02
-3.328926889599999868e+02
-3.344216440399999897e+02
-3.344205010599999923e+02
-3.344166409100000124e+02
-3.344099843299999861e+02
-3.344005914499999790e+02
-3.343885409900000241e+02
-3.343743432800000051e+02
-3.343587391699999785e+02
-3.343416854700000158e+02
-3.343235760000000028e+02
-3.341785374500000216e+02
-3.341736153300000183e+02
-3.341653695200000129e+02
-3.341539525100000105e+02
-3.341400428900000179e+02
-3.341237172500000270e+02
-3.341056798199999776e+02
-3.340864635300000032e+02
-3.340670149100000117e+02
-3.340478372700000023e+02
-3.334197973600000182e+02
-3.334287439999999947e+02
-3.334367630699999836e+02
-3.334439952899999753e+02
-3.334503075100000160e+02
-3.334560053899999730e+02
-3.334612765800000034e+02
-3.334666654800000174e+02
-3.334721149900000228e+02
-3.334782132400000023e+02
-3.336160507199999756e+02
-3.336226854999999887e+02
-3.336298599300000092e+02
-3.336376069500000199e+02
-3.336459721300000183e+02
-3.336551742199999921e+02
-3.336651022300000022e+02
-3.336756156999999803e+02
-3.336869414099999744e+02
-3.336991592200000127e+02
-3.337128252499999803e+02
-3.337125775700000077e+02
-3.337132306699999731e+02
-3.337147901700000148e+02
-3.337175372899999957e+02
-3.337217354200000159e+02
-3.337274579300000141e+02
-3.337351507800000263e+02
-3.337449953600000185e+02
-3.337571762100000115e+02
-3.343045035999999754e+02
-3.343097516700000256e+02
-3.343107346400000210e+02
-3.343075046299999826e+02
-3.343003761300000178e+02
-3.342898780799999940e+02
-3.342765088699999865e+02
-3.342608838500000275e+02
-3.342436751199999776e+02
-3.342258548899999937e+02
-3.339120900199999937e+02
-3.339161823900000172e+02
-3.339199502100000245e+02
-3.339230791900000099e+02
-3.339258212299999968e+02
-3.339283804600000281e+02
-3.339307815999999889e+02
-3.339334391400000186e+02
-3.339367191299999718e+02
-3.339407078699999829e+02
-3.337404376399999819e+02
-3.337403001999999788e+02
-3.337362248300000260e+02
-3.337284918199999879e+02
-3.337175292599999921e+02
-3.337034155299999725e+02
-3.336865247599999975e+02
-3.336674762499999929e+02
-3.336466252499999996e+02
-3.336243387399999847e+02
-3.337171284400000104e+02
-3.337108719500000120e+02
-3.337026739300000031e+02
-3.336928240400000050e+02
-3.336817131799999743e+02
-3.336692537600000037e+02
-3.336560765599999741e+02
-3.336423661900000184e+02
-3.336282295500000146e+02
-3.336142166000000202e+02
-3.335641353999999978e+02
-3.335706540599999812e+02
-3.335773198499999808e+02
-3.335838735899999961e+02
-3.335903871699999854e+02
-3.335968752300000233e+02
-3.336032821800000079e+02
-3.336094899500000110e+02
-3.336155401099999835e+02
-3.336216876500000126e+02
-3.340340766200000076e+02
-3.340312576300000273e+02
-3.340246433199999956e+02
-3.340144657499999994e+02
-3.340014073400000143e+02
-3.339854718899999853e+02
-3.339670019100000218e+02
-3.339466067899999757e+02
-3.339248543799999993e+02
-3.339024417399999720e+02
-3.330366652199999749e+02
-3.330543670000000134e+02
-3.330756780400000139e+02
-3.331001331300000174e+02
-3.331271780399999898e+02
-3.331564633200000003e+02
-3.331878023699999858e+02
-3.332205296000000203e+02
-3.332546062100000199e+02
-3.332895700099999772e+02
-3.339726199099999917e+02
-3.339748594299999809e+02
-3.339749709199999756e+02
-3.339729892600000198e+02
-3.339691910099999745e+02
-3.339636329100000012e+02
-3.339564019800000096e+02
-3.339476724300000114e+02
-3.339375263000000018e+02
-3.339264223800000195e+02
-3.336519278700000086e+02
-3.336517748800000049e+02
-3.336465628299999935e+02
-3.336368181199999867e+02
-3.336232807900000239e+02
-3.336063144400000056e+02
-3.335873140200000080e+02
-3.335670025499999838e+02
-3.335465404500000091e+02
-3.335268072000000075e+02
-3.342418043200000284e+02
-3.342432785500000136e+02
-3.342422225099999764e+02
-3.342384329600000115e+02
-3.342320755800000143e+02
-3.342236386299999822e+02
-3.342132486300000096e+02
-3.342008878099999833e+02
-3.341868279899999834e+02
-3.341717487000000233e+02
-3.335006790400000227e+02
-3.335029345500000204e+02
-3.335069368200000213e+02
-3.335126474799999983e+02
-3.335200865699999895e+02
-3.335287640099999749e+02
-3.335387787299999900e+02
-3.335504326299999889e+02
-3.335634949399999982e+02
-3.335781607100000201e+02
-3.345471139800000060e+02
-3.345441257400000268e+02
-3.345364097300000026e+02