 vasp.6.1.1 19Jun20 (build Dec 21 2021 08:45:49) complex                        
  
 executed on             LinuxIFC date 2023.10.08  15:50:22
 running on   40 total cores
 distrk:  each k-point on   40 cores,    1 groups
 distr:  one band on NCORE=   1 cores,   40 groups


--------------------------------------------------------------------------------------------------------


 INCAR:
 POTCAR:   PAW_PBE Te 08Apr2002                   
 POTCAR:   PAW_PBE Mo 08Apr2002                   
 -----------------------------------------------------------------------------
|                                                                             |
|           W    W    AA    RRRRR   N    N  II  N    N   GGGG   !!!           |
|           W    W   A  A   R    R  NN   N  II  NN   N  G    G  !!!           |
|           W    W  A    A  R    R  N N  N  II  N N  N  G       !!!           |
|           W WW W  AAAAAA  RRRRR   N  N N  II  N  N N  G  GGG   !            |
|           WW  WW  A    A  R   R   N   NN  II  N   NN  G    G                |
|           W    W  A    A  R    R  N    N  II  N    N   GGGG   !!!           |
|                                                                             |
|     For optimal performance we recommend to set                             |
|       NCORE = 4 - approx SQRT(number of cores).                             |
|     NCORE specifies how many cores store one orbital (NPAR=cpu/NCORE).      |
|     This setting can greatly improve the performance of VASP for DFT.       |
|     The default, NCORE=1 might be grossly inefficient on modern             |
|     multi-core architectures or massively parallel machines. Do your        |
|     own testing!!!!                                                         |
|     Unfortunately you need to use the default for GW and RPA                |
|     calculations (for HF NCORE is supported but not extensively tested      |
|     yet).                                                                   |
|                                                                             |
 -----------------------------------------------------------------------------

 POTCAR:   PAW_PBE Te 08Apr2002                   
   VRHFIN =Te: s2p4                                                                                 
   LEXCH  = PE                                                                                      
   EATOM  =   223.2721 eV,   16.4100 Ry                                                             
                                                                                                    
   TITEL  = PAW_PBE Te 08Apr2002                                                                    
   LULTRA =        F    use ultrasoft PP ?                                                          
   IUNSCR =        1    unscreen: 0-lin 1-nonlin 2-no                                               
   RPACOR =    2.200    partial core radius                                                         
   POMASS =  127.600; ZVAL   =    6.000    mass and valenz                                          
   RCORE  =    2.300    outmost cutoff radius                                                       
   RWIGS  =    2.900; RWIGS  =    1.535    wigner-seitz radius (au A)                               
   ENMAX  =  174.982; ENMIN  =  131.236 eV                                                          
   ICORE  =        3    local potential                                                             
   LCOR   =        T    correct aug charges                                                         
   LPAW   =        T    paw PP                                                                      
   EAUG   =  368.792                                                                                
   DEXC   =    -.169                                                                                
   RMAX   =    3.486    core radius for proj-oper                                                   
   RAUG   =    1.300    factor for augmentation sphere                                              
   RDEP   =    2.397    radius for radial grids                                                     
   QCUT   =   -3.586; QGAM   =    7.172    optimization parameters                                  
                                                                                                    
   Description                                                                                      
     l     E      TYP  RCUT    TYP  RCUT                                                            
     0   .000     23  2.300                                                                         
     0   .000     23  2.300                                                                         
     1   .000     23  2.300                                                                         
     1   .000     23  2.300                                                                         
     2   .000     23  2.300                                                                         
     3  -.100     23  2.300                                                                         
  local pseudopotential read in
  partial core-charges read in
  atomic valenz-charges read in
  non local Contribution for L=           0  read in
    real space projection operators read in
  non local Contribution for L=           0  read in
    real space projection operators read in
  non local Contribution for L=           1  read in
    real space projection operators read in
  non local Contribution for L=           1  read in
    real space projection operators read in
  non local Contribution for L=           2  read in
    real space projection operators read in
    PAW grid and wavefunctions read in
 
   number of l-projection  operators is LMAX  =           5
   number of lm-projection operators is LMMAX =          13
 
 POTCAR:   PAW_PBE Mo 08Apr2002                   
   VRHFIN =Mo: 4p5s4d                                                                               
   LEXCH  = PE                                                                                      
   EATOM  =   217.5180 eV,   15.9871 Ry                                                             
                                                                                                    
   TITEL  = PAW_PBE Mo 08Apr2002                                                                    
   LULTRA =        F    use ultrasoft PP ?                                                          
   IUNSCR =        1    unscreen: 0-lin 1-nonlin 2-no                                               
   RPACOR =    2.200    partial core radius                                                         
   POMASS =   95.940; ZVAL   =    6.000    mass and valenz                                          
   RCORE  =    2.750    outmost cutoff radius                                                       
   RWIGS  =    2.750; RWIGS  =    1.455    wigner-seitz radius (au A)                               
   ENMAX  =  224.584; ENMIN  =  168.438 eV                                                          
   RCLOC  =    2.111    cutoff for local pot                                                        
   LCOR   =        T    correct aug charges                                                         
   LPAW   =        T    paw PP                                                                      
   EAUG   =  345.278                                                                                
   DEXC   =    -.088                                                                                
   RMAX   =    3.077    core radius for proj-oper                                                   
   RAUG   =    1.300    factor for augmentation sphere                                              
   RDEP   =    2.815    radius for radial grids                                                     
   QCUT   =   -4.063; QGAM   =    8.126    optimization parameters                                  
                                                                                                    
   Description                                                                                      
     l     E      TYP  RCUT    TYP  RCUT                                                            
     2   .000     23  2.500                                                                         
     2   .000     23  2.500                                                                         
     0   .000     23  2.600                                                                         
     0  1.000     23  2.600                                                                         
     1   .400     23  2.750                                                                         
     1  2.000     23  2.750                                                                         
     3   .000      7   .000                                                                         
  local pseudopotential read in
  partial core-charges read in
  atomic valenz-charges read in
  non local Contribution for L=           2  read in
    real space projection operators read in
  non local Contribution for L=           2  read in
    real space projection operators read in
  non local Contribution for L=           0  read in
    real space projection operators read in
  non local Contribution for L=           0  read in
    real space projection operators read in
  non local Contribution for L=           1  read in
    real space projection operators read in
  non local Contribution for L=           1  read in
    real space projection operators read in
    PAW grid and wavefunctions read in
 
   number of l-projection  operators is LMAX  =           6
   number of lm-projection operators is LMMAX =          18
 
 -----------------------------------------------------------------------------
|                                                                             |
|               ----> ADVICE to this user running VASP <----                  |
|                                                                             |
|     You have a (more or less) 'large supercell' and for larger cells it     |
|     might be more efficient to use real-space projection operators.         |
|     Therefore, try LREAL= Auto in the INCAR file.                           |
|     Mind: If you want to do very accurate calculations, keep the            |
|     reciprocal projection scheme (i.e. LREAL=.FALSE.).                      |
|                                                                             |
 -----------------------------------------------------------------------------

 PAW_PBE Te 08Apr2002                   :
 energy of atom  1       EATOM= -223.2721
 kinetic energy error for atom=    0.0006 (will be added to EATOM!!)
 PAW_PBE Mo 08Apr2002                   :
 energy of atom  2       EATOM= -217.5180
 kinetic energy error for atom=    0.0009 (will be added to EATOM!!)
 
 
 POSCAR: Te Mo
  positions in cartesian coordinates
  No initial velocities read in
 exchange correlation table for  LEXCH =        8
   RHO(1)=    0.500       N(1)  =     2000
   RHO(2)=  100.500       N(2)  =     4000
 


--------------------------------------------------------------------------------------------------------


 ion  position               nearest neighbor table
   1  0.111  0.222  0.313-  41 2.74  38 2.74  37 2.76   9 3.52   5 3.53   2 3.55   3 3.56   7 3.56
                             4 3.58  19 3.67
   2  0.111  0.555  0.313-  42 2.74  39 2.74  38 2.77   7 3.53   6 3.53   1 3.55   3 3.55   5 3.57
                             8 3.57  20 3.67
   3  0.111  0.888  0.313-  40 2.74  37 2.75  39 2.76   8 3.52   4 3.53   2 3.55   9 3.56   1 3.56
                             6 3.56  21 3.68
   4  0.445  0.222  0.313-  44 2.74  41 2.76  40 2.77   8 3.52   3 3.53   6 3.54   7 3.55   5 3.56
                             1 3.58  22 3.68
   5  0.445  0.556  0.313-  45 2.74  42 2.75  41 2.77   9 3.53   1 3.53   4 3.56   8 3.56   6 3.56
                             2 3.57  23 3.67
   6  0.445  0.889  0.313-  43 2.74  40 2.75  42 2.77   7 3.52   2 3.53   4 3.54   5 3.56   3 3.56
                             9 3.57  24 3.68
   7  0.777  0.223  0.313-  44 2.75  38 2.75  43 2.77   6 3.52   2 3.53   8 3.54   4 3.55   9 3.56
                             1 3.56  25 3.68
   8  0.777  0.555  0.313-  39 2.74  45 2.75  44 2.77   4 3.52   3 3.52   7 3.54   9 3.56   5 3.56
                             2 3.57  26 3.68
   9  0.778  0.889  0.313-  37 2.73  43 2.75  45 2.77   1 3.52   5 3.53   8 3.56   7 3.56   3 3.56
                             6 3.57  27 3.68
  10  0.111  0.277  0.566-  50 2.73  47 2.76  46 2.76  18 3.52  14 3.52  12 3.55  13 3.55  11 3.56
                            16 3.57  28 3.68
  11  0.111  0.611  0.566-  48 2.74  51 2.74  47 2.77  16 3.52  15 3.54  14 3.56  10 3.56  12 3.56
                            17 3.56  29 3.67
  12  0.111  0.945  0.566-  49 2.73  46 2.74  48 2.77  17 3.53  13 3.53  10 3.55  11 3.56  18 3.56
                            15 3.57  30 3.67
  13  0.444  0.279  0.566-  53 2.73  50 2.74  49 2.76  17 3.52  12 3.53  14 3.55  10 3.55  15 3.56
                            16 3.57  31 3.67
  14  0.444  0.611  0.566-  51 2.75  54 2.75  50 2.76  10 3.52  18 3.53  13 3.55  15 3.55  11 3.56
                            17 3.57  32 3.68
  15  0.445  0.945  0.566-  52 2.73  49 2.75  51 2.77  16 3.52  11 3.54  14 3.55  13 3.56  18 3.57
                            12 3.57  33 3.67
  16  0.778  0.278  0.566-  53 2.74  47 2.74  52 2.76  15 3.52  11 3.52  18 3.55  17 3.56  13 3.57
                            10 3.57  34 3.67
  17  0.778  0.611  0.566-  48 2.74  54 2.75  53 2.76  13 3.52  12 3.53  18 3.55  16 3.56  11 3.56
                            14 3.57  35 3.67
  18  0.778  0.945  0.566-  46 2.73  52 2.75  54 2.77  10 3.52  14 3.53  16 3.55  17 3.55  12 3.56
                            15 3.57  36 3.67
  19  0.111  0.222  0.434-  37 2.72  41 2.76  38 2.77  23 3.53  27 3.53  21 3.55  20 3.55  22 3.56
                            25 3.57   1 3.67
  20  0.111  0.556  0.434-  38 2.73  42 2.76  39 2.78  24 3.52  25 3.53  19 3.55  23 3.56  21 3.56
                            26 3.57   2 3.67
  21  0.111  0.889  0.434-  39 2.73  40 2.77  37 2.77  22 3.53  26 3.53  19 3.55  20 3.56  27 3.56
                            24 3.57   3 3.68
  22  0.444  0.222  0.434-  40 2.72  44 2.76  41 2.77  21 3.53  26 3.53  24 3.55  23 3.56  19 3.56
                            25 3.56   4 3.68
  23  0.444  0.556  0.433-  41 2.71  45 2.75  42 2.76  27 3.52  19 3.53  24 3.55  20 3.56  22 3.56
                            26 3.57   5 3.67
  24  0.444  0.889  0.434-  42 2.72  43 2.77  40 2.78  20 3.52  25 3.53  23 3.55  22 3.55  27 3.56
                            21 3.57   6 3.68
  25  0.778  0.223  0.434-  43 2.72  38 2.76  44 2.77  20 3.53  24 3.53  26 3.55  27 3.56  22 3.56
                            19 3.57   7 3.68
  26  0.778  0.555  0.434-  44 2.72  39 2.76  45 2.77  21 3.53  22 3.53  25 3.55  27 3.55  20 3.57
                            23 3.57   8 3.68
  27  0.777  0.888  0.434-  45 2.72  37 2.77  43 2.77  23 3.52  19 3.53  26 3.55  25 3.56  24 3.56
                            21 3.56   9 3.68
  28  0.112  0.278  0.687-  46 2.72  50 2.76  47 2.77  32 3.52  36 3.53  29 3.55  31 3.56  30 3.56
                            34 3.57  10 3.68
  29  0.112  0.611  0.687-  47 2.71  51 2.76  48 2.77  34 3.53  33 3.53  28 3.55  30 3.55  32 3.56
                            35 3.58  11 3.67
  30  0.111  0.944  0.687-  48 2.71  49 2.75  46 2.77  35 3.52  31 3.53  29 3.55  28 3.56  36 3.57
                            33 3.57  12 3.67
  31  0.444  0.277  0.687-  49 2.72  53 2.77  50 2.78  30 3.53  35 3.53  32 3.55  33 3.56  28 3.56
                            34 3.57  13 3.67
  32  0.445  0.611  0.687-  50 2.72  54 2.76  51 2.77  28 3.52  36 3.53  31 3.55  35 3.55  33 3.56
                            29 3.56  14 3.68
  33  0.445  0.945  0.687-  51 2.72  52 2.76  49 2.79  34 3.52  29 3.53  31 3.56  36 3.56  32 3.56
                            30 3.57  15 3.67
  34  0.778  0.278  0.687-  52 2.72  47 2.75  53 2.77  33 3.52  29 3.53  36 3.55  35 3.56  28 3.57
                            31 3.57  16 3.67
  35  0.777  0.611  0.687-  53 2.73  48 2.76  54 2.76  30 3.52  31 3.53  36 3.55  32 3.55  34 3.56
                            29 3.58  17 3.67
  36  0.778  0.945  0.687-  54 2.72  46 2.77  52 2.77  32 3.53  28 3.53  34 3.55  35 3.55  33 3.56
                            30 3.57  18 3.67
  37  0.000  0.000  0.373-  19 2.72   9 2.73   3 2.75   1 2.76  27 2.77  21 2.77
  38  0.000  0.333  0.373-  20 2.73   1 2.74   7 2.75  25 2.76  19 2.77   2 2.77
  39  0.000  0.667  0.373-  21 2.73   8 2.74   2 2.74   3 2.76  26 2.76  20 2.78
  40  0.334  0.000  0.373-  22 2.72   3 2.74   6 2.75   4 2.77  21 2.77  24 2.78
  41  0.333  0.334  0.373-  23 2.71   1 2.74  19 2.76   4 2.76   5 2.77  22 2.77
  42  0.334  0.667  0.373-  24 2.72   2 2.74   5 2.75  23 2.76  20 2.76   6 2.77
  43  0.667  0.000  0.373-  25 2.72   6 2.74   9 2.75  24 2.77   7 2.77  27 2.77
  44  0.667  0.333  0.373-  26 2.72   4 2.74   7 2.75  22 2.76   8 2.77  25 2.77
  45  0.666  0.666  0.373-  27 2.72   5 2.74   8 2.75  23 2.75   9 2.77  26 2.77
  46  0.001  0.056  0.627-  28 2.72  18 2.73  12 2.74  10 2.76  36 2.77  30 2.77
  47  0.000  0.389  0.627-  29 2.71  16 2.74  34 2.75  10 2.76  28 2.77  11 2.77
  48  0.000  0.722  0.627-  30 2.71  17 2.74  11 2.74  35 2.76  29 2.77  12 2.77
  49  0.333  0.056  0.627-  31 2.72  12 2.73  15 2.75  30 2.75  13 2.76  33 2.79
  50  0.333  0.389  0.627-  32 2.72  10 2.73  13 2.74  28 2.76  14 2.76  31 2.78
  51  0.334  0.722  0.627-  33 2.72  11 2.74  14 2.75  29 2.76  15 2.77  32 2.77
  52  0.667  0.056  0.627-  34 2.72  15 2.73  18 2.75  33 2.76  16 2.76  36 2.77
  53  0.667  0.388  0.627-  35 2.73  13 2.73  16 2.74  17 2.76  31 2.77  34 2.77
  54  0.667  0.722  0.627-  36 2.72  14 2.75  17 2.75  32 2.76  35 2.76  18 2.77
 

IMPORTANT INFORMATION: All symmetrisations will be switched off!
NOSYMM: (Re-)initialisation of all symmetry stuff for point group C_1.


----------------------------------------------------------------------------------------

                                     Primitive cell                                     

  volume of cell :    2978.0620

  direct lattice vectors                    reciprocal lattice vectors
    10.692972974  0.000000000  0.000000000     0.093519361  0.055348257  0.000854088
    -5.429539557  9.174039042  0.000000000     0.000000000  0.109003242  0.001836075
     0.025388502 -0.511358857 30.358106579     0.000000000  0.000000000  0.032940131

  length of vectors
    10.692972974 10.660342028 30.362423611     0.108673961  0.109018705  0.032940131

  position of ions in fractional coordinates (direct lattice)
     0.110555655  0.222058822  0.312769925
     0.111368656  0.555481524  0.312977674
     0.110676885  0.888188167  0.312600917
     0.444988455  0.222034391  0.312581649
     0.444816475  0.555579073  0.312614098
     0.444666294  0.889385800  0.312698721
     0.777469546  0.222654785  0.312561665
     0.777280701  0.555041045  0.312593117
     0.778353003  0.889298572  0.312793527
     0.111487447  0.277382851  0.566118219
     0.110813800  0.610739862  0.566347142
     0.111100348  0.944604667  0.566234551
     0.444467408  0.278510000  0.566476682
     0.443689520  0.611203814  0.566156448
     0.445027973  0.945037291  0.566397244
     0.777787951  0.277612320  0.566367182
     0.777837515  0.611156879  0.566306063
     0.778408175  0.944822635  0.566291717
     0.111050627  0.222090478  0.433715643
     0.111301014  0.555585763  0.433894309
     0.110765451  0.889012896  0.433856010
     0.444216422  0.222131659  0.433707250
     0.444013685  0.555880101  0.433477118
     0.444113025  0.888723255  0.433811718
     0.777711160  0.222591786  0.433662517
     0.777589854  0.555471297  0.433671873
     0.777166653  0.888476556  0.433938142
     0.111539614  0.278309807  0.687195369
     0.111577232  0.610954777  0.687215879
     0.110701510  0.943879759  0.687034260
     0.443812589  0.277393708  0.687423602
     0.444672237  0.610603848  0.687299002
     0.445068900  0.944532515  0.687348738
     0.777896612  0.277862306  0.687202350
     0.777262749  0.611456733  0.687091015
     0.777725154  0.944741349  0.687225928
     0.000050310  0.000044393  0.373212812
     0.000027757  0.332726957  0.373390601
     0.000124576  0.666996600  0.373052658
     0.333566695  0.000225927  0.373146094
     0.333251492  0.333757431  0.373327735
     0.333715263  0.666908835  0.373344908
     0.667431053  0.000390261  0.373245497
     0.666697968  0.333262937  0.373209714
     0.666318602  0.666389067  0.373246618
     0.000521867  0.055996610  0.626618405
     0.000178313  0.388919214  0.626992586
     0.000375760  0.721740422  0.626818401
     0.332716276  0.055950213  0.626715284
     0.333375316  0.389078917  0.626508062
     0.333755967  0.722433824  0.626896755
     0.666611036  0.055699559  0.626762312
     0.666540586  0.388428998  0.626517771
     0.666563974  0.722113918  0.626844492

  ion indices of the primitive-cell ions
   primitive index   ion index
                 1           1
                 2           2
                 3           3
                 4           4
                 5           5
                 6           6
                 7           7
                 8           8
                 9           9
                10          10
                11          11
                12          12
                13          13
                14          14
                15          15
                16          16
                17          17
                18          18
                19          19
                20          20
                21          21
                22          22
                23          23
                24          24
                25          25
                26          26
                27          27
                28          28
                29          29
                30          30
                31          31
                32          32
                33          33
                34          34
                35          35
                36          36
                37          37
                38          38
                39          39
                40          40
                41          41
                42          42
                43          43
                44          44
                45          45
                46          46
                47          47
                48          48
                49          49
                50          50
                51          51
                52          52
                53          53
                54          54

----------------------------------------------------------------------------------------

 
 

Automatic generation of k-mesh.
 generate k-points for:    3    3    1
Space group operators:
 irot       det(A)        alpha          n_x          n_y          n_z        tau_x        tau_y        tau_z
    1     1.000000     0.000000     1.000000     0.000000     0.000000     0.000000     0.000000     0.000000
 
 Subroutine IBZKPT returns following result:
 ===========================================
 
 Found      5 irreducible k-points:
 
 Following reciprocal coordinates:
            Coordinates               Weight
  0.000000  0.000000  0.000000      1.000000
  0.333333  0.000000  0.000000      2.000000
  0.000000  0.333333  0.000000      2.000000
  0.333333  0.333333  0.000000      2.000000
 -0.333333  0.333333 -0.000000      2.000000
 
 Following cartesian coordinates:
            Coordinates               Weight
  0.000000  0.000000  0.000000      1.000000
  0.031173  0.018449  0.000285      2.000000
  0.000000  0.036334  0.000612      2.000000
  0.031173  0.054784  0.000897      2.000000
 -0.031173  0.017885  0.000327      2.000000
 


--------------------------------------------------------------------------------------------------------




 Dimension of arrays:
   k-points           NKPTS =      5   k-points in BZ     NKDIM =      5   number of bands    NBANDS=    200
   number of dos      NEDOS =    301   number of ions     NIONS =     54
   non local maximal  LDIM  =      6   non local SUM 2l+1 LMDIM =     18
   total plane-waves  NPLWV = ******
   max r-space proj   IRMAX =      1   max aug-charges    IRDMAX=  36704
   dimension x,y,z NGX =    84 NGY =   84 NGZ =  240
   dimension x,y,z NGXF=   168 NGYF=  168 NGZF=  480
   support grid    NGXF=   168 NGYF=  168 NGZF=  480
   ions per type =              36  18
   NGX,Y,Z   is equivalent  to a cutoff of  13.06, 13.10, 13.14 a.u.
   NGXF,Y,Z  is equivalent  to a cutoff of  26.12, 26.20, 26.28 a.u.

 SYSTEM =  dpgen_md                                
 POSCAR =  Te Mo                                   

 Startparameter for this run:
   NWRITE =      2    write-flag & timer
   PREC   = a         normal or accurate (medium, high low for compatibility)
   ISTART =      0    job   : 0-new  1-cont  2-samecut
   ICHARG =      2    charge: 1-file 2-atom 10-const
   ISPIN  =      1    spin polarized calculation?
   LNONCOLLINEAR =      F non collinear calculations
   LSORBIT =      F    spin-orbit coupling
   INIWAV =      1    electr: 0-lowe 1-rand  2-diag
   LASPH  =      F    aspherical Exc in radial PAW
   METAGGA=      F    non-selfconsistent MetaGGA calc.

 Electronic Relaxation 1
   ENCUT  =  550.0 eV  40.42 Ry    6.36 a.u.  20.45 20.38 58.06*2*pi/ulx,y,z
   ENINI  =  550.0     initial cutoff
   ENAUG  =  368.8 eV  augmentation charge cutoff
   NELM   =    100;   NELMIN=  6; NELMDL= -5     # of ELM steps 
   EDIFF  = 0.1E-05   stopping-criterion for ELM
   LREAL  =      F    real-space projection
   NLSPLINE    = F    spline interpolate recip. space projectors
   LCOMPAT=      F    compatible to vasp.4.4
   GGA_COMPAT  = T    GGA compatible to vasp.4.4-vasp.4.6
   LMAXPAW     = -100 max onsite density
   LMAXMIX     =    2 max onsite mixed and CHGCAR
   VOSKOWN=      0    Vosko Wilk Nusair interpolation
   ROPT   =    0.00000   0.00000
 Ionic relaxation
   EDIFFG = 0.1E-04   stopping-criterion for IOM
   NSW    =     10    number of steps for IOM
   NBLOCK =      1;   KBLOCK =      1    inner block; outer block 
   IBRION =      0    ionic relax: 0-MD 1-quasi-New 2-CG
   NFREE  =      0    steps in history (QN), initial steepest desc. (CG)
   ISIF   =      2    stress and relaxation
   IWAVPR =     11    prediction:  0-non 1-charg 2-wave 3-comb
   ISYM   =      0    0-nonsym 1-usesym 2-fastsym
   LCORR  =      T    Harris-Foulkes like correction to forces

   POTIM  = 2.0000    time-step for ionic-motion
   TEIN   =  100.0    initial temperature
   TEBEG  =  100.0;   TEEND  = 100.0 temperature during run
   SMASS  =   0.04    Nose mass-parameter (am)
   estimated Nose-frequenzy (Omega)   =  0.79E+14 period in steps = 0.40E+02 mass=   0.327E-28a.u.
   SCALEE = 1.0000    scale energy and forces
   NPACO  =    256;   APACO  = 16.0  distance and # of slots for P.C.
   PSTRESS=    0.0 pullay stress

  Mass of Ions in am
   POMASS = 127.60 95.94
  Ionic Valenz
   ZVAL   =   6.00  6.00
  Atomic Wigner-Seitz radii
   RWIGS  =  -1.00 -1.00
  virtual crystal weights 
   VCA    =   1.00  1.00
   NELECT =     324.0000    total number of electrons
   NUPDOWN=      -1.0000    fix difference up-down

 DOS related values:
   EMIN   =  10.00;   EMAX   =-10.00  energy-range for DOS
   EFERMI =   0.00
   ISMEAR =     0;   SIGMA  =   0.10  broadening in eV -4-tet -1-fermi 0-gaus

 Electronic relaxation 2 (details)
   IALGO  =     68    algorithm
   LDIAG  =      T    sub-space diagonalisation (order eigenvalues)
   LSUBROT=      F    optimize rotation matrix (better conditioning)
   TURBO    =      0    0=normal 1=particle mesh
   IRESTART =      0    0=no restart 2=restart with 2 vectors
   NREBOOT  =      0    no. of reboots
   NMIN     =      0    reboot dimension
   EREF     =   0.00    reference energy to select bands
   IMIX   =      4    mixing-type and parameters
     AMIX     =   0.40;   BMIX     =  1.00
     AMIX_MAG =   1.60;   BMIX_MAG =  1.00
     AMIN     =   0.10
     WC   =   100.;   INIMIX=   1;  MIXPRE=   1;  MAXMIX= -45

 Intra band minimization:
   WEIMIN = 0.0010     energy-eigenvalue tresh-hold
   EBREAK =  0.13E-08  absolut break condition
   DEPER  =   0.30     relativ break condition  

   TIME   =   0.40     timestep for ELM

  volume/ion in A,a.u.               =      55.15       372.17
  Fermi-wavevector in a.u.,A,eV,Ry     =   0.781529  1.476876  8.310276  0.610788
  Thomas-Fermi vector in A             =   1.885066
 
 Write flags
   LWAVE        =      F    write WAVECAR
   LDOWNSAMPLE  =      F    k-point downsampling of WAVECAR
   LCHARG       =      F    write CHGCAR
   LVTOT        =      F    write LOCPOT, total local potential
   LVHAR        =      F    write LOCPOT, Hartree potential only
   LELF         =      F    write electronic localiz. function (ELF)
   LORBIT       =      0    0 simple, 1 ext, 2 COOP (PROOUT), +10 PAW based schemes


 Dipole corrections
   LMONO  =      F    monopole corrections only (constant potential shift)
   LDIPOL =      F    correct potential (dipole corrections)
   IDIPOL =      0    1-x, 2-y, 3-z, 4-all directions 
   EPSILON=  1.0000000 bulk dielectric constant

 Exchange correlation treatment:
   GGA     =    --    GGA type
   LEXCH   =     8    internal setting for exchange type
   VOSKOWN=      0    Vosko Wilk Nusair interpolation
   LHFCALC =     F    Hartree Fock is set to
   LHFONE  =     F    Hartree Fock one center treatment
   AEXX    =    0.0000 exact exchange contribution

 Linear response parameters
   LEPSILON=     F    determine dielectric tensor
   LRPA    =     F    only Hartree local field effects (RPA)
   LNABLA  =     F    use nabla operator in PAW spheres
   LVEL    =     F    velocity operator in full k-point grid
   LINTERFAST=   F  fast interpolation
   KINTER  =     0    interpolate to denser k-point grid
   CSHIFT  =0.1000    complex shift for real part using Kramers Kronig
   OMEGAMAX=  -1.0    maximum frequency
   DEG_THRESHOLD= 0.2000000E-02 threshold for treating states as degnerate
   RTIME   =   -0.100 relaxation time in fs
  (WPLASMAI=    0.000 imaginary part of plasma frequency in eV, 0.658/RTIME)
   DFIELD  = 0.0000000 0.0000000 0.0000000 field for delta impulse in time
 
 Orbital magnetization related:
   ORBITALMAG=     F  switch on orbital magnetization
   LCHIMAG   =     F  perturbation theory with respect to B field
   DQ        =  0.001000  dq finite difference perturbation B field
   LLRAUG    =     F  two centre corrections for induced B field



--------------------------------------------------------------------------------------------------------


 molecular dynamics for ions
   using nose mass (canonical ensemble)
 charge density and potential will be updated during run
 non-spin polarized calculation
 RMM-DIIS sequential band-by-band and
  variant of blocked Davidson during initial phase
 perform sub-space diagonalisation
    before iterative eigenvector-optimisation
 modified Broyden-mixing scheme, WC =      100.0
 initial mixing is a Kerker type mixing with AMIX =  0.4000 and BMIX =      1.0000
 Hartree-type preconditioning will be used
 using additional bands           38
 reciprocal scheme for non local part
 use partial core corrections
 calculate Harris-corrections to forces 
   (improved forces if not selfconsistent)
 use gradient corrections 
 use of overlap-Matrix (Vanderbilt PP)
 Gauss-broadening in eV      SIGMA  =   0.10


--------------------------------------------------------------------------------------------------------


  energy-cutoff  :      550.00
  volume of cell :     2978.06
      direct lattice vectors                 reciprocal lattice vectors
    10.692972974  0.000000000  0.000000000     0.093519361  0.055348257  0.000854088
    -5.429539557  9.174039042  0.000000000     0.000000000  0.109003242  0.001836075
     0.025388502 -0.511358857 30.358106579     0.000000000  0.000000000  0.032940131

  length of vectors
    10.692972974 10.660342028 30.362423611     0.108673961  0.109018705  0.032940131


 
 k-points in units of 2pi/SCALE and weight: read from INCAR                         
   0.00000000  0.00000000  0.00000000       0.111
   0.03117312  0.01844942  0.00028470       0.222
   0.00000000  0.03633441  0.00061203       0.222
   0.03117312  0.05478383  0.00089672       0.222
  -0.03117312  0.01788500  0.00032733       0.222
 
 k-points in reciprocal lattice and weights: read from INCAR                         
   0.00000000  0.00000000  0.00000000       0.111
   0.33333333  0.00000000  0.00000000       0.222
   0.00000000  0.33333333  0.00000000       0.222
   0.33333333  0.33333333  0.00000000       0.222
  -0.33333333  0.33333333 -0.00000000       0.222
 
 position of ions in fractional coordinates (direct lattice) 
   0.11055565  0.22205882  0.31276992
   0.11136866  0.55548152  0.31297767
   0.11067689  0.88818817  0.31260092
   0.44498845  0.22203439  0.31258165
   0.44481647  0.55557907  0.31261410
   0.44466629  0.88938580  0.31269872
   0.77746955  0.22265478  0.31256166
   0.77728070  0.55504105  0.31259312
   0.77835300  0.88929857  0.31279353
   0.11148745  0.27738285  0.56611822
   0.11081380  0.61073986  0.56634714
   0.11110035  0.94460467  0.56623455
   0.44446741  0.27851000  0.56647668
   0.44368952  0.61120381  0.56615645
   0.44502797  0.94503729  0.56639724
   0.77778795  0.27761232  0.56636718
   0.77783751  0.61115688  0.56630606
   0.77840817  0.94482263  0.56629172
   0.11105063  0.22209048  0.43371564
   0.11130101  0.55558576  0.43389431
   0.11076545  0.88901290  0.43385601
   0.44421642  0.22213166  0.43370725
   0.44401368  0.55588010  0.43347712
   0.44411303  0.88872326  0.43381172
   0.77771116  0.22259179  0.43366252
   0.77758985  0.55547130  0.43367187
   0.77716665  0.88847656  0.43393814
   0.11153961  0.27830981  0.68719537
   0.11157723  0.61095478  0.68721588
   0.11070151  0.94387976  0.68703426
   0.44381259  0.27739371  0.68742360
   0.44467224  0.61060385  0.68729900
   0.44506890  0.94453252  0.68734874
   0.77789661  0.27786231  0.68720235
   0.77726275  0.61145673  0.68709102
   0.77772515  0.94474135  0.68722593
   0.00005031  0.00004439  0.37321281
   0.00002776  0.33272696  0.37339060
   0.00012458  0.66699660  0.37305266
   0.33356669  0.00022593  0.37314609
   0.33325149  0.33375743  0.37332773
   0.33371526  0.66690884  0.37334491
   0.66743105  0.00039026  0.37324550
   0.66669797  0.33326294  0.37320971
   0.66631860  0.66638907  0.37324662
   0.00052187  0.05599661  0.62661841
   0.00017831  0.38891921  0.62699259
   0.00037576  0.72174042  0.62681840
   0.33271628  0.05595021  0.62671528
   0.33337532  0.38907892  0.62650806
   0.33375597  0.72243382  0.62689676
   0.66661104  0.05569956  0.62676231
   0.66654059  0.38842900  0.62651777
   0.66656397  0.72211392  0.62684449
 
 position of ions in cartesian coordinates  (Angst):
  -0.01556777  1.87723863  9.49510271
  -1.81720085  4.93596528  9.50140959
  -3.63105138  7.98842168  9.48997195
   3.56064099  1.87711077  9.48938702
   1.74780879  4.93704612  9.49037211
  -0.06621177  7.99935880  9.49294110
   7.11248335  1.88281251  9.48878033
   5.30576049  4.93212096  9.48973515
   3.50236721  7.99851008  9.49581924
  -0.29955601  2.25523154 17.18627724
  -2.11672856  5.31334471 17.19322690
  -3.92639954  8.37629104 17.18980884
   3.25487892  2.26538875 17.19715949
   1.44017863  5.31769854 17.18743779
  -0.35806529  8.38017676 17.19474789
   6.82393768  2.25720939 17.19383528
   5.01347274  5.31719145 17.19197980
   3.20792300  8.37826146 17.19154430
  -0.00737629  1.81568238 13.16678573
  -1.81542022  4.87508979 13.17220967
  -3.63150375  7.93398291 13.17104699
   3.55493274  1.81606446 13.16653092
   1.74065867  4.87800339 13.15954453
  -0.06545567  7.93134838 13.16970236
   7.11848356  1.82030856 13.16517291
   5.30980419  4.87415342 13.16545695
   3.49722045  7.92902050 13.17354038
  -0.30095716  2.20182159 20.86195026
  -2.10666342  5.25350905 20.86257289
  -3.92366146  8.30786871 20.85705929
   3.25700856  2.19330056 20.86887897
   1.45701996  5.25024711 20.86509635
  -0.35181618  8.31369630 20.86660624
   6.82681011  2.19771264 20.86216220
   5.00876526  5.25817786 20.85878227
   3.20413116  8.31567495 20.86287796
   0.00977224 -0.19043841 11.33003432
  -1.79677754  2.86151350 11.33543166
  -3.61068109  5.92828907 11.32517236
   3.57506659 -0.18873890 11.32800889
   1.76077826  2.87099926 11.33352316
  -0.04312094  5.92733447 11.33404450
   7.14417942 -0.18728212 11.33102658
   5.32899430  2.86652310 11.32994026
   3.51621717  5.92261635 11.33106060
  -0.28254660  0.19328822 19.02294833
  -2.09382715  3.24734184 19.03430775
  -3.89878620  6.30074567 19.02901982
   3.26985362  0.19281303 19.02588938
   1.46815998  3.24905473 19.01959851
  -0.33772352  6.30706690 19.03139851
   6.84154339  0.19048947 19.02731707
   5.03421621  3.24308738 19.01989325
   3.22271912  6.30415879 19.02981190
 


--------------------------------------------------------------------------------------------------------


 k-point   1 :   0.0000 0.0000 0.0000  plane waves:   87321
 k-point   2 :   0.3333 0.0000 0.0000  plane waves:   87240
 k-point   3 :   0.0000 0.3333 0.0000  plane waves:   87259
 k-point   4 :   0.3333 0.3333 0.0000  plane waves:   87203
 k-point   5 :  -0.3333 0.3333-0.0000  plane waves:   87197

 maximum and minimum number of plane-waves per node :     87321    87197

 maximum number of plane-waves:     87321
 maximum index in each direction: 
   IXMAX=   20   IYMAX=   20   IZMAX=   58
   IXMIN=  -20   IYMIN=  -20   IZMIN=  -58


 serial   3D FFT for wavefunctions
 parallel 3D FFT for charge:
    minimum data exchange during FFTs selected (reduces bandwidth)


 total amount of memory used by VASP MPI-rank0   377819. kBytes
=======================================================================

   base      :      30000. kBytes
   nonl-proj :     201277. kBytes
   fftplans  :      19943. kBytes
   grid      :      90496. kBytes
   one-center:        839. kBytes
   wavefun   :      35264. kBytes
 
     INWAV:  cpu time    0.0001: real time    0.0001
 Broyden mixing: mesh for mixing (old mesh)
   NGX = 41   NGY = 41   NGZ =117
  (NGX  =168   NGY  =168   NGZ  =480)
  gives a total of 196677 points

 initial charge density was supplied:
 charge density of overlapping atoms calculated
 number of electron     324.0000000 magnetization 
 keeping initial charge density in first step


--------------------------------------------------------------------------------------------------------


 Maximum index for augmentation-charges         2225 (set IRDMAX)


--------------------------------------------------------------------------------------------------------


 First call to EWALD:  gamma=   0.123
 Maximum number of real-space cells 4x 4x 2
 Maximum number of reciprocal cells 2x 2x 5

    FEWALD:  cpu time    0.0022: real time    0.0023


--------------------------------------- Iteration      1(   1)  ---------------------------------------


    POTLOK:  cpu time    0.3600: real time    0.3615
    SETDIJ:  cpu time    0.0121: real time    0.0123
     EDDAV:  cpu time   52.7767: real time   52.9178
       DOS:  cpu time    0.0010: real time    0.0011
    --------------------------------------------
      LOOP:  cpu time   53.1498: real time   53.2927

 eigenvalue-minimisations  :  2000
 total energy-change (2. order) : 0.2079957E+04  (-0.1144099E+05)
 number of electron     324.0000000 magnetization 
 augmentation part      324.0000000 magnetization 

 Free energy of the ion-electron system (eV)
  ---------------------------------------------------
  alpha Z        PSCENC =       240.98429769
  Ewald energy   TEWEN  =     56571.28187822
  -Hartree energ DENC   =    -68235.36873173
  -exchange      EXHF   =         0.00000000
  -V(xc)+E(xc)   XCENC  =     -2104.30517843
  PAW double counting   =      7476.04436201    -4809.59211051
  entropy T*S    EENTRO =        -0.12245796
  eigenvalues    EBANDS =       987.95229442
  atomic energy  EATOM  =     11953.08265402
  Solvation  Ediel_sol  =         0.00000000
  ---------------------------------------------------
  free energy    TOTEN  =      2079.95700773 eV

  energy without entropy =     2080.07946569  energy(sigma->0) =     2080.01823671


--------------------------------------------------------------------------------------------------------




--------------------------------------- Iteration      1(   2)  ---------------------------------------


     EDDAV:  cpu time   73.8697: real time   74.0834
       DOS:  cpu time    0.0007: real time    0.0007
    --------------------------------------------
      LOOP:  cpu time   73.8704: real time   74.0840

 eigenvalue-minimisations  :  3040
 total energy-change (2. order) :-0.2176205E+04  (-0.2096729E+04)
 number of electron     324.0000000 magnetization 
 augmentation part      324.0000000 magnetization 

 Free energy of the ion-electron system (eV)
  ---------------------------------------------------
  alpha Z        PSCENC =       240.98429769
  Ewald energy   TEWEN  =     56571.28187822
  -Hartree energ DENC   =    -68235.36873173
  -exchange      EXHF   =         0.00000000
  -V(xc)+E(xc)   XCENC  =     -2104.30517843
  PAW double counting   =      7476.04436201    -4809.59211051
  entropy T*S    EENTRO =        -0.00882300
  eigenvalues    EBANDS =     -1188.36592408
  atomic energy  EATOM  =     11953.08265402
  Solvation  Ediel_sol  =         0.00000000
  ---------------------------------------------------
  free energy    TOTEN  =       -96.24757581 eV

  energy without entropy =      -96.23875281  energy(sigma->0) =      -96.24316431


--------------------------------------------------------------------------------------------------------




--------------------------------------- Iteration      1(   3)  ---------------------------------------


     EDDAV:  cpu time   61.6337: real time   61.8080
       DOS:  cpu time    0.0004: real time    0.0004
    --------------------------------------------
      LOOP:  cpu time   61.6341: real time   61.8084

 eigenvalue-minimisations  :  2440
 total energy-change (2. order) :-0.2278244E+03  (-0.2240540E+03)
 number of electron     324.0000000 magnetization 
 augmentation part      324.0000000 magnetization 

 Free energy of the ion-electron system (eV)
  ---------------------------------------------------
  alpha Z        PSCENC =       240.98429769
  Ewald energy   TEWEN  =     56571.28187822
  -Hartree energ DENC   =    -68235.36873173
  -exchange      EXHF   =         0.00000000
  -V(xc)+E(xc)   XCENC  =     -2104.30517843
  PAW double counting   =      7476.04436201    -4809.59211051
  entropy T*S    EENTRO =        -0.00000000
  eigenvalues    EBANDS =     -1416.19909866
  atomic energy  EATOM  =     11953.08265402
  Solvation  Ediel_sol  =         0.00000000
  ---------------------------------------------------
  free energy    TOTEN  =      -324.07192739 eV

  energy without entropy =     -324.07192739  energy(sigma->0) =     -324.07192739


--------------------------------------------------------------------------------------------------------




--------------------------------------- Iteration      1(   4)  ---------------------------------------


     EDDAV:  cpu time   77.9792: real time   78.1839
       DOS:  cpu time    0.0004: real time    0.0004
    --------------------------------------------
      LOOP:  cpu time   77.9795: real time   78.1842

 eigenvalue-minimisations  :  3240
 total energy-change (2. order) :-0.1288999E+02  (-0.1281498E+02)
 number of electron     324.0000000 magnetization 
 augmentation part      324.0000000 magnetization 

 Free energy of the ion-electron system (eV)
  ---------------------------------------------------
  alpha Z        PSCENC =       240.98429769
  Ewald energy   TEWEN  =     56571.28187822
  -Hartree energ DENC   =    -68235.36873173
  -exchange      EXHF   =         0.00000000
  -V(xc)+E(xc)   XCENC  =     -2104.30517843
  PAW double counting   =      7476.04436201    -4809.59211051
  entropy T*S    EENTRO =        -0.00000000
  eigenvalues    EBANDS =     -1429.08908880
  atomic energy  EATOM  =     11953.08265402
  Solvation  Ediel_sol  =         0.00000000
  ---------------------------------------------------
  free energy    TOTEN  =      -336.96191753 eV

  energy without entropy =     -336.96191753  energy(sigma->0) =     -336.96191753


--------------------------------------------------------------------------------------------------------




--------------------------------------- Iteration      1(   5)  ---------------------------------------


     EDDAV:  cpu time   72.1098: real time   72.3254
       DOS:  cpu time    0.0004: real time    0.0004
    CHARGE:  cpu time    1.2230: real time    1.2325
    MIXING:  cpu time    0.0078: real time    0.0082
    --------------------------------------------
      LOOP:  cpu time   73.3409: real time   73.5665

 eigenvalue-minimisations  :  2960
 total energy-change (2. order) :-0.2818337E+00  (-0.2812642E+00)
 number of electron     324.0000003 magnetization 
 augmentation part      -25.9449670 magnetization 

 Broyden mixing:
  rms(total) = 0.19712E+01    rms(broyden)= 0.19712E+01
  rms(prec ) = 0.20877E+01
  weight for this iteration     100.00

 Free energy of the ion-electron system (eV)
  ---------------------------------------------------
  alpha Z        PSCENC =       240.98429769
  Ewald energy   TEWEN  =     56571.28187822
  -Hartree energ DENC   =    -68235.36873173
  -exchange      EXHF   =         0.00000000
  -V(xc)+E(xc)   XCENC  =     -2104.30517843
  PAW double counting   =      7476.04436201    -4809.59211051
  entropy T*S    EENTRO =        -0.00000000
  eigenvalues    EBANDS =     -1429.37092250
  atomic energy  EATOM  =     11953.08265402
  Solvation  Ediel_sol  =         0.00000000
  ---------------------------------------------------
  free energy    TOTEN  =      -337.24375123 eV

  energy without entropy =     -337.24375123  energy(sigma->0) =     -337.24375123


--------------------------------------------------------------------------------------------------------




--------------------------------------- Iteration      1(   6)  ---------------------------------------


    POTLOK:  cpu time    0.3167: real time    0.3172
    SETDIJ:  cpu time    0.0114: real time    0.0114
    EDDIAG:  cpu time    2.6816: real time    2.6850
  RMM-DIIS:  cpu time   45.3737: real time   45.5145
    ORTHCH:  cpu time    0.2205: real time    0.2207
       DOS:  cpu time    0.0004: real time    0.0004
    CHARGE:  cpu time    1.2275: real time    1.2329
    MIXING:  cpu time    0.0076: real time    0.0077
    --------------------------------------------
      LOOP:  cpu time   49.8394: real time   49.9898

 eigenvalue-minimisations  :  2149
 total energy-change (2. order) : 0.9058228E+01  (-0.6732224E+01)
 number of electron     324.0000004 magnetization 
 augmentation part      -19.5838461 magnetization 

 Broyden mixing:
  rms(total) = 0.73864E+00    rms(broyden)= 0.73864E+00
  rms(prec ) = 0.86992E+00
  weight for this iteration     100.00

 eigenvalues of (default mixing * dielectric matrix)
  average eigenvalue GAMMA=   0.9776
  0.9776

 Free energy of the ion-electron system (eV)
  ---------------------------------------------------
  alpha Z        PSCENC =       240.98429769
  Ewald energy   TEWEN  =     56571.28187822
  -Hartree energ DENC   =    -68202.35539444
  -exchange      EXHF   =         0.00000000
  -V(xc)+E(xc)   XCENC  =     -2097.68054686
  PAW double counting   =      7627.46499434    -4971.87023818
  entropy T*S    EENTRO =        -0.00000000
  eigenvalues    EBANDS =     -1449.09316815
  atomic energy  EATOM  =     11953.08265402
  Solvation  Ediel_sol  =         0.00000000
  ---------------------------------------------------
  free energy    TOTEN  =      -328.18552335 eV

  energy without entropy =     -328.18552335  energy(sigma->0) =     -328.18552335


--------------------------------------------------------------------------------------------------------




--------------------------------------- Iteration      1(   7)  ---------------------------------------


    POTLOK:  cpu time    0.3214: real time    0.3218
    SETDIJ:  cpu time    0.0141: real time    0.0141
    EDDIAG:  cpu time    2.6691: real time    2.6805
  RMM-DIIS:  cpu time   42.8399: real time   42.9591
    ORTHCH:  cpu time    0.2300: real time    0.2302
       DOS:  cpu time    0.0004: real time    0.0004
    CHARGE:  cpu time    1.2212: real time    1.2227
    MIXING:  cpu time    0.0077: real time    0.0077
    --------------------------------------------
      LOOP:  cpu time   47.3037: real time   47.4366

 eigenvalue-minimisations  :  2031
 total energy-change (2. order) : 0.3774218E+01  (-0.1226415E+01)
 number of electron     324.0000003 magnetization 
 augmentation part      -21.7928345 magnetization 

 Broyden mixing:
  rms(total) = 0.48932E+00    rms(broyden)= 0.48932E+00
  rms(prec ) = 0.52050E+00
  weight for this iteration     100.00

 eigenvalues of (default mixing * dielectric matrix)
  average eigenvalue GAMMA=   1.4625
  0.7104  2.2147

 Free energy of the ion-electron system (eV)
  ---------------------------------------------------
  alpha Z        PSCENC =       240.98429769
  Ewald energy   TEWEN  =     56571.28187822
  -Hartree energ DENC   =    -68290.11224763
  -exchange      EXHF   =         0.00000000
  -V(xc)+E(xc)   XCENC  =     -2096.84845599
  PAW double counting   =      7889.83195794    -5238.43692168
  entropy T*S    EENTRO =        -0.00000000
  eigenvalues    EBANDS =     -1354.19446841
  atomic energy  EATOM  =     11953.08265402
  Solvation  Ediel_sol  =         0.00000000
  ---------------------------------------------------
  free energy    TOTEN  =      -324.41130584 eV

  energy without entropy =     -324.41130584  energy(sigma->0) =     -324.41130584


--------------------------------------------------------------------------------------------------------




--------------------------------------- Iteration      1(   8)  ---------------------------------------


    POTLOK:  cpu time    0.3183: real time    0.3187
    SETDIJ:  cpu time    0.0125: real time    0.0125
    EDDIAG:  cpu time    2.6792: real time    2.6868
  RMM-DIIS:  cpu time   42.4095: real time   42.5572
    ORTHCH:  cpu time    0.2407: real time    0.2411
       DOS:  cpu time    0.0004: real time    0.0004
    CHARGE:  cpu time    1.2268: real time    1.2280
    MIXING:  cpu time    0.0077: real time    0.0077
    --------------------------------------------
      LOOP:  cpu time   46.8952: real time   47.0524

 eigenvalue-minimisations  :  2019
 total energy-change (2. order) : 0.4944028E+00  (-0.9282154E+00)
 number of electron     324.0000003 magnetization 
 augmentation part      -21.7290136 magnetization 

 Broyden mixing:
  rms(total) = 0.16665E+00    rms(broyden)= 0.16665E+00
  rms(prec ) = 0.19311E+00
  weight for this iteration     100.00

 eigenvalues of (default mixing * dielectric matrix)
  average eigenvalue GAMMA=   1.2087
  2.1561  0.7349  0.7349

 Free energy of the ion-electron system (eV)
  ---------------------------------------------------
  alpha Z        PSCENC =       240.98429769
  Ewald energy   TEWEN  =     56571.28187822
  -Hartree energ DENC   =    -68353.83334689
  -exchange      EXHF   =         0.00000000
  -V(xc)+E(xc)   XCENC  =     -2092.88685891
  PAW double counting   =      8186.75818969    -5541.61442293
  entropy T*S    EENTRO =        -0.00000000
  eigenvalues    EBANDS =     -1287.68929396
  atomic energy  EATOM  =     11953.08265402
  Solvation  Ediel_sol  =         0.00000000
  ---------------------------------------------------
  free energy    TOTEN  =      -323.91690307 eV

  energy without entropy =     -323.91690307  energy(sigma->0) =     -323.91690307


--------------------------------------------------------------------------------------------------------




--------------------------------------- Iteration      1(   9)  ---------------------------------------


    POTLOK:  cpu time    0.3168: real time    0.3221
    SETDIJ:  cpu time    0.0115: real time    0.0115
    EDDIAG:  cpu time    2.6646: real time    2.6804
  RMM-DIIS:  cpu time   47.6145: real time   47.7612
    ORTHCH:  cpu time    0.2241: real time    0.2257
       DOS:  cpu time    0.0004: real time    0.0004
    CHARGE:  cpu time    1.2196: real time    1.2249
    MIXING:  cpu time    0.0076: real time    0.0076
    --------------------------------------------
      LOOP:  cpu time   52.0591: real time   52.2338

 eigenvalue-minimisations  :  2225
 total energy-change (2. order) :-0.6522616E-02  (-0.1491032E+00)
 number of electron     324.0000003 magnetization 
 augmentation part      -21.3442504 magnetization 

 Broyden mixing:
  rms(total) = 0.11290E+00    rms(broyden)= 0.11290E+00
  rms(prec ) = 0.12667E+00
  weight for this iteration     100.00

 eigenvalues of (default mixing * dielectric matrix)
  average eigenvalue GAMMA=   1.0909
  2.0284  1.1902  0.7460  0.3989

 Free energy of the ion-electron system (eV)
  ---------------------------------------------------
  alpha Z        PSCENC =       240.98429769
  Ewald energy   TEWEN  =     56571.28187822
  -Hartree energ DENC   =    -68349.58339688
  -exchange      EXHF   =         0.00000000
  -V(xc)+E(xc)   XCENC  =     -2092.59383451
  PAW double counting   =      8179.43114673    -5534.34462309
  entropy T*S    EENTRO =        -0.00000000
  eigenvalues    EBANDS =     -1292.18154787
  atomic energy  EATOM  =     11953.08265402
  Solvation  Ediel_sol  =         0.00000000
  ---------------------------------------------------
  free energy    TOTEN  =      -323.92342569 eV

  energy without entropy =     -323.92342569  energy(sigma->0) =     -323.92342569


--------------------------------------------------------------------------------------------------------




--------------------------------------- Iteration      1(  10)  ---------------------------------------


    POTLOK:  cpu time    0.3166: real time    0.3169
    SETDIJ:  cpu time    0.0151: real time    0.0151
    EDDIAG:  cpu time    2.6775: real time    2.6888
  RMM-DIIS:  cpu time   48.2659: real time   48.3966
    ORTHCH:  cpu time    0.2235: real time    0.2240
       DOS:  cpu time    0.0004: real time    0.0004
    CHARGE:  cpu time    1.2218: real time    1.2229
    MIXING:  cpu time    0.0108: real time    0.0108
    --------------------------------------------
      LOOP:  cpu time   52.7317: real time   52.8756

 eigenvalue-minimisations  :  2290
 total energy-change (2. order) : 0.2127875E-02  (-0.5174480E-01)
 number of electron     324.0000003 magnetization 
 augmentation part      -21.0525186 magnetization 

 Broyden mixing:
  rms(total) = 0.75789E-01    rms(broyden)= 0.75788E-01
  rms(prec ) = 0.83846E-01
  weight for this iteration     100.00

 eigenvalues of (default mixing * dielectric matrix)
  average eigenvalue GAMMA=   1.2494
  2.3411  1.6285  1.0448  0.8611  0.3714

 Free energy of the ion-electron system (eV)
  ---------------------------------------------------
  alpha Z        PSCENC =       240.98429769
  Ewald energy   TEWEN  =     56571.28187822
  -Hartree energ DENC   =    -68349.21327109
  -exchange      EXHF   =         0.00000000
  -V(xc)+E(xc)   XCENC  =     -2092.37102977
  PAW double counting   =      8183.45471990    -5538.31819927
  entropy T*S    EENTRO =        -0.00000000
  eigenvalues    EBANDS =     -1292.82234752
  atomic energy  EATOM  =     11953.08265402
  Solvation  Ediel_sol  =         0.00000000
  ---------------------------------------------------
  free energy    TOTEN  =      -323.92129781 eV

  energy without entropy =     -323.92129781  energy(sigma->0) =     -323.92129781


--------------------------------------------------------------------------------------------------------




--------------------------------------- Iteration      1(  11)  ---------------------------------------


    POTLOK:  cpu time    0.3169: real time    0.3173
    SETDIJ:  cpu time    0.0133: real time    0.0133
    EDDIAG:  cpu time    2.6876: real time    2.6948
  RMM-DIIS:  cpu time   45.2051: real time   45.3081
    ORTHCH:  cpu time    0.2271: real time    0.2273
       DOS:  cpu time    0.0004: real time    0.0004
    CHARGE:  cpu time    1.2236: real time    1.2248
    MIXING:  cpu time    0.0090: real time    0.0090
    --------------------------------------------
      LOOP:  cpu time   49.6829: real time   49.7950

 eigenvalue-minimisations  :  2139
 total energy-change (2. order) : 0.8041793E-02  (-0.1885121E-01)
 number of electron     324.0000003 magnetization 
 augmentation part      -21.3405899 magnetization 

 Broyden mixing:
  rms(total) = 0.46159E-01    rms(broyden)= 0.46159E-01
  rms(prec ) = 0.52847E-01
  weight for this iteration     100.00

 eigenvalues of (default mixing * dielectric matrix)
  average eigenvalue GAMMA=   1.1881
  2.5595  1.6313  1.2776  0.7663  0.5265  0.3672

 Free energy of the ion-electron system (eV)
  ---------------------------------------------------
  alpha Z        PSCENC =       240.98429769
  Ewald energy   TEWEN  =     56571.28187822
  -Hartree energ DENC   =    -68368.57075346
  -exchange      EXHF   =         0.00000000
  -V(xc)+E(xc)   XCENC  =     -2092.02219564
  PAW double counting   =      8234.73628903    -5589.85655443
  entropy T*S    EENTRO =        -0.00000000
  eigenvalues    EBANDS =     -1273.54887147
  atomic energy  EATOM  =     11953.08265402
  Solvation  Ediel_sol  =         0.00000000
  ---------------------------------------------------
  free energy    TOTEN  =      -323.91325602 eV

  energy without entropy =     -323.91325602  energy(sigma->0) =     -323.91325602


--------------------------------------------------------------------------------------------------------




--------------------------------------- Iteration      1(  12)  ---------------------------------------


    POTLOK:  cpu time    0.3186: real time    0.3189
    SETDIJ:  cpu time    0.0190: real time    0.0190
    EDDIAG:  cpu time    2.6801: real time    2.6833
  RMM-DIIS:  cpu time   53.4426: real time   53.5966
    ORTHCH:  cpu time    0.2346: real time    0.2348
       DOS:  cpu time    0.0004: real time    0.0004
    CHARGE:  cpu time    1.2273: real time    1.2284
    MIXING:  cpu time    0.0085: real time    0.0086
    --------------------------------------------
      LOOP:  cpu time   57.9311: real time   58.0900

 eigenvalue-minimisations  :  2491
 total energy-change (2. order) :-0.2084979E-04  (-0.5639504E-02)
 number of electron     324.0000003 magnetization 
 augmentation part      -21.3585527 magnetization 

 Broyden mixing:
  rms(total) = 0.34072E-01    rms(broyden)= 0.34072E-01
  rms(prec ) = 0.38870E-01
  weight for this iteration     100.00

 eigenvalues of (default mixing * dielectric matrix)
  average eigenvalue GAMMA=   1.1641
  2.5218  1.6369  1.6369  0.8015  0.8015  0.3923  0.3579

 Free energy of the ion-electron system (eV)
  ---------------------------------------------------
  alpha Z        PSCENC =       240.98429769
  Ewald energy   TEWEN  =     56571.28187822
  -Hartree energ DENC   =    -68373.31370396
  -exchange      EXHF   =         0.00000000
  -V(xc)+E(xc)   XCENC  =     -2091.88615538
  PAW double counting   =      8242.09549711    -5597.26496225
  entropy T*S    EENTRO =        -0.00000000
  eigenvalues    EBANDS =     -1268.89278232
  atomic energy  EATOM  =     11953.08265402
  Solvation  Ediel_sol  =         0.00000000
  ---------------------------------------------------
  free energy    TOTEN  =      -323.91327687 eV

  energy without entropy =     -323.91327687  energy(sigma->0) =     -323.91327687


--------------------------------------------------------------------------------------------------------




--------------------------------------- Iteration      1(  13)  ---------------------------------------


    POTLOK:  cpu time    0.3222: real time    0.3227
    SETDIJ:  cpu time    0.0117: real time    0.0117
    EDDIAG:  cpu time    2.6879: real time    2.6952
  RMM-DIIS:  cpu time   50.1327: real time   50.2799
    ORTHCH:  cpu time    0.2365: real time    0.2368
       DOS:  cpu time    0.0004: real time    0.0004
    CHARGE:  cpu time    1.2229: real time    1.2323
    MIXING:  cpu time    0.0083: real time    0.0083
    --------------------------------------------
      LOOP:  cpu time   54.6227: real time   54.7874

 eigenvalue-minimisations  :  2352
 total energy-change (2. order) : 0.2817538E-02  (-0.3503670E-02)
 number of electron     324.0000003 magnetization 
 augmentation part      -21.2222671 magnetization 

 Broyden mixing:
  rms(total) = 0.10226E-01    rms(broyden)= 0.10226E-01
  rms(prec ) = 0.13862E-01
  weight for this iteration     100.00

 eigenvalues of (default mixing * dielectric matrix)
  average eigenvalue GAMMA=   1.2566
  2.3401  2.3401  1.8698  1.1545  0.7978  0.7978  0.3944  0.3579

 Free energy of the ion-electron system (eV)
  ---------------------------------------------------
  alpha Z        PSCENC =       240.98429769
  Ewald energy   TEWEN  =     56571.28187822
  -Hartree energ DENC   =    -68374.81722410
  -exchange      EXHF   =         0.00000000
  -V(xc)+E(xc)   XCENC  =     -2091.79150187
  PAW double counting   =      8235.82155222    -5590.96847563
  entropy T*S    EENTRO =        -0.00000000
  eigenvalues    EBANDS =     -1267.50363989
  atomic energy  EATOM  =     11953.08265402
  Solvation  Ediel_sol  =         0.00000000
  ---------------------------------------------------
  free energy    TOTEN  =      -323.91045933 eV

  energy without entropy =     -323.91045933  energy(sigma->0) =     -323.91045933


--------------------------------------------------------------------------------------------------------




--------------------------------------- Iteration      1(  14)  ---------------------------------------


    POTLOK:  cpu time    0.3189: real time    0.3193
    SETDIJ:  cpu time    0.0117: real time    0.0117
    EDDIAG:  cpu time    2.6692: real time    2.6723
  RMM-DIIS:  cpu time   52.4490: real time   52.6187
    ORTHCH:  cpu time    0.2264: real time    0.2266
       DOS:  cpu time    0.0004: real time    0.0004
    CHARGE:  cpu time    1.2207: real time    1.2250
    MIXING:  cpu time    0.0106: real time    0.0106
    --------------------------------------------
      LOOP:  cpu time   56.9069: real time   57.0846

 eigenvalue-minimisations  :  2423
 total energy-change (2. order) :-0.1024175E-02  (-0.9803607E-03)
 number of electron     324.0000003 magnetization 
 augmentation part      -21.2197567 magnetization 

 Broyden mixing:
  rms(total) = 0.79611E-02    rms(broyden)= 0.79610E-02
  rms(prec ) = 0.10304E-01
  weight for this iteration     100.00

 eigenvalues of (default mixing * dielectric matrix)
  average eigenvalue GAMMA=   1.2946
  3.2315  2.5499  1.5055  1.5055  0.7984  0.7984  0.3584  0.3939  0.5104

 Free energy of the ion-electron system (eV)
  ---------------------------------------------------
  alpha Z        PSCENC =       240.98429769
  Ewald energy   TEWEN  =     56571.28187822
  -Hartree energ DENC   =    -68382.85955332
  -exchange      EXHF   =         0.00000000
  -V(xc)+E(xc)   XCENC  =     -2091.73540940
  PAW double counting   =      8232.89281169    -5587.96871464
  entropy T*S    EENTRO =        -0.00000000
  eigenvalues    EBANDS =     -1259.58944777
  atomic energy  EATOM  =     11953.08265402
  Solvation  Ediel_sol  =         0.00000000
  ---------------------------------------------------
  free energy    TOTEN  =      -323.91148350 eV

  energy without entropy =     -323.91148350  energy(sigma->0) =     -323.91148350


--------------------------------------------------------------------------------------------------------




--------------------------------------- Iteration      1(  15)  ---------------------------------------


    POTLOK:  cpu time    0.3246: real time    0.3249
    SETDIJ:  cpu time    0.0151: real time    0.0151
    EDDIAG:  cpu time    2.6737: real time    2.6769
  RMM-DIIS:  cpu time   50.4538: real time   50.5822
    ORTHCH:  cpu time    0.2299: real time    0.2301
       DOS:  cpu time    0.0004: real time    0.0004
    CHARGE:  cpu time    1.2211: real time    1.2266
    MIXING:  cpu time    0.0118: real time    0.0118
    --------------------------------------------
      LOOP:  cpu time   54.9304: real time   55.0681

 eigenvalue-minimisations  :  2374
 total energy-change (2. order) :-0.4834071E-03  (-0.2561138E-03)
 number of electron     324.0000003 magnetization 
 augmentation part      -21.2305575 magnetization 

 Broyden mixing:
  rms(total) = 0.50083E-02    rms(broyden)= 0.50083E-02
  rms(prec ) = 0.64387E-02
  weight for this iteration     100.00

 eigenvalues of (default mixing * dielectric matrix)
  average eigenvalue GAMMA=   1.2715
  3.6298  2.4817  1.5760  1.5760  0.7956  0.7956  0.7229  0.3572  0.3994  0.3806

 Free energy of the ion-electron system (eV)
  ---------------------------------------------------
  alpha Z        PSCENC =       240.98429769
  Ewald energy   TEWEN  =     56571.28187822
  -Hartree energ DENC   =    -68387.77006025
  -exchange      EXHF   =         0.00000000
  -V(xc)+E(xc)   XCENC  =     -2091.70313516
  PAW double counting   =      8232.47887879    -5587.52072509
  entropy T*S    EENTRO =        -0.00000000
  eigenvalues    EBANDS =     -1254.74575514
  atomic energy  EATOM  =     11953.08265402
  Solvation  Ediel_sol  =         0.00000000
  ---------------------------------------------------
  free energy    TOTEN  =      -323.91196691 eV

  energy without entropy =     -323.91196691  energy(sigma->0) =     -323.91196691


--------------------------------------------------------------------------------------------------------




--------------------------------------- Iteration      1(  16)  ---------------------------------------


    POTLOK:  cpu time    0.3187: real time    0.3191
    SETDIJ:  cpu time    0.0116: real time    0.0116
    EDDIAG:  cpu time    2.6813: real time    2.6847
  RMM-DIIS:  cpu time   53.4562: real time   53.5880
    ORTHCH:  cpu time    0.2292: real time    0.2297
       DOS:  cpu time    0.0004: real time    0.0004
    CHARGE:  cpu time    1.2229: real time    1.2241
    MIXING:  cpu time    0.0088: real time    0.0088
    --------------------------------------------
      LOOP:  cpu time   57.9291: real time   58.0663

 eigenvalue-minimisations  :  2484
 total energy-change (2. order) :-0.6985323E-03  (-0.9175110E-04)
 number of electron     324.0000003 magnetization 
 augmentation part      -21.2369672 magnetization 

 Broyden mixing:
  rms(total) = 0.36040E-02    rms(broyden)= 0.36040E-02
  rms(prec ) = 0.46252E-02
  weight for this iteration     100.00

 eigenvalues of (default mixing * dielectric matrix)
  average eigenvalue GAMMA=   1.2924
  3.7581  2.4354  1.8198  1.8198  0.9992  0.8040  0.8040  0.6571  0.3945  0.3562
  0.3680

 Free energy of the ion-electron system (eV)
  ---------------------------------------------------
  alpha Z        PSCENC =       240.98429769
  Ewald energy   TEWEN  =     56571.28187822
  -Hartree energ DENC   =    -68389.81280771
  -exchange      EXHF   =         0.00000000
  -V(xc)+E(xc)   XCENC  =     -2091.69053035
  PAW double counting   =      8232.57442502    -5587.61001060
  entropy T*S    EENTRO =        -0.00000000
  eigenvalues    EBANDS =     -1252.72257173
  atomic energy  EATOM  =     11953.08265402
  Solvation  Ediel_sol  =         0.00000000
  ---------------------------------------------------
  free energy    TOTEN  =      -323.91266544 eV

  energy without entropy =     -323.91266544  energy(sigma->0) =     -323.91266544


--------------------------------------------------------------------------------------------------------




--------------------------------------- Iteration      1(  17)  ---------------------------------------


    POTLOK:  cpu time    0.3223: real time    0.3227
    SETDIJ:  cpu time    0.0120: real time    0.0120
    EDDIAG:  cpu time    2.6711: real time    2.6783
  RMM-DIIS:  cpu time   47.8709: real time   48.0130
    ORTHCH:  cpu time    0.2359: real time    0.2362
       DOS:  cpu time    0.0004: real time    0.0004
    CHARGE:  cpu time    1.2276: real time    1.2290
    MIXING:  cpu time    0.0116: real time    0.0116
    --------------------------------------------
      LOOP:  cpu time   52.3519: real time   52.5032

 eigenvalue-minimisations  :  2227
 total energy-change (2. order) :-0.1366377E-02  (-0.2956006E-04)
 number of electron     324.0000003 magnetization 
 augmentation part      -21.2342989 magnetization 

 Broyden mixing:
  rms(total) = 0.23276E-02    rms(broyden)= 0.23276E-02
  rms(prec ) = 0.31383E-02
  weight for this iteration     100.00

 eigenvalues of (default mixing * dielectric matrix)
  average eigenvalue GAMMA=   1.3159
  4.0633  2.4277  2.2264  1.7361  1.2773  0.7983  0.7983  0.7937  0.5562  0.3946
  0.3566  0.3624

 Free energy of the ion-electron system (eV)
  ---------------------------------------------------
  alpha Z        PSCENC =       240.98429769
  Ewald energy   TEWEN  =     56571.28187822
  -Hartree energ DENC   =    -68391.93842195
  -exchange      EXHF   =         0.00000000
  -V(xc)+E(xc)   XCENC  =     -2091.67911537
  PAW double counting   =      8231.97091609    -5587.01004731
  entropy T*S    EENTRO =        -0.00000000
  eigenvalues    EBANDS =     -1250.60619322
  atomic energy  EATOM  =     11953.08265402
  Solvation  Ediel_sol  =         0.00000000
  ---------------------------------------------------
  free energy    TOTEN  =      -323.91403182 eV

  energy without entropy =     -323.91403182  energy(sigma->0) =     -323.91403182


--------------------------------------------------------------------------------------------------------




--------------------------------------- Iteration      1(  18)  ---------------------------------------


    POTLOK:  cpu time    0.3229: real time    0.3272
    SETDIJ:  cpu time    0.0115: real time    0.0115
    EDDIAG:  cpu time    2.6820: real time    2.6850
  RMM-DIIS:  cpu time   46.0891: real time   46.2268
    ORTHCH:  cpu time    0.2233: real time    0.2236
       DOS:  cpu time    0.0004: real time    0.0004
    CHARGE:  cpu time    1.2254: real time    1.2271
    MIXING:  cpu time    0.0139: real time    0.0139
    --------------------------------------------
      LOOP:  cpu time   50.5686: real time   50.7156

 eigenvalue-minimisations  :  2155
 total energy-change (2. order) :-0.1053027E-02  (-0.2375954E-04)
 number of electron     324.0000003 magnetization 
 augmentation part      -21.2347564 magnetization 

 Broyden mixing:
  rms(total) = 0.19019E-02    rms(broyden)= 0.19019E-02
  rms(prec ) = 0.23898E-02
  weight for this iteration     100.00

 eigenvalues of (default mixing * dielectric matrix)
  average eigenvalue GAMMA=   1.3893
  4.9236  2.9095  2.3551  1.5834  1.5834  0.9518  0.8104  0.8104  0.6348  0.3955
  0.3924  0.3578  0.3527

 Free energy of the ion-electron system (eV)
  ---------------------------------------------------
  alpha Z        PSCENC =       240.98429769
  Ewald energy   TEWEN  =     56571.28187822
  -Hartree energ DENC   =    -68393.84541714
  -exchange      EXHF   =         0.00000000
  -V(xc)+E(xc)   XCENC  =     -2091.67204746
  PAW double counting   =      8231.43302525    -5586.47386728
  entropy T*S    EENTRO =        -0.00000000
  eigenvalues    EBANDS =     -1248.70560815
  atomic energy  EATOM  =     11953.08265402
  Solvation  Ediel_sol  =         0.00000000
  ---------------------------------------------------
  free energy    TOTEN  =      -323.91508485 eV

  energy without entropy =     -323.91508485  energy(sigma->0) =     -323.91508485


--------------------------------------------------------------------------------------------------------




--------------------------------------- Iteration      1(  19)  ---------------------------------------


    POTLOK:  cpu time    0.3194: real time    0.3208
    SETDIJ:  cpu time    0.0115: real time    0.0115
    EDDIAG:  cpu time    2.6747: real time    2.6777
  RMM-DIIS:  cpu time   44.4225: real time   44.5430
    ORTHCH:  cpu time    0.2277: real time    0.2279
       DOS:  cpu time    0.0004: real time    0.0004
    CHARGE:  cpu time    1.2253: real time    1.2266
    MIXING:  cpu time    0.0096: real time    0.0096
    --------------------------------------------
      LOOP:  cpu time   48.8910: real time   49.0175

 eigenvalue-minimisations  :  2095
 total energy-change (2. order) :-0.8972493E-03  (-0.1936110E-04)
 number of electron     324.0000003 magnetization 
 augmentation part      -21.2359673 magnetization 

 Broyden mixing:
  rms(total) = 0.12802E-02    rms(broyden)= 0.12802E-02
  rms(prec ) = 0.15806E-02
  weight for this iteration     100.00

 eigenvalues of (default mixing * dielectric matrix)
  average eigenvalue GAMMA=   1.5051
  6.0456  3.1858  2.3591  1.8240  1.8240  1.0466  1.0466  0.7993  0.7993  0.6440
  0.3965  0.3888  0.3592  0.3526

 Free energy of the ion-electron system (eV)
  ---------------------------------------------------
  alpha Z        PSCENC =       240.98429769
  Ewald energy   TEWEN  =     56571.28187822
  -Hartree energ DENC   =    -68395.56802728
  -exchange      EXHF   =         0.00000000
  -V(xc)+E(xc)   XCENC  =     -2091.66759465
  PAW double counting   =      8231.13182177    -5586.17281328
  entropy T*S    EENTRO =        -0.00000000
  eigenvalues    EBANDS =     -1246.98819859
  atomic energy  EATOM  =     11953.08265402
  Solvation  Ediel_sol  =         0.00000000
  ---------------------------------------------------
  free energy    TOTEN  =      -323.91598210 eV

  energy without entropy =     -323.91598210  energy(sigma->0) =     -323.91598210


--------------------------------------------------------------------------------------------------------




--------------------------------------- Iteration      1(  20)  ---------------------------------------


    POTLOK:  cpu time    0.3363: real time    0.3366
    SETDIJ:  cpu time    0.0138: real time    0.0138
    EDDIAG:  cpu time    2.6614: real time    2.6758
  RMM-DIIS:  cpu time   44.7426: real time   44.8719
    ORTHCH:  cpu time    0.2242: real time    0.2244
       DOS:  cpu time    0.0004: real time    0.0004
    CHARGE:  cpu time    1.2258: real time    1.2311
    MIXING:  cpu time    0.0090: real time    0.0091
    --------------------------------------------
      LOOP:  cpu time   49.2135: real time   49.3631

 eigenvalue-minimisations  :  2092
 total energy-change (2. order) :-0.5720965E-03  (-0.9630110E-05)
 number of electron     324.0000003 magnetization 
 augmentation part      -21.2327410 magnetization 

 Broyden mixing:
  rms(total) = 0.60970E-03    rms(broyden)= 0.60970E-03
  rms(prec ) = 0.71576E-03
  weight for this iteration     100.00

 eigenvalues of (default mixing * dielectric matrix)
  average eigenvalue GAMMA=   1.4908
  6.4568  3.2583  2.4121  1.8171  1.8171  1.1073  1.1073  0.8030  0.8030  0.6404
  0.6404  0.3965  0.3905  0.3593  0.3525

 Free energy of the ion-electron system (eV)
  ---------------------------------------------------
  alpha Z        PSCENC =       240.98429769
  Ewald energy   TEWEN  =     56571.28187822
  -Hartree energ DENC   =    -68396.13602148
  -exchange      EXHF   =         0.00000000
  -V(xc)+E(xc)   XCENC  =     -2091.66893328
  PAW double counting   =      8231.61522854    -5586.65638623
  entropy T*S    EENTRO =        -0.00000000
  eigenvalues    EBANDS =     -1246.41927168
  atomic energy  EATOM  =     11953.08265402
  Solvation  Ediel_sol  =         0.00000000
  ---------------------------------------------------
  free energy    TOTEN  =      -323.91655419 eV

  energy without entropy =     -323.91655419  energy(sigma->0) =     -323.91655419


--------------------------------------------------------------------------------------------------------




--------------------------------------- Iteration      1(  21)  ---------------------------------------


    POTLOK:  cpu time    0.3343: real time    0.3346
    SETDIJ:  cpu time    0.0120: real time    0.0120
    EDDIAG:  cpu time    2.6698: real time    2.6726
  RMM-DIIS:  cpu time   50.1537: real time   50.2695
    ORTHCH:  cpu time    0.2357: real time    0.2359
       DOS:  cpu time    0.0005: real time    0.0005
    CHARGE:  cpu time    1.2248: real time    1.2300
    MIXING:  cpu time    0.0157: real time    0.0157
    --------------------------------------------
      LOOP:  cpu time   54.6465: real time   54.7708

 eigenvalue-minimisations  :  2330
 total energy-change (2. order) :-0.1026381E-03  (-0.3277573E-05)
 number of electron     324.0000003 magnetization 
 augmentation part      -21.2324873 magnetization 

 Broyden mixing:
  rms(total) = 0.55459E-03    rms(broyden)= 0.55459E-03
  rms(prec ) = 0.65999E-03
  weight for this iteration     100.00

 eigenvalues of (default mixing * dielectric matrix)
  average eigenvalue GAMMA=   1.5286
  7.0577  3.3201  2.5556  1.8237  1.7506  1.7506  1.0420  1.0420  0.7956  0.7956
  0.6541  0.3951  0.3914  0.3519  0.3587  0.3722

 Free energy of the ion-electron system (eV)
  ---------------------------------------------------
  alpha Z        PSCENC =       240.98429769
  Ewald energy   TEWEN  =     56571.28187822
  -Hartree energ DENC   =    -68396.26069566
  -exchange      EXHF   =         0.00000000
  -V(xc)+E(xc)   XCENC  =     -2091.66929514
  PAW double counting   =      8231.74898010    -5586.79058355
  entropy T*S    EENTRO =        -0.00000000
  eigenvalues    EBANDS =     -1246.29389253
  atomic energy  EATOM  =     11953.08265402
  Solvation  Ediel_sol  =         0.00000000
  ---------------------------------------------------
  free energy    TOTEN  =      -323.91665683 eV

  energy without entropy =     -323.91665683  energy(sigma->0) =     -323.91665683


--------------------------------------------------------------------------------------------------------




--------------------------------------- Iteration      1(  22)  ---------------------------------------


    POTLOK:  cpu time    0.3191: real time    0.3194
    SETDIJ:  cpu time    0.0115: real time    0.0115
    EDDIAG:  cpu time    2.7047: real time    2.7076
  RMM-DIIS:  cpu time   42.7052: real time   42.8303
    ORTHCH:  cpu time    0.2433: real time    0.2435
       DOS:  cpu time    0.0004: real time    0.0004
    CHARGE:  cpu time    1.2295: real time    1.2308
    MIXING:  cpu time    0.0094: real time    0.0094
    --------------------------------------------
      LOOP:  cpu time   47.2232: real time   47.3530

 eigenvalue-minimisations  :  1900
 total energy-change (2. order) :-0.1195086E-03  (-0.1056616E-05)
 number of electron     324.0000003 magnetization 
 augmentation part      -21.2341397 magnetization 

 Broyden mixing:
  rms(total) = 0.22830E-03    rms(broyden)= 0.22830E-03
  rms(prec ) = 0.28322E-03
  weight for this iteration     100.00

 eigenvalues of (default mixing * dielectric matrix)
  average eigenvalue GAMMA=   1.5477
  7.3299  3.4316  2.5869  2.1732  1.8311  1.8311  1.0208  1.0208  0.9806  0.7956
  0.7956  0.6534  0.3974  0.3918  0.3513  0.3624  0.3578

[...]
 -0.000  -0.000   0.000  -0.000   0.000   0.011   0.000  -0.000
  0.000  -0.000  -0.000   0.000   0.000   0.000   0.011  -0.000
  0.000   0.000   0.000   0.000   0.000  -0.000  -0.000   0.011
  0.000  -0.000  -0.001  -0.000  -0.000   0.000   0.000  -0.000
  0.000   0.000   0.014   0.001  -0.000   0.000  -0.000   0.000
 -0.009  -0.000  -0.000   0.018   0.000   0.000   0.000  -0.000
 -0.000  -0.000  -0.000  -0.001   0.014   0.000   0.000   0.000
 -0.000   0.000  -0.001   0.000  -0.001  -0.000  -0.000   0.000
 total augmentation occupancy for first ion, spin component:           1
  1.935   0.196   0.002  -0.200   0.000  -0.003  -0.036   0.005  -0.001   0.001   0.006  -0.001   0.001
  0.196   1.293   0.004   0.924  -0.018  -0.004  -0.356   0.019  -0.000   0.001  -0.022  -0.002  -0.001
  0.002   0.004   1.327   0.006  -0.008  -0.464  -0.002   0.005  -0.004   0.113   0.001  -0.001   0.043
 -0.200   0.924   0.006   1.494  -0.009  -0.002  -0.529   0.006  -0.002   0.002   0.037  -0.004   0.002
  0.000  -0.018  -0.008  -0.009   1.335   0.005   0.005  -0.472   0.044  -0.002   0.001   0.116  -0.001
 -0.003  -0.004  -0.464  -0.002   0.005   0.287   0.001  -0.000   0.002  -0.036   0.001   0.000  -0.007
 -0.036  -0.356  -0.002  -0.529   0.005   0.001   0.273  -0.002  -0.000  -0.001  -0.043   0.002  -0.000
  0.005   0.019   0.005   0.006  -0.472  -0.000  -0.002   0.287  -0.009   0.000  -0.001  -0.037   0.003
 -0.001  -0.000  -0.004  -0.002   0.044   0.002  -0.000  -0.009   0.019  -0.000   0.000  -0.000  -0.000
  0.001   0.001   0.113   0.002  -0.002  -0.036  -0.001   0.000  -0.000   0.017   0.000  -0.000  -0.001
  0.006  -0.022   0.001   0.037   0.001   0.001  -0.043  -0.001   0.000   0.000   0.019  -0.000  -0.000
 -0.001  -0.002  -0.001  -0.004   0.116   0.000   0.002  -0.037  -0.000  -0.000  -0.000   0.017  -0.000
  0.001  -0.001   0.043   0.002  -0.001  -0.007  -0.000   0.003  -0.000  -0.001  -0.000  -0.000   0.019


------------------------ aborting loop because EDIFF is reached ----------------------------------------


    CHARGE:  cpu time    1.2291: real time    1.2303
    FORLOC:  cpu time    0.0839: real time    0.0840
    FORNL :  cpu time   14.4443: real time   14.4695
    STRESS:  cpu time   77.9311: real time   78.1214
    FORCOR:  cpu time    0.3618: real time    0.3621
    FORHAR:  cpu time    0.1511: real time    0.1512
    MIXING:  cpu time    0.0078: real time    0.0078
    OFIELD:  cpu time    0.0000: real time    0.0000

  Number of pair interactions contributing to vdW energy:  264432
  Edisp (eV):  -18.37927
    FORVDW:  cpu time    0.0292: real time    0.0292

  FORCE on cell =-STRESS in cart. coord.  units (eV):
  Direction    XX          YY          ZZ          XY          YZ          ZX
  --------------------------------------------------------------------------------------
  Alpha Z   240.98430   240.98430   240.98430
  Ewald   65690.58862 65735.98542-74778.73753    18.27679    38.17962    -9.46613
  Hartree 68075.02640 68086.88109-67690.61740     4.58763     6.04398    -2.63605
  E(xc)   -1348.22992 -1348.93401 -1367.27838    -0.33338    -1.18896     0.11247
  Local  ************************137417.67369   -22.26770   -43.52498    11.88355
  n-local  3537.80064  3538.89070  3717.47680     0.26957     8.43917    -0.80094
  augment  -760.76558  -760.20403  -800.27004     0.29783    -1.30979     0.06732
  Kinetic  3270.59143  3276.87336  3243.73717     3.24089     5.99046    -1.41237
  Fock        0.00000     0.00000     0.00000     0.00000     0.00000     0.00000
  vdW       -11.63202   -11.61072    -8.41806     0.00851    -0.32442    -0.01181
  -------------------------------------------------------------------------------------
  Total     -22.59397   -13.57786   -25.44946     4.08014    12.30508    -2.26397
  in kB     -12.15540    -7.30480   -13.69164     2.19509     6.62005    -1.21800
  external pressure =      -11.05 kB  Pullay stress =        0.00 kB

  kinetic pressure (ideal gas correction) =      0.21 kB
  total pressure  =    -10.84 kB
  Total+kin.   -11.891      -7.165     -13.466       2.198       6.583      -1.185

 VOLUME and BASIS-vectors are now :
 -----------------------------------------------------------------------------
  energy-cutoff  :      550.00
  volume of cell :     2978.06
      direct lattice vectors                 reciprocal lattice vectors
    10.692972974  0.000000000  0.000000000     0.093519361  0.055348257  0.000854088
    -5.429539557  9.174039042  0.000000000     0.000000000  0.109003242  0.001836075
     0.025388502 -0.511358857 30.358106579     0.000000000  0.000000000  0.032940131

  length of vectors
    10.692972974 10.660342028 30.362423611     0.108673961  0.109018705  0.032940131


 FORCES acting on ions
    electron-ion (+dipol)            ewald-force                    non-local-force                 convergence-correction
 -----------------------------------------------------------------------------------------------
   -.396E+01 0.146E+01 0.799E+03   0.399E+01 -.144E+01 -.805E+03   0.258E+00 -.218E+00 0.560E+01   -.961E-03 0.571E-03 -.620E-03
   0.226E+01 -.811E+00 0.799E+03   -.223E+01 0.863E+00 -.805E+03   -.319E+00 -.122E+00 0.537E+01   -.274E-04 -.485E-03 0.195E-03
   0.145E+01 -.176E+01 0.800E+03   -.143E+01 0.179E+01 -.806E+03   -.190E+00 -.859E-01 0.599E+01   0.262E-03 -.531E-03 -.685E-03
   0.177E+01 0.146E+01 0.801E+03   -.176E+01 -.140E+01 -.806E+03   -.155E+00 -.327E+00 0.563E+01   0.108E-02 0.455E-03 -.514E-04
   -.114E+01 0.799E+00 0.798E+03   0.120E+01 -.803E+00 -.804E+03   -.118E-01 -.865E-01 0.576E+01   0.440E-03 0.684E-03 0.263E-03
   0.187E+00 -.234E+01 0.802E+03   -.153E+00 0.239E+01 -.807E+03   -.856E-01 0.307E-01 0.568E+01   0.692E-03 0.879E-04 0.833E-04
   0.296E+01 0.118E+01 0.800E+03   -.296E+01 -.120E+01 -.805E+03   -.242E+00 -.206E+00 0.568E+01   -.129E-03 0.154E-03 0.980E-03
   0.138E+01 -.105E+01 0.799E+03   -.134E+01 0.111E+01 -.805E+03   -.228E+00 -.909E-01 0.559E+01   -.336E-03 -.453E-03 0.971E-03
   0.721E+00 0.137E+01 0.801E+03   -.634E+00 -.135E+01 -.806E+03   -.247E+00 -.190E+00 0.552E+01   -.945E-03 -.616E-03 0.206E-03
   0.296E+01 0.538E+00 -.839E+02   -.297E+01 -.494E+00 0.785E+02   -.204E+00 -.243E+00 0.583E+01   -.140E-02 0.564E-03 0.718E-03
   -.154E+01 -.445E+00 -.860E+02   0.147E+01 0.484E+00 0.806E+02   0.294E+00 -.634E-01 0.587E+01   -.266E-02 -.152E-02 0.123E-02
   -.141E+00 0.338E+00 -.840E+02   0.155E+00 -.260E+00 0.787E+02   -.474E-01 -.153E+00 0.599E+01   -.567E-03 -.176E-02 0.437E-03
   0.227E+00 0.166E+01 -.851E+02   -.250E+00 -.169E+01 0.797E+02   0.127E-01 -.233E+00 0.555E+01   0.845E-03 0.980E-03 0.284E-04
   0.159E+01 -.117E+01 -.871E+02   -.163E+01 0.124E+01 0.816E+02   0.636E-01 -.750E-01 0.565E+01   0.120E-02 -.703E-03 -.767E-03
   0.162E+01 -.150E+01 -.857E+02   -.164E+01 0.149E+01 0.803E+02   -.833E-01 0.183E+00 0.584E+01   0.330E-03 0.116E-02 -.122E-02
   -.198E+01 0.816E+00 -.842E+02   0.195E+01 -.772E+00 0.789E+02   0.329E+00 -.253E+00 0.565E+01   0.490E-03 0.142E-02 0.153E-02
   -.106E+01 -.830E+00 -.840E+02   0.103E+01 0.977E+00 0.786E+02   0.267E+00 -.354E+00 0.574E+01   0.137E-02 -.194E-03 0.158E-02
   0.766E-01 -.264E+00 -.836E+02   -.123E+00 0.364E+00 0.782E+02   0.164E+00 -.285E+00 0.599E+01   0.220E-03 0.128E-03 -.931E-05
   0.124E+01 -.107E+01 0.837E+02   -.124E+01 0.993E+00 -.783E+02   -.171E+00 0.310E+00 -.599E+01   -.837E-03 0.495E-03 0.256E-03
   -.243E+00 0.110E+01 0.830E+02   0.282E+00 -.122E+01 -.776E+02   -.387E-01 0.236E+00 -.594E+01   -.339E-03 -.463E-03 -.560E-03
   0.262E+01 -.186E+01 0.873E+02   -.259E+01 0.178E+01 -.819E+02   -.301E+00 0.299E+00 -.583E+01   0.198E-03 -.679E-03 0.387E-03
   0.117E+01 0.787E+00 0.838E+02   -.111E+01 -.883E+00 -.784E+02   -.159E+00 0.150E+00 -.570E+01   0.119E-02 0.552E-03 -.162E-03
   0.161E+01 -.269E+00 0.853E+02   -.159E+01 0.214E+00 -.799E+02   -.109E+00 0.184E+00 -.590E+01   0.671E-03 0.731E-03 -.598E-03
   -.130E+01 -.226E+01 0.850E+02   0.130E+01 0.217E+01 -.797E+02   0.134E+00 0.495E+00 -.567E+01   0.627E-03 0.171E-03 -.678E-03
   -.119E+01 -.408E+00 0.858E+02   0.125E+01 0.284E+00 -.804E+02   0.608E-02 0.293E+00 -.586E+01   -.277E-03 0.311E-03 -.120E-02
   -.395E+00 -.250E+01 0.835E+02   0.415E+00 0.245E+01 -.781E+02   -.647E-02 0.348E+00 -.572E+01   -.325E-03 -.440E-03 -.804E-03
   -.548E-01 -.826E+00 0.831E+02   0.128E+00 0.778E+00 -.777E+02   -.628E-01 0.212E+00 -.572E+01   -.833E-03 -.675E-03 -.509E-03
   0.164E+01 0.858E+00 -.800E+03   -.159E+01 -.956E+00 0.805E+03   -.256E+00 0.487E-01 -.583E+01   -.132E-02 0.625E-03 -.188E-04
   0.254E+01 -.109E+01 -.798E+03   -.259E+01 0.101E+01 0.804E+03   -.151E+00 0.328E+00 -.584E+01   -.240E-02 -.154E-02 -.625E-03
   0.132E+01 0.113E+01 -.799E+03   -.136E+01 -.118E+01 0.805E+03   -.793E-01 0.178E+00 -.577E+01   -.534E-03 -.169E-02 0.989E-04
   -.252E+01 -.351E+01 -.800E+03   0.260E+01 0.340E+01 0.805E+03   0.311E-01 0.557E+00 -.560E+01   0.671E-03 0.905E-03 0.611E-03
   -.641E+00 -.794E+00 -.799E+03   0.709E+00 0.735E+00 0.804E+03   -.472E-01 0.275E+00 -.581E+01   0.100E-02 -.690E-03 0.126E-02
   0.776E+00 -.321E+01 -.801E+03   -.761E+00 0.308E+01 0.806E+03   -.227E-01 0.689E+00 -.559E+01   0.196E-03 0.109E-02 0.197E-02
   0.351E+01 -.375E+01 -.802E+03   -.352E+01 0.369E+01 0.808E+03   -.289E+00 0.459E+00 -.572E+01   0.718E-03 0.134E-02 -.935E-03
   -.121E+01 0.105E+01 -.800E+03   0.125E+01 -.111E+01 0.805E+03   0.746E-01 0.900E-01 -.587E+01   0.139E-02 -.102E-03 -.133E-02
   -.103E+01 -.160E+00 -.798E+03   0.109E+01 0.102E+00 0.803E+03   0.307E-01 0.226E+00 -.546E+01   0.321E-03 0.128E-03 0.431E-03
   -.548E+01 0.790E+00 0.442E+03   0.556E+01 -.822E+00 -.442E+03   0.574E+00 0.243E-01 0.298E-01   -.802E-03 -.334E-03 -.439E-03
   -.121E+01 0.151E+01 0.442E+03   0.125E+01 -.154E+01 -.441E+03   -.312E-01 -.334E-02 0.560E+00   -.105E-02 0.107E-03 -.399E-03
   0.244E+00 -.801E+00 0.440E+03   -.205E+00 0.797E+00 -.440E+03   0.127E+00 -.113E+00 -.652E-01   -.332E-03 -.103E-02 -.434E-03
   0.128E+01 -.620E+00 0.446E+03   -.124E+01 0.627E+00 -.446E+03   -.813E-02 0.683E-01 -.666E-01   0.101E-02 0.712E-04 -.371E-03
   0.998E+00 0.178E+01 0.441E+03   -.100E+01 -.182E+01 -.441E+03   -.882E-01 -.464E-01 -.872E-01   0.468E-03 0.101E-02 -.503E-03
   -.320E+01 0.191E+01 0.442E+03   0.326E+01 -.196E+01 -.442E+03   0.259E+00 -.274E+00 0.225E+00   0.310E-03 0.493E-04 -.478E-03
   0.628E+00 0.299E+00 0.443E+03   -.616E+00 -.322E+00 -.443E+03   -.100E+00 -.282E+00 0.741E-02   -.144E-03 0.209E-03 -.423E-03
   -.208E+01 0.217E+01 0.441E+03   0.212E+01 -.223E+01 -.441E+03   0.377E+00 -.713E-01 -.112E+00   0.619E-03 0.262E-03 -.396E-03
   -.451E+00 0.882E+00 0.442E+03   0.515E+00 -.894E+00 -.442E+03   -.217E-01 -.252E-01 -.362E-01   -.693E-06 -.255E-03 -.403E-03
   -.823E+00 0.645E+00 -.441E+03   0.884E+00 -.618E+00 0.441E+03   -.389E-01 0.870E-01 -.360E-01   -.572E-03 -.224E-03 0.648E-03
   -.937E+00 0.641E+00 -.441E+03   0.929E+00 -.716E+00 0.441E+03   0.219E+00 -.476E-01 0.900E-01   -.157E-02 0.210E-03 0.633E-03
   -.637E+00 0.419E+00 -.443E+03   0.582E+00 -.434E+00 0.443E+03   -.179E-01 0.179E+00 0.143E+00   -.801E-03 -.168E-02 0.572E-03
   -.175E+01 0.382E+01 -.443E+03   0.176E+01 -.396E+01 0.443E+03   0.234E+00 -.416E+00 -.211E+00   -.368E-03 0.262E-03 0.588E-03
   -.205E+00 -.253E+00 -.442E+03   0.221E+00 0.196E+00 0.442E+03   0.117E+00 0.147E+00 0.293E+00   -.139E-05 -.149E-03 0.596E-03
   0.189E+01 0.297E+01 -.440E+03   -.195E+01 -.309E+01 0.440E+03   -.172E+00 -.608E+00 0.532E-01   -.101E-02 -.113E-02 0.670E-03
   0.808E+00 0.367E+00 -.446E+03   -.838E+00 -.408E+00 0.446E+03   -.233E+00 -.123E+00 -.317E+00   0.895E-03 0.184E-02 0.497E-03
   -.219E+01 -.461E+00 -.443E+03   0.224E+01 0.505E+00 0.443E+03   -.148E+00 0.160E+00 0.590E+00   0.159E-02 0.126E-02 0.501E-03
   -.115E+01 -.613E-02 -.441E+03   0.116E+01 0.415E-01 0.441E+03   -.180E+00 0.422E-01 0.695E-01   0.190E-02 -.436E-03 0.605E-03
 -----------------------------------------------------------------------------------------------
   0.969E+00 -.130E+01 -.254E+00   -.178E-13 0.362E-13 0.455E-12   -.973E+00 0.130E+01 0.249E+00   0.165E-03 0.430E-04 0.391E-02
 
 
 POSITION                                       TOTAL-FORCE (eV/Angst)
 -----------------------------------------------------------------------------------
     -0.03512      1.86729      9.50403         0.275262     -0.190797      0.291112
     -1.79376      4.93558      9.52386        -0.283712     -0.062097      0.011016
     -3.62195      7.98166      9.47559        -0.172914     -0.057029      0.664266
      3.56221      1.88905      9.49667        -0.134922     -0.252085      0.342809
      1.73910      4.91902      9.50824         0.047783     -0.086518      0.386570
     -0.04752      7.97969      9.48565        -0.048533      0.074245      0.360649
      7.13329      1.89970      9.50171        -0.234755     -0.207767      0.333263
      5.33243      4.92410      9.51399        -0.188346     -0.034846      0.267208
      3.49953      7.98103      9.50195        -0.160077     -0.161515      0.225147
     -0.29802      2.26242     17.18216        -0.215621     -0.187061      0.385142
     -2.14013      5.30984     17.19220         0.212728     -0.020346      0.378044
     -3.91927      8.36237     17.17365        -0.034249     -0.069975      0.555036
      3.24358      2.27356     17.20877        -0.015221     -0.242320      0.064182
      1.43308      5.31305     17.22068         0.020261      0.002495      0.070451
     -0.35422      8.37785     17.19871        -0.091129      0.178829      0.390558
      6.79101      2.25936     17.19102         0.291661     -0.196418      0.266635
      4.97898      5.32358     17.18318         0.220928     -0.193188      0.297873
      3.18596      8.39170     17.17418         0.109407     -0.169459      0.548961
      0.00630      1.79908     13.18444        -0.165539      0.216421     -0.560646
     -1.81430      4.87692     13.17475         0.002468      0.100440     -0.466227
     -3.60475      7.93753     13.15227        -0.257712      0.204939     -0.364991
      3.56324      1.81592     13.16448        -0.092912      0.048769     -0.253742
      1.74586      4.88278     13.16294        -0.085839      0.124741     -0.399348
     -0.07833      7.92033     13.14947         0.133379      0.387879     -0.233816
      7.11520      1.83430     13.15659         0.069149      0.165355     -0.382634
      5.30488      4.86824     13.16749         0.011752      0.288800     -0.259465
      3.47911      7.93244     13.16847         0.007269      0.153013     -0.306007
     -0.28352      2.22158     20.87174        -0.194584     -0.046596     -0.570459
     -2.08325      5.25707     20.86401        -0.189492      0.243220     -0.553924
     -3.91660      8.30870     20.86364        -0.115819      0.119973     -0.475148
      3.24765      2.19133     20.85418         0.098626      0.432310     -0.319123
      1.44981      5.26220     20.85592         0.018670      0.208514     -0.465870
     -0.36225      8.30467     20.86543        -0.010317      0.549168     -0.291764
      6.86501      2.18630     20.88595        -0.283103      0.387402     -0.517145
      5.00326      5.25615     20.86939         0.106925      0.021214     -0.601102
      3.21465      8.31550     20.83208         0.088749      0.162109     -0.131892
      5.22891      8.96932     11.32997         0.695007      0.003069      0.053141
     -1.78584      2.87341     11.30532        -0.002595     -0.033090      0.754203
      7.08363      5.92143     11.34138         0.159381     -0.118462     -0.076504
     -1.84535      8.97887     11.31992         0.010252      0.073622     -0.149370
      1.76836      2.85094     11.34336        -0.108015     -0.078011     -0.119543
     -0.05858      5.94167     11.31885         0.345405     -0.332698      0.278544
      7.14370     -0.17583     11.32713        -0.103277     -0.307529     -0.009834
      5.30284      2.87198     11.34113         0.438702     -0.130555     -0.159394
      3.52162      5.92318     11.33599         0.023022     -0.046224     -0.074446
     -0.27453      0.18529     19.01880         0.012732      0.109537     -0.038326
      8.59050      3.24798     19.02087         0.231808     -0.110016      0.070655
      6.78494      6.28701     19.01724        -0.060020      0.179231      0.215058
      3.26114      0.21596     19.03960         0.252655     -0.568900     -0.313652
      1.45389      3.24386     19.01324         0.136340      0.112665      0.366371
     -0.33210      6.35477     19.02314        -0.235515     -0.754123      0.004671
      6.86145      0.20471     19.05103        -0.262077     -0.171748     -0.381653
      5.04094      3.23467     18.99586        -0.110960      0.212502      0.797310
      3.23478      6.30182     19.01713        -0.167846      0.069921      0.096199
 -----------------------------------------------------------------------------------
    total drift:                               -0.004782      0.001012     -0.000951


--------------------------------------------------------------------------------------------------------



  FREE ENERGIE OF THE ION-ELECTRON SYSTEM (eV)
  ---------------------------------------------------
  free  energy   TOTEN  =      -342.16335809 eV

  energy  without entropy=     -342.16335809  energy(sigma->0) =     -342.16335809
 
 d Force =-0.1979888E-01[-0.218E-01,-0.178E-01]  d Energy =-0.1974900E-01-0.499E-04
 d Force =-0.1498356E+02[-0.150E+02,-0.150E+02]  d Ewald  =-0.1498356E+02-0.443E-07


--------------------------------------------------------------------------------------------------------


    POTLOK:  cpu time    0.3410: real time    0.3413


--------------------------------------------------------------------------------------------------------


           RANDOM_SEED =         264382979              324                0
   IONSTEP:  cpu time    0.0001: real time    0.0001

  ENERGY OF THE ELECTRON-ION-THERMOSTAT SYSTEM (eV)
  ---------------------------------------------------
% ion-electron   TOTEN  =      -342.163358  see above
  kinetic energy EKIN   =         0.579335
  kin. lattice  EKIN_LAT=         0.000000  (temperature   84.56 K)
  nose potential ES     =        -0.030465
  nose kinetic   EPS    =         0.003522
  ---------------------------------------------------
  total energy   ETOTAL =      -341.610966 eV

  maximum distance moved by ions :      0.53E-03


 mean value of Nose-termostat <S>:     0.969 mean value of <T> :    84.564
 mean temperature <T/S>/<1/S>  :    84.564

    WAVPRE:  cpu time    0.1086: real time    0.1156
    FEWALD:  cpu time    0.0019: real time    0.0019
    ORTHCH:  cpu time    8.6907: real time    8.7044
    POTLOK:  cpu time    0.3423: real time    0.3427
    EDDIAG:  cpu time    2.7013: real time    2.7042
     LOOP+:  cpu time  511.1905: real time  512.5570
    4ORBIT:  cpu time    0.0000: real time    0.0000

 total amount of memory used by VASP MPI-rank0   377819. kBytes
=======================================================================

   base      :      30000. kBytes
   nonl-proj :     201277. kBytes
   fftplans  :      19943. kBytes
   grid      :      90496. kBytes
   one-center:        839. kBytes
   wavefun   :      35264. kBytes
 
  
  
 General timing and accounting informations for this job:
 ========================================================
  
                  Total CPU time used (sec):     6227.473
                            User time (sec):     6213.136
                          System time (sec):       14.337
                         Elapsed time (sec):     6245.828
  
                   Maximum memory used (kb):      844576.
                   Average memory used (kb):           0.
  
                          Minor page faults:       368309
                          Major page faults:            0
                 Voluntary context switches:         1303
