 vasp.6.1.1 19Jun20 (build Dec 21 2021 08:45:49) complex                        
  
 executed on             LinuxIFC date 2023.10.05  08:30:12
 running on   40 total cores
 distrk:  each k-point on   40 cores,    1 groups
 distr:  one band on NCORE=   1 cores,   40 groups


--------------------------------------------------------------------------------------------------------


 INCAR:
 POTCAR:   PAW_PBE Te 08Apr2002                   
 POTCAR:   PAW_PBE Mo 08Apr2002                   
 -----------------------------------------------------------------------------
|                                                                             |
|           W    W    AA    RRRRR   N    N  II  N    N   GGGG   !!!           |
|           W    W   A  A   R    R  NN   N  II  NN   N  G    G  !!!           |
|           W    W  A    A  R    R  N N  N  II  N N  N  G       !!!           |
|           W WW W  AAAAAA  RRRRR   N  N N  II  N  N N  G  GGG   !            |
|           WW  WW  A    A  R   R   N   NN  II  N   NN  G    G                |
|           W    W  A    A  R    R  N    N  II  N    N   GGGG   !!!           |
|                                                                             |
|     For optimal performance we recommend to set                             |
|       NCORE = 4 - approx SQRT(number of cores).                             |
|     NCORE specifies how many cores store one orbital (NPAR=cpu/NCORE).      |
|     This setting can greatly improve the performance of VASP for DFT.       |
|     The default, NCORE=1 might be grossly inefficient on modern             |
|     multi-core architectures or massively parallel machines. Do your        |
|     own testing!!!!                                                         |
|     Unfortunately you need to use the default for GW and RPA                |
|     calculations (for HF NCORE is supported but not extensively tested      |
|     yet).                                                                   |
|                                                                             |
 -----------------------------------------------------------------------------

 POTCAR:   PAW_PBE Te 08Apr2002                   
   VRHFIN =Te: s2p4                                                                                 
   LEXCH  = PE                                                                                      
   EATOM  =   223.2721 eV,   16.4100 Ry                                                             
                                                                                                    
   TITEL  = PAW_PBE Te 08Apr2002                                                                    
   LULTRA =        F    use ultrasoft PP ?                                                          
   IUNSCR =        1    unscreen: 0-lin 1-nonlin 2-no                                               
   RPACOR =    2.200    partial core radius                                                         
   POMASS =  127.600; ZVAL   =    6.000    mass and valenz                                          
   RCORE  =    2.300    outmost cutoff radius                                                       
   RWIGS  =    2.900; RWIGS  =    1.535    wigner-seitz radius (au A)                               
   ENMAX  =  174.982; ENMIN  =  131.236 eV                                                          
   ICORE  =        3    local potential                                                             
   LCOR   =        T    correct aug charges                                                         
   LPAW   =        T    paw PP                                                                      
   EAUG   =  368.792                                                                                
   DEXC   =    -.169                                                                                
   RMAX   =    3.486    core radius for proj-oper                                                   
   RAUG   =    1.300    factor for augmentation sphere                                              
   RDEP   =    2.397    radius for radial grids                                                     
   QCUT   =   -3.586; QGAM   =    7.172    optimization parameters                                  
                                                                                                    
   Description                                                                                      
     l     E      TYP  RCUT    TYP  RCUT                                                            
     0   .000     23  2.300                                                                         
     0   .000     23  2.300                                                                         
     1   .000     23  2.300                                                                         
     1   .000     23  2.300                                                                         
     2   .000     23  2.300                                                                         
     3  -.100     23  2.300                                                                         
  local pseudopotential read in
  partial core-charges read in
  atomic valenz-charges read in
  non local Contribution for L=           0  read in
    real space projection operators read in
  non local Contribution for L=           0  read in
    real space projection operators read in
  non local Contribution for L=           1  read in
    real space projection operators read in
  non local Contribution for L=           1  read in
    real space projection operators read in
  non local Contribution for L=           2  read in
    real space projection operators read in
    PAW grid and wavefunctions read in
 
   number of l-projection  operators is LMAX  =           5
   number of lm-projection operators is LMMAX =          13
 
 POTCAR:   PAW_PBE Mo 08Apr2002                   
   VRHFIN =Mo: 4p5s4d                                                                               
   LEXCH  = PE                                                                                      
   EATOM  =   217.5180 eV,   15.9871 Ry                                                             
                                                                                                    
   TITEL  = PAW_PBE Mo 08Apr2002                                                                    
   LULTRA =        F    use ultrasoft PP ?                                                          
   IUNSCR =        1    unscreen: 0-lin 1-nonlin 2-no                                               
   RPACOR =    2.200    partial core radius                                                         
   POMASS =   95.940; ZVAL   =    6.000    mass and valenz                                          
   RCORE  =    2.750    outmost cutoff radius                                                       
   RWIGS  =    2.750; RWIGS  =    1.455    wigner-seitz radius (au A)                               
   ENMAX  =  224.584; ENMIN  =  168.438 eV                                                          
   RCLOC  =    2.111    cutoff for local pot                                                        
   LCOR   =        T    correct aug charges                                                         
   LPAW   =        T    paw PP                                                                      
   EAUG   =  345.278                                                                                
   DEXC   =    -.088                                                                                
   RMAX   =    3.077    core radius for proj-oper                                                   
   RAUG   =    1.300    factor for augmentation sphere                                              
   RDEP   =    2.815    radius for radial grids                                                     
   QCUT   =   -4.063; QGAM   =    8.126    optimization parameters                                  
                                                                                                    
   Description                                                                                      
     l     E      TYP  RCUT    TYP  RCUT                                                            
     2   .000     23  2.500                                                                         
     2   .000     23  2.500                                                                         
     0   .000     23  2.600                                                                         
     0  1.000     23  2.600                                                                         
     1   .400     23  2.750                                                                         
     1  2.000     23  2.750                                                                         
     3   .000      7   .000                                                                         
  local pseudopotential read in
  partial core-charges read in
  atomic valenz-charges read in
  non local Contribution for L=           2  read in
    real space projection operators read in
  non local Contribution for L=           2  read in
    real space projection operators read in
  non local Contribution for L=           0  read in
    real space projection operators read in
  non local Contribution for L=           0  read in
    real space projection operators read in
  non local Contribution for L=           1  read in
    real space projection operators read in
  non local Contribution for L=           1  read in
    real space projection operators read in
    PAW grid and wavefunctions read in
 
   number of l-projection  operators is LMAX  =           6
   number of lm-projection operators is LMMAX =          18
 
 -----------------------------------------------------------------------------
|                                                                             |
|               ----> ADVICE to this user running VASP <----                  |
|                                                                             |
|     You have a (more or less) 'large supercell' and for larger cells it     |
|     might be more efficient to use real-space projection operators.         |
|     Therefore, try LREAL= Auto in the INCAR file.                           |
|     Mind: If you want to do very accurate calculations, keep the            |
|     reciprocal projection scheme (i.e. LREAL=.FALSE.).                      |
|                                                                             |
 -----------------------------------------------------------------------------

 PAW_PBE Te 08Apr2002                   :
 energy of atom  1       EATOM= -223.2721
 kinetic energy error for atom=    0.0006 (will be added to EATOM!!)
 PAW_PBE Mo 08Apr2002                   :
 energy of atom  2       EATOM= -217.5180
 kinetic energy error for atom=    0.0009 (will be added to EATOM!!)
 
 
 POSCAR: Te Mo
  positions in cartesian coordinates
  No initial velocities read in
 exchange correlation table for  LEXCH =        8
   RHO(1)=    0.500       N(1)  =     2000
   RHO(2)=  100.500       N(2)  =     4000
 


--------------------------------------------------------------------------------------------------------


 ion  position               nearest neighbor table
   1  0.111  0.222  0.321-  37 2.67  41 2.68  38 2.75   5 3.50   9 3.50  19 3.52   7 3.53   4 3.54
                             2 3.57   3 3.58
   2  0.111  0.555  0.321-  38 2.66  42 2.68  39 2.74   6 3.50   7 3.50  20 3.52   8 3.53   5 3.54
                             3 3.57   1 3.57
   3  0.111  0.889  0.321-  39 2.66  40 2.68  37 2.75   4 3.50   8 3.50  21 3.52   6 3.53   9 3.54
                             2 3.57   1 3.58
   4  0.445  0.222  0.320-  40 2.66  44 2.68  41 2.75   8 3.50   3 3.50   7 3.53  22 3.53   1 3.54
                             6 3.57   5 3.58
   5  0.445  0.556  0.320-  41 2.67  45 2.68  42 2.74   9 3.50   1 3.50  23 3.52   8 3.53   2 3.54
                             6 3.57   4 3.58
   6  0.444  0.889  0.321-  42 2.66  43 2.68  40 2.74   7 3.49   2 3.50  24 3.52   3 3.53   9 3.54
                             4 3.57   5 3.57
   7  0.777  0.222  0.320-  43 2.66  38 2.68  44 2.74   6 3.49   2 3.50  25 3.53   4 3.53   1 3.53
                             9 3.57   8 3.57
   8  0.778  0.555  0.321-  44 2.66  39 2.67  45 2.74   4 3.50   3 3.50  26 3.52   2 3.53   5 3.53
                             7 3.57   9 3.57
   9  0.778  0.889  0.320-  45 2.67  37 2.67  43 2.74   5 3.50   1 3.50  27 3.52   3 3.54   6 3.54
                             7 3.57   8 3.57
  10  0.112  0.056  0.559-  48 2.67  49 2.68  46 2.75  14 3.49  18 3.49  28 3.53  13 3.53  16 3.54
                            12 3.57  11 3.57
  11  0.111  0.389  0.559-  46 2.67  50 2.67  47 2.75  15 3.50  16 3.50  29 3.53  17 3.53  14 3.53
                            10 3.57  12 3.58
  12  0.112  0.723  0.559-  47 2.67  51 2.67  48 2.74  13 3.49  17 3.50  30 3.51  18 3.53  15 3.53
                            10 3.57  11 3.58
  13  0.444  0.055  0.559-  51 2.67  52 2.68  49 2.75  12 3.49  17 3.50  31 3.53  10 3.53  16 3.53
                            14 3.57  15 3.57
  14  0.444  0.388  0.559-  49 2.67  53 2.67  50 2.75  10 3.49  18 3.51  32 3.52  17 3.53  11 3.53
                            13 3.57  15 3.58
  15  0.444  0.722  0.559-  50 2.67  54 2.68  51 2.74  16 3.50  11 3.50  33 3.52  12 3.53  18 3.54
                            13 3.57  14 3.58
  16  0.778  0.056  0.559-  54 2.67  46 2.68  52 2.74  15 3.50  11 3.50  34 3.52  13 3.53  10 3.54
                            18 3.57  17 3.57
  17  0.778  0.389  0.559-  52 2.67  47 2.67  53 2.74  12 3.50  13 3.50  35 3.51  11 3.53  14 3.53
                            18 3.57  16 3.57
  18  0.779  0.723  0.559-  48 2.67  53 2.67  54 2.74  10 3.49  14 3.51  36 3.52  12 3.53  15 3.54
                            17 3.57  16 3.57
  19  0.111  0.222  0.441-  41 2.68  38 2.68  37 2.73  27 3.50  23 3.50   1 3.52  22 3.54  25 3.54
                            21 3.57  20 3.57
  20  0.111  0.556  0.441-  39 2.68  42 2.68  38 2.72  24 3.49  25 3.50   2 3.52  26 3.53  23 3.54
                            21 3.57  19 3.57
  21  0.111  0.889  0.441-  37 2.68  40 2.69  39 2.73  26 3.50  22 3.50   3 3.52  24 3.53  27 3.54
                            20 3.57  19 3.57
  22  0.445  0.223  0.441-  41 2.68  44 2.68  40 2.73  26 3.49  21 3.50  25 3.52   4 3.53  19 3.54
                            23 3.57  24 3.57
  23  0.445  0.556  0.441-  42 2.68  45 2.68  41 2.73  27 3.49  19 3.50   5 3.52  26 3.53  20 3.54
                            22 3.57  24 3.57
  24  0.444  0.889  0.441-  40 2.68  43 2.68  42 2.73  20 3.49  25 3.50   6 3.52  27 3.53  21 3.53
                            23 3.57  22 3.57
  25  0.777  0.223  0.441-  44 2.67  38 2.68  43 2.73  24 3.50  20 3.50  22 3.52   7 3.53  19 3.54
                            26 3.57  27 3.57
  26  0.778  0.555  0.441-  39 2.68  45 2.68  44 2.72  22 3.49  21 3.50   8 3.52  23 3.53  20 3.53
                            25 3.57  27 3.58
  27  0.777  0.889  0.441-  43 2.68  37 2.68  45 2.73  23 3.49  19 3.50   9 3.52  24 3.53  21 3.54
                            25 3.57  26 3.58
  28  0.111  0.055  0.680-  49 2.67  46 2.68  48 2.72  36 3.48  32 3.50  10 3.53  34 3.53  31 3.54
                            29 3.56  30 3.57
  29  0.111  0.388  0.680-  50 2.68  47 2.69  46 2.72  34 3.49  33 3.50  32 3.53  11 3.53  35 3.54
                            28 3.56  30 3.58
  30  0.111  0.722  0.679-  48 2.68  51 2.68  47 2.72  35 3.50  31 3.50  12 3.51  36 3.53  33 3.54
                            28 3.57  29 3.58
  31  0.444  0.055  0.680-  49 2.68  52 2.68  51 2.73  30 3.50  35 3.50  13 3.53  34 3.53  28 3.54
                            32 3.57  33 3.57
  32  0.444  0.389  0.680-  53 2.68  50 2.68  49 2.72  28 3.50  36 3.51  14 3.52  29 3.53  35 3.53
                            33 3.57  31 3.57
  33  0.445  0.722  0.679-  54 2.68  51 2.68  50 2.73  34 3.49  29 3.50  15 3.52  36 3.53  30 3.54
                            32 3.57  31 3.57
  34  0.778  0.055  0.679-  52 2.68  46 2.68  54 2.72  29 3.49  33 3.49  16 3.52  31 3.53  28 3.53
                            36 3.57  35 3.58
  35  0.777  0.389  0.679-  53 2.67  47 2.68  52 2.72  30 3.50  31 3.50  17 3.51  32 3.53  29 3.54
                            34 3.58  36 3.58
  36  0.778  0.723  0.679-  48 2.67  54 2.67  53 2.73  28 3.48  32 3.51  18 3.52  30 3.53  33 3.53
                            34 3.57  35 3.58
  37  0.999  0.999  0.381-   1 2.67   9 2.67  27 2.68  21 2.68  19 2.73   3 2.75  45 3.49
  38  0.999  0.333  0.381-   2 2.66   7 2.68  25 2.68  19 2.68  20 2.72   1 2.75
  39  1.000  0.666  0.381-   3 2.66   8 2.67  20 2.68  26 2.68  21 2.73   2 2.74  44 3.49
  40  0.334  0.001  0.381-   4 2.66   3 2.68  24 2.68  21 2.69  22 2.73   6 2.74
  41  0.333  0.333  0.381-   5 2.67   1 2.68  19 2.68  22 2.68  23 2.73   4 2.75
  42  0.334  0.666  0.381-   6 2.66  23 2.68  20 2.68   2 2.68  24 2.73   5 2.74
  43  0.667  0.000  0.381-   7 2.66  27 2.68   6 2.68  24 2.68  25 2.73   9 2.74
  44  0.667  0.334  0.381-   8 2.66  25 2.67  22 2.68   4 2.68  26 2.72   7 2.74  39 3.49
  45  0.667  0.667  0.381-   9 2.67  23 2.68   5 2.68  26 2.68  27 2.73   8 2.74  37 3.49
  46  0.000  0.167  0.619-  11 2.67  16 2.68  28 2.68  34 2.68  29 2.72  10 2.75  50 3.49
  47  1.000  0.500  0.619-  12 2.67  17 2.67  35 2.68  29 2.69  30 2.72  11 2.75
  48  1.000  0.833  0.619-  18 2.67  36 2.67  10 2.67  30 2.68  28 2.72  12 2.74
  49  0.333  0.166  0.619-  14 2.67  28 2.67  10 2.68  31 2.68  32 2.72  13 2.75
  50  0.333  0.500  0.619-  15 2.67  11 2.67  29 2.68  32 2.68  33 2.73  14 2.75  46 3.49
  51  0.333  0.833  0.619-  13 2.67  12 2.67  30 2.68  33 2.68  31 2.73  15 2.74
  52  0.666  0.167  0.619-  17 2.67  13 2.68  34 2.68  31 2.68  35 2.72  16 2.74
  53  0.666  0.500  0.619-  35 2.67  18 2.67  14 2.67  32 2.68  36 2.73  17 2.74
  54  0.666  0.833  0.619-  16 2.67  36 2.67  15 2.68  33 2.68  34 2.72  18 2.74
 

IMPORTANT INFORMATION: All symmetrisations will be switched off!
NOSYMM: (Re-)initialisation of all symmetry stuff for point group C_1.


----------------------------------------------------------------------------------------

                                     Primitive cell                                     

  volume of cell :    2836.5883

  direct lattice vectors                    reciprocal lattice vectors
    10.600521201  0.000000000  0.000000000     0.094334984  0.056775825  0.000145293
    -5.525959915  9.181572271  0.000000000     0.000000000  0.108913808 -0.002393834
    -0.430413366  0.640564868 29.144193124     0.000000000  0.000000000  0.034312153

  length of vectors
    10.600521201 10.716226124 29.154409132     0.110102701  0.108940112  0.034312153

  position of ions in fractional coordinates (direct lattice)
     0.111018070  0.222364016  0.320507955
     0.110869721  0.555466218  0.320530845
     0.111188223  0.888692029  0.320540476
     0.444722348  0.221873115  0.320210867
     0.444610114  0.555575512  0.320420977
     0.444101664  0.888596762  0.320532378
     0.777245009  0.221665629  0.320379602
     0.777769303  0.555335406  0.320551359
     0.777752672  0.888847173  0.320469139
     0.111590089  0.055927202  0.558570191
     0.111334622  0.389027196  0.558606519
     0.111574633  0.722751256  0.558907753
     0.444396879  0.055497677  0.558624606
     0.444351044  0.388232600  0.558855517
     0.444473334  0.722324554  0.558709671
     0.777620439  0.055522493  0.558752115
     0.778261425  0.389384317  0.558826522
     0.778620555  0.722759860  0.558759716
     0.111137714  0.222367843  0.441343214
     0.111125329  0.555932678  0.441157952
     0.111112256  0.888882732  0.441325462
     0.445057568  0.222783575  0.441366991
     0.445206075  0.556052669  0.441302774
     0.444373914  0.888914041  0.441308155
     0.777436915  0.222614363  0.441301519
     0.777776041  0.555462440  0.441297078
     0.777132821  0.888895282  0.441334873
     0.110772716  0.055319189  0.679512589
     0.111154482  0.388018466  0.679632581
     0.110929219  0.722095705  0.679446098
     0.444326713  0.055325409  0.679573020
     0.444240920  0.388708522  0.679572745
     0.444687879  0.722066571  0.679443505
     0.777520682  0.055441131  0.679358367
     0.777379888  0.389020724  0.679274190
     0.778473506  0.723239703  0.679426338
     0.999263613  0.999497155  0.381044292
     0.999384580  0.333499012  0.380912549
     0.999776152  0.666485582  0.380861837
     0.333808346  0.000534349  0.380811739
     0.333171441  0.333059339  0.380950871
     0.333882338  0.666476031  0.380921305
     0.666928264  0.000165994  0.380863518
     0.667191121  0.333708680  0.380903583
     0.666697285  0.666644111  0.380881430
     0.000030188  0.166624079  0.619076437
     0.999973639  0.499815466  0.619155474
     0.999902228  0.833325318  0.619194871
     0.332801515  0.166229301  0.619356724
     0.332656873  0.499593381  0.619058079
     0.333332613  0.833293715  0.619094384
     0.666328917  0.166749566  0.619052025
     0.666380514  0.499573225  0.619113524
     0.666390533  0.832915617  0.619146848

  ion indices of the primitive-cell ions
   primitive index   ion index
                 1           1
                 2           2
                 3           3
                 4           4
                 5           5
                 6           6
                 7           7
                 8           8
                 9           9
                10          10
                11          11
                12          12
                13          13
                14          14
                15          15
                16          16
                17          17
                18          18
                19          19
                20          20
                21          21
                22          22
                23          23
                24          24
                25          25
                26          26
                27          27
                28          28
                29          29
                30          30
                31          31
                32          32
                33          33
                34          34
                35          35
                36          36
                37          37
                38          38
                39          39
                40          40
                41          41
                42          42
                43          43
                44          44
                45          45
                46          46
                47          47
                48          48
                49          49
                50          50
                51          51
                52          52
                53          53
                54          54

----------------------------------------------------------------------------------------

 
 

Automatic generation of k-mesh.
 generate k-points for:    3    3    1
Space group operators:
 irot       det(A)        alpha          n_x          n_y          n_z        tau_x        tau_y        tau_z
    1     1.000000     0.000000     1.000000     0.000000     0.000000     0.000000     0.000000     0.000000
 
 Subroutine IBZKPT returns following result:
 ===========================================
 
 Found      5 irreducible k-points:
 
 Following reciprocal coordinates:
            Coordinates               Weight
  0.000000  0.000000  0.000000      1.000000
  0.333333 -0.000000 -0.000000      2.000000
  0.000000  0.333333 -0.000000      2.000000
  0.333333  0.333333  0.000000      2.000000
 -0.333333  0.333333  0.000000      2.000000
 
 Following cartesian coordinates:
            Coordinates               Weight
  0.000000  0.000000  0.000000      1.000000
  0.031445  0.018925  0.000048      2.000000
  0.000000  0.036305 -0.000798      2.000000
  0.031445  0.055230 -0.000750      2.000000
 -0.031445  0.017379 -0.000846      2.000000
 


--------------------------------------------------------------------------------------------------------




 Dimension of arrays:
   k-points           NKPTS =      5   k-points in BZ     NKDIM =      5   number of bands    NBANDS=    200
   number of dos      NEDOS =    301   number of ions     NIONS =     54
   non local maximal  LDIM  =      6   non local SUM 2l+1 LMDIM =     18
   total plane-waves  NPLWV = ******
   max r-space proj   IRMAX =      1   max aug-charges    IRDMAX=  35970
   dimension x,y,z NGX =    84 NGY =   84 NGZ =  224
   dimension x,y,z NGXF=   168 NGYF=  168 NGZF=  448
   support grid    NGXF=   168 NGYF=  168 NGZF=  448
   ions per type =              36  18
   NGX,Y,Z   is equivalent  to a cutoff of  13.17, 13.03, 12.77 a.u.
   NGXF,Y,Z  is equivalent  to a cutoff of  26.35, 26.06, 25.55 a.u.

 SYSTEM =  dpgen_md                                
 POSCAR =  Te Mo                                   

 Startparameter for this run:
   NWRITE =      2    write-flag & timer
   PREC   = a         normal or accurate (medium, high low for compatibility)
   ISTART =      0    job   : 0-new  1-cont  2-samecut
   ICHARG =      2    charge: 1-file 2-atom 10-const
   ISPIN  =      1    spin polarized calculation?
   LNONCOLLINEAR =      F non collinear calculations
   LSORBIT =      F    spin-orbit coupling
   INIWAV =      1    electr: 0-lowe 1-rand  2-diag
   LASPH  =      F    aspherical Exc in radial PAW
   METAGGA=      F    non-selfconsistent MetaGGA calc.

 Electronic Relaxation 1
   ENCUT  =  550.0 eV  40.42 Ry    6.36 a.u.  20.27 20.49 55.75*2*pi/ulx,y,z
   ENINI  =  550.0     initial cutoff
   ENAUG  =  368.8 eV  augmentation charge cutoff
   NELM   =    100;   NELMIN=  6; NELMDL= -5     # of ELM steps 
   EDIFF  = 0.1E-05   stopping-criterion for ELM
   LREAL  =      F    real-space projection
   NLSPLINE    = F    spline interpolate recip. space projectors
   LCOMPAT=      F    compatible to vasp.4.4
   GGA_COMPAT  = T    GGA compatible to vasp.4.4-vasp.4.6
   LMAXPAW     = -100 max onsite density
   LMAXMIX     =    2 max onsite mixed and CHGCAR
   VOSKOWN=      0    Vosko Wilk Nusair interpolation
   ROPT   =    0.00000   0.00000
 Ionic relaxation
   EDIFFG = 0.1E-04   stopping-criterion for IOM
   NSW    =     10    number of steps for IOM
   NBLOCK =      1;   KBLOCK =      1    inner block; outer block 
   IBRION =      0    ionic relax: 0-MD 1-quasi-New 2-CG
   NFREE  =      0    steps in history (QN), initial steepest desc. (CG)
   ISIF   =      2    stress and relaxation
   IWAVPR =     11    prediction:  0-non 1-charg 2-wave 3-comb
   ISYM   =      0    0-nonsym 1-usesym 2-fastsym
   LCORR  =      T    Harris-Foulkes like correction to forces

   POTIM  = 2.0000    time-step for ionic-motion
   TEIN   =  100.0    initial temperature
   TEBEG  =  100.0;   TEEND  = 100.0 temperature during run
   SMASS  =   0.04    Nose mass-parameter (am)
   estimated Nose-frequenzy (Omega)   =  0.79E+14 period in steps = 0.40E+02 mass=   0.327E-28a.u.
   SCALEE = 1.0000    scale energy and forces
   NPACO  =    256;   APACO  = 16.0  distance and # of slots for P.C.
   PSTRESS=    0.0 pullay stress

  Mass of Ions in am
   POMASS = 127.60 95.94
  Ionic Valenz
   ZVAL   =   6.00  6.00
  Atomic Wigner-Seitz radii
   RWIGS  =  -1.00 -1.00
  virtual crystal weights 
   VCA    =   1.00  1.00
   NELECT =     324.0000    total number of electrons
   NUPDOWN=      -1.0000    fix difference up-down

 DOS related values:
   EMIN   =  10.00;   EMAX   =-10.00  energy-range for DOS
   EFERMI =   0.00
   ISMEAR =     0;   SIGMA  =   0.10  broadening in eV -4-tet -1-fermi 0-gaus

 Electronic relaxation 2 (details)
   IALGO  =     68    algorithm
   LDIAG  =      T    sub-space diagonalisation (order eigenvalues)
   LSUBROT=      F    optimize rotation matrix (better conditioning)
   TURBO    =      0    0=normal 1=particle mesh
   IRESTART =      0    0=no restart 2=restart with 2 vectors
   NREBOOT  =      0    no. of reboots
   NMIN     =      0    reboot dimension
   EREF     =   0.00    reference energy to select bands
   IMIX   =      4    mixing-type and parameters
     AMIX     =   0.40;   BMIX     =  1.00
     AMIX_MAG =   1.60;   BMIX_MAG =  1.00
     AMIN     =   0.10
     WC   =   100.;   INIMIX=   1;  MIXPRE=   1;  MAXMIX= -45

 Intra band minimization:
   WEIMIN = 0.0010     energy-eigenvalue tresh-hold
   EBREAK =  0.13E-08  absolut break condition
   DEPER  =   0.30     relativ break condition  

   TIME   =   0.40     timestep for ELM

  volume/ion in A,a.u.               =      52.53       354.49
  Fermi-wavevector in a.u.,A,eV,Ry     =   0.794312  1.501032  8.584343  0.630931
  Thomas-Fermi vector in A             =   1.900419
 
 Write flags
   LWAVE        =      F    write WAVECAR
   LDOWNSAMPLE  =      F    k-point downsampling of WAVECAR
   LCHARG       =      F    write CHGCAR
   LVTOT        =      F    write LOCPOT, total local potential
   LVHAR        =      F    write LOCPOT, Hartree potential only
   LELF         =      F    write electronic localiz. function (ELF)
   LORBIT       =      0    0 simple, 1 ext, 2 COOP (PROOUT), +10 PAW based schemes


 Dipole corrections
   LMONO  =      F    monopole corrections only (constant potential shift)
   LDIPOL =      F    correct potential (dipole corrections)
   IDIPOL =      0    1-x, 2-y, 3-z, 4-all directions 
   EPSILON=  1.0000000 bulk dielectric constant

 Exchange correlation treatment:
   GGA     =    --    GGA type
   LEXCH   =     8    internal setting for exchange type
   VOSKOWN=      0    Vosko Wilk Nusair interpolation
   LHFCALC =     F    Hartree Fock is set to
   LHFONE  =     F    Hartree Fock one center treatment
   AEXX    =    0.0000 exact exchange contribution

 Linear response parameters
   LEPSILON=     F    determine dielectric tensor
   LRPA    =     F    only Hartree local field effects (RPA)
   LNABLA  =     F    use nabla operator in PAW spheres
   LVEL    =     F    velocity operator in full k-point grid
   LINTERFAST=   F  fast interpolation
   KINTER  =     0    interpolate to denser k-point grid
   CSHIFT  =0.1000    complex shift for real part using Kramers Kronig
   OMEGAMAX=  -1.0    maximum frequency
   DEG_THRESHOLD= 0.2000000E-02 threshold for treating states as degnerate
   RTIME   =   -0.100 relaxation time in fs
  (WPLASMAI=    0.000 imaginary part of plasma frequency in eV, 0.658/RTIME)
   DFIELD  = 0.0000000 0.0000000 0.0000000 field for delta impulse in time
 
 Orbital magnetization related:
   ORBITALMAG=     F  switch on orbital magnetization
   LCHIMAG   =     F  perturbation theory with respect to B field
   DQ        =  0.001000  dq finite difference perturbation B field
   LLRAUG    =     F  two centre corrections for induced B field



--------------------------------------------------------------------------------------------------------


 molecular dynamics for ions
   using nose mass (canonical ensemble)
 charge density and potential will be updated during run
 non-spin polarized calculation
 RMM-DIIS sequential band-by-band and
  variant of blocked Davidson during initial phase
 perform sub-space diagonalisation
    before iterative eigenvector-optimisation
 modified Broyden-mixing scheme, WC =      100.0
 initial mixing is a Kerker type mixing with AMIX =  0.4000 and BMIX =      1.0000
 Hartree-type preconditioning will be used
 using additional bands           38
 reciprocal scheme for non local part
 use partial core corrections
 calculate Harris-corrections to forces 
   (improved forces if not selfconsistent)
 use gradient corrections 
 use of overlap-Matrix (Vanderbilt PP)
 Gauss-broadening in eV      SIGMA  =   0.10


--------------------------------------------------------------------------------------------------------


  energy-cutoff  :      550.00
  volume of cell :     2836.59
      direct lattice vectors                 reciprocal lattice vectors
    10.600521201  0.000000000  0.000000000     0.094334984  0.056775825  0.000145293
    -5.525959915  9.181572271  0.000000000     0.000000000  0.108913808 -0.002393834
    -0.430413366  0.640564868 29.144193124     0.000000000  0.000000000  0.034312153

  length of vectors
    10.600521201 10.716226124 29.154409132     0.110102701  0.108940112  0.034312153


 
 k-points in units of 2pi/SCALE and weight: read from INCAR                         
   0.00000000  0.00000000  0.00000000       0.111
   0.03144499  0.01892528  0.00004843       0.222
   0.00000000  0.03630460 -0.00079794       0.222
   0.03144499  0.05522988 -0.00074951       0.222
  -0.03144499  0.01737933 -0.00084638       0.222
 
 k-points in reciprocal lattice and weights: read from INCAR                         
   0.00000000  0.00000000  0.00000000       0.111
   0.33333333 -0.00000000 -0.00000000       0.222
   0.00000000  0.33333333 -0.00000000       0.222
   0.33333333  0.33333333  0.00000000       0.222
  -0.33333333  0.33333333  0.00000000       0.222
 
 position of ions in fractional coordinates (direct lattice) 
   0.11101807  0.22236402  0.32050795
   0.11086972  0.55546622  0.32053085
   0.11118822  0.88869203  0.32054048
   0.44472235  0.22187311  0.32021087
   0.44461011  0.55557551  0.32042098
   0.44410166  0.88859676  0.32053238
   0.77724501  0.22166563  0.32037960
   0.77776930  0.55533541  0.32055136
   0.77775267  0.88884717  0.32046914
   0.11159009  0.05592720  0.55857019
   0.11133462  0.38902720  0.55860652
   0.11157463  0.72275126  0.55890775
   0.44439688  0.05549768  0.55862461
   0.44435104  0.38823260  0.55885552
   0.44447333  0.72232455  0.55870967
   0.77762044  0.05552249  0.55875212
   0.77826142  0.38938432  0.55882652
   0.77862055  0.72275986  0.55875972
   0.11113771  0.22236784  0.44134321
   0.11112533  0.55593268  0.44115795
   0.11111226  0.88888273  0.44132546
   0.44505757  0.22278357  0.44136699
   0.44520608  0.55605267  0.44130277
   0.44437391  0.88891404  0.44130816
   0.77743692  0.22261436  0.44130152
   0.77777604  0.55546244  0.44129708
   0.77713282  0.88889528  0.44133487
   0.11077272  0.05531919  0.67951259
   0.11115448  0.38801847  0.67963258
   0.11092922  0.72209570  0.67944610
   0.44432671  0.05532541  0.67957302
   0.44424092  0.38870852  0.67957275
   0.44468788  0.72206657  0.67944351
   0.77752068  0.05544113  0.67935837
   0.77737989  0.38902072  0.67927419
   0.77847351  0.72323970  0.67942634
   0.99926361  0.99949716  0.38104429
   0.99938458  0.33349901  0.38091255
   0.99977615  0.66648558  0.38086184
   0.33380835  0.00053435  0.38081174
   0.33317144  0.33305934  0.38095087
   0.33388234  0.66647603  0.38092130
   0.66692826  0.00016599  0.38086352
   0.66719112  0.33370868  0.38090358
   0.66669728  0.66664411  0.38088143
   0.00003019  0.16662408  0.61907644
   0.99997364  0.49981547  0.61915547
   0.99990223  0.83332532  0.61919487
   0.33280151  0.16622930  0.61935672
   0.33265687  0.49959338  0.61905808
   0.33333261  0.83329372  0.61909438
   0.66632892  0.16674957  0.61905202
   0.66638051  0.49957322  0.61911352
   0.66639053  0.83291562  0.61914685
 
 position of ions in cartesian coordinates  (Angst):
  -0.18987614  2.24695742  9.34094572
  -2.03216799  5.30537403  9.34161286
  -3.87018832  8.36491706  9.34189355
   3.35040371  2.24225987  9.33228736
   1.50509746  5.30630714  9.33841084
  -0.34060241  8.36403717  9.34165753
   6.87639116  2.24046291  9.33720499
   5.03802920  5.30418610  9.34221072
   3.19491564  8.36629583  9.33981447
   0.63344556  0.87130008 16.27907752
  -1.20997538  3.92970502 16.28013626
  -3.05170657  6.99400956 16.28891548
   4.16372111  0.86739123 16.28066340
   2.32445600  3.92256888 16.28739311
   0.47963636  6.98996488 16.28314256
   7.69587250  0.86770075 16.28437956
   5.85772820  3.93312489 16.28654808
   4.01934403  6.99399374 16.28460106
  -0.24063812  2.32439538 12.86259186
  -2.08395557  5.38692635 12.85719255
  -3.92403490  8.44403863 12.86207448
   3.29677883  2.32822768 12.86328483
   1.45674907  5.38812082 12.86141327
  -0.39145319  8.44431501 12.86157010
   6.82113639  2.32663211 12.86137670
   4.98542807  5.38269795 12.86124728
   3.13605681  8.44415989 12.86234878
   0.57608560  0.94318902 19.80384611
  -1.25840199  3.99796834 19.80734319
  -3.10680706  7.06520320 19.80190831
   4.11187143  0.94328485 19.80560733
   2.26870038  4.00426581 19.80559933
   0.43137079  7.06493404 19.80183274
   7.64335409  0.94420985 19.79935145
   5.79855037  4.00694107 19.79689817
   3.96319712  7.07569425 19.80133241
   4.90552734  9.42103895 11.10522842
   8.58714541  3.30604448 11.10138889
   6.75124765  6.36335225 11.09991094
   3.37168319  0.24884078 11.09845086
   1.52735202  3.30203213 11.10250575
  -0.30754665  6.36330265 11.10164407
   6.90494117  0.24549187 11.09995991
   5.06456684  3.30796382 11.10112758
   3.21955361  6.36482035 11.10048195
  -1.18689675  1.92642964 18.04248322
   7.57178874  4.98570107 18.04478670
   5.72805272  8.04787111 18.04593491
   2.34271364  1.92298450 18.05065197
   0.49915237  4.98359959 18.04194821
  -1.33771474  8.04751658 18.04300630
   5.87553413  1.92756617 18.04177176
   4.03688442  4.98345004 18.04356411
   2.19493958  8.04407865 18.04453530
 


--------------------------------------------------------------------------------------------------------


 k-point   1 :   0.0000 0.0000 0.0000  plane waves:   83071
 k-point   2 :   0.3333-0.0000-0.0000  plane waves:   83110
 k-point   3 :   0.0000 0.3333-0.0000  plane waves:   83114
 k-point   4 :   0.3333 0.3333 0.0000  plane waves:   83086
 k-point   5 :  -0.3333 0.3333 0.0000  plane waves:   83016

 maximum and minimum number of plane-waves per node :     83114    83016

 maximum number of plane-waves:     83114
 maximum index in each direction: 
   IXMAX=   20   IYMAX=   20   IZMAX=   55
   IXMIN=  -20   IYMIN=  -20   IZMIN=  -55


 serial   3D FFT for wavefunctions
 parallel 3D FFT for charge:
    minimum data exchange during FFTs selected (reduces bandwidth)


 total amount of memory used by VASP MPI-rank0   359007. kBytes
=======================================================================

   base      :      30000. kBytes
   nonl-proj :     191508. kBytes
   fftplans  :      18617. kBytes
   grid      :      84475. kBytes
   one-center:        839. kBytes
   wavefun   :      33568. kBytes
 
     INWAV:  cpu time    0.0000: real time    0.0000
 Broyden mixing: mesh for mixing (old mesh)
   NGX = 41   NGY = 41   NGZ =111
  (NGX  =168   NGY  =168   NGZ  =448)
  gives a total of 186591 points

 initial charge density was supplied:
 charge density of overlapping atoms calculated
 number of electron     324.0000000 magnetization 
 keeping initial charge density in first step


--------------------------------------------------------------------------------------------------------


 Maximum index for augmentation-charges         2157 (set IRDMAX)


--------------------------------------------------------------------------------------------------------


 First call to EWALD:  gamma=   0.125
 Maximum number of real-space cells 4x 4x 2
 Maximum number of reciprocal cells 2x 2x 5

    FEWALD:  cpu time    0.0022: real time    0.0022


--------------------------------------- Iteration      1(   1)  ---------------------------------------


    POTLOK:  cpu time    0.3284: real time    0.3290
    SETDIJ:  cpu time    0.0142: real time    0.0144
     EDDAV:  cpu time   47.8200: real time   47.9153
       DOS:  cpu time    0.0009: real time    0.0011
    --------------------------------------------
      LOOP:  cpu time   48.1635: real time   48.2598

 eigenvalue-minimisations  :  2000
 total energy-change (2. order) : 0.2132788E+04  (-0.1160277E+05)
 number of electron     324.0000000 magnetization 
 augmentation part      324.0000000 magnetization 

 Free energy of the ion-electron system (eV)
  ---------------------------------------------------
  alpha Z        PSCENC =       253.00328942
  Ewald energy   TEWEN  =     59642.25371642
  -Hartree energ DENC   =    -71346.03804808
  -exchange      EXHF   =         0.00000000
  -V(xc)+E(xc)   XCENC  =     -2097.87005091
  PAW double counting   =      7476.04436201    -4809.59211051
  entropy T*S    EENTRO =        -0.14068645
  eigenvalues    EBANDS =      1062.04463867
  atomic energy  EATOM  =     11953.08265402
  Solvation  Ediel_sol  =         0.00000000
  ---------------------------------------------------
  free energy    TOTEN  =      2132.78776460 eV

  energy without entropy =     2132.92845104  energy(sigma->0) =     2132.85810782


--------------------------------------------------------------------------------------------------------




--------------------------------------- Iteration      1(   2)  ---------------------------------------


     EDDAV:  cpu time   65.3139: real time   65.4680
       DOS:  cpu time    0.0006: real time    0.0006
    --------------------------------------------
      LOOP:  cpu time   65.3145: real time   65.4686

 eigenvalue-minimisations  :  2960
 total energy-change (2. order) :-0.2223332E+04  (-0.2139232E+04)
 number of electron     324.0000000 magnetization 
 augmentation part      324.0000000 magnetization 

 Free energy of the ion-electron system (eV)
  ---------------------------------------------------
  alpha Z        PSCENC =       253.00328942
  Ewald energy   TEWEN  =     59642.25371642
  -Hartree energ DENC   =    -71346.03804808
  -exchange      EXHF   =         0.00000000
  -V(xc)+E(xc)   XCENC  =     -2097.87005091
  PAW double counting   =      7476.04436201    -4809.59211051
  entropy T*S    EENTRO =        -0.03697703
  eigenvalues    EBANDS =     -1161.39058304
  atomic energy  EATOM  =     11953.08265402
  Solvation  Ediel_sol  =         0.00000000
  ---------------------------------------------------
  free energy    TOTEN  =       -90.54374769 eV

  energy without entropy =      -90.50677066  energy(sigma->0) =      -90.52525917


--------------------------------------------------------------------------------------------------------




--------------------------------------- Iteration      1(   3)  ---------------------------------------


     EDDAV:  cpu time   57.9529: real time   58.0798
       DOS:  cpu time    0.0004: real time    0.0004
    --------------------------------------------
      LOOP:  cpu time   57.9533: real time   58.0802

 eigenvalue-minimisations  :  2560
 total energy-change (2. order) :-0.2328846E+03  (-0.2289326E+03)
 number of electron     324.0000000 magnetization 
 augmentation part      324.0000000 magnetization 

 Free energy of the ion-electron system (eV)
  ---------------------------------------------------
  alpha Z        PSCENC =       253.00328942
  Ewald energy   TEWEN  =     59642.25371642
  -Hartree energ DENC   =    -71346.03804808
  -exchange      EXHF   =         0.00000000
  -V(xc)+E(xc)   XCENC  =     -2097.87005091
  PAW double counting   =      7476.04436201    -4809.59211051
  entropy T*S    EENTRO =        -0.00000000
  eigenvalues    EBANDS =     -1394.31220384
  atomic energy  EATOM  =     11953.08265402
  Solvation  Ediel_sol  =         0.00000000
  ---------------------------------------------------
  free energy    TOTEN  =      -323.42839146 eV

  energy without entropy =     -323.42839146  energy(sigma->0) =     -323.42839146


--------------------------------------------------------------------------------------------------------




--------------------------------------- Iteration      1(   4)  ---------------------------------------


     EDDAV:  cpu time   67.6210: real time   67.7259
       DOS:  cpu time    0.0045: real time    0.0045
    --------------------------------------------
      LOOP:  cpu time   67.6256: real time   67.7305

 eigenvalue-minimisations  :  3080
 total energy-change (2. order) :-0.1095458E+02  (-0.1087182E+02)
 number of electron     324.0000000 magnetization 
 augmentation part      324.0000000 magnetization 

 Free energy of the ion-electron system (eV)
  ---------------------------------------------------
  alpha Z        PSCENC =       253.00328942
  Ewald energy   TEWEN  =     59642.25371642
  -Hartree energ DENC   =    -71346.03804808
  -exchange      EXHF   =         0.00000000
  -V(xc)+E(xc)   XCENC  =     -2097.87005091
  PAW double counting   =      7476.04436201    -4809.59211051
  entropy T*S    EENTRO =        -0.00000000
  eigenvalues    EBANDS =     -1405.26678020
  atomic energy  EATOM  =     11953.08265402
  Solvation  Ediel_sol  =         0.00000000
  ---------------------------------------------------
  free energy    TOTEN  =      -334.38296782 eV

  energy without entropy =     -334.38296782  energy(sigma->0) =     -334.38296782


--------------------------------------------------------------------------------------------------------




--------------------------------------- Iteration      1(   5)  ---------------------------------------


     EDDAV:  cpu time   66.0369: real time   66.1818
       DOS:  cpu time    0.0004: real time    0.0004
    CHARGE:  cpu time    1.1173: real time    1.1185
    MIXING:  cpu time    0.0109: real time    0.0113
    --------------------------------------------
      LOOP:  cpu time   67.1656: real time   67.3120

 eigenvalue-minimisations  :  3000
 total energy-change (2. order) :-0.3087124E+00  (-0.3080359E+00)
 number of electron     324.0000009 magnetization 
 augmentation part      -25.3021066 magnetization 

 Broyden mixing:
  rms(total) = 0.18698E+01    rms(broyden)= 0.18698E+01
  rms(prec ) = 0.19814E+01
  weight for this iteration     100.00

 Free energy of the ion-electron system (eV)
  ---------------------------------------------------
  alpha Z        PSCENC =       253.00328942
  Ewald energy   TEWEN  =     59642.25371642
  -Hartree energ DENC   =    -71346.03804808
  -exchange      EXHF   =         0.00000000
  -V(xc)+E(xc)   XCENC  =     -2097.87005091
  PAW double counting   =      7476.04436201    -4809.59211051
  entropy T*S    EENTRO =        -0.00000000
  eigenvalues    EBANDS =     -1405.57549262
  atomic energy  EATOM  =     11953.08265402
  Solvation  Ediel_sol  =         0.00000000
  ---------------------------------------------------
  free energy    TOTEN  =      -334.69168025 eV

  energy without entropy =     -334.69168025  energy(sigma->0) =     -334.69168025


--------------------------------------------------------------------------------------------------------




--------------------------------------- Iteration      1(   6)  ---------------------------------------


    POTLOK:  cpu time    0.2837: real time    0.2882
    SETDIJ:  cpu time    0.0158: real time    0.0158
    EDDIAG:  cpu time    2.4647: real time    2.4677
  RMM-DIIS:  cpu time   41.2249: real time   41.3223
    ORTHCH:  cpu time    0.1978: real time    0.1980
       DOS:  cpu time    0.0007: real time    0.0006
    CHARGE:  cpu time    1.1200: real time    1.1210
    MIXING:  cpu time    0.0072: real time    0.0072
    --------------------------------------------
      LOOP:  cpu time   45.3148: real time   45.4207

 eigenvalue-minimisations  :  2133
 total energy-change (2. order) : 0.8469624E+01  (-0.4754477E+01)
 number of electron     324.0000009 magnetization 
 augmentation part      -20.1465344 magnetization 

 Broyden mixing:
  rms(total) = 0.69901E+00    rms(broyden)= 0.69901E+00
  rms(prec ) = 0.79883E+00
  weight for this iteration     100.00

 eigenvalues of (default mixing * dielectric matrix)
  average eigenvalue GAMMA=   1.0898
  1.0898

 Free energy of the ion-electron system (eV)
  ---------------------------------------------------
  alpha Z        PSCENC =       253.00328942
  Ewald energy   TEWEN  =     59642.25371642
  -Hartree energ DENC   =    -71327.23708492
  -exchange      EXHF   =         0.00000000
  -V(xc)+E(xc)   XCENC  =     -2091.31724746
  PAW double counting   =      7736.88226439    -5082.48993969
  entropy T*S    EENTRO =        -0.00011682
  eigenvalues    EBANDS =     -1410.39959158
  atomic energy  EATOM  =     11953.08265402
  Solvation  Ediel_sol  =         0.00000000
  ---------------------------------------------------
  free energy    TOTEN  =      -326.22205620 eV

  energy without entropy =     -326.22193938  energy(sigma->0) =     -326.22199779


--------------------------------------------------------------------------------------------------------




--------------------------------------- Iteration      1(   7)  ---------------------------------------


    POTLOK:  cpu time    0.2900: real time    0.2946
    SETDIJ:  cpu time    0.0133: real time    0.0133
    EDDIAG:  cpu time    2.4713: real time    2.4778
  RMM-DIIS:  cpu time   37.7433: real time   37.8209
    ORTHCH:  cpu time    0.2103: real time    0.2106
       DOS:  cpu time    0.0005: real time    0.0005
    CHARGE:  cpu time    1.1129: real time    1.1139
    MIXING:  cpu time    0.0082: real time    0.0082
    --------------------------------------------
      LOOP:  cpu time   41.8498: real time   41.9397

 eigenvalue-minimisations  :  2005
 total energy-change (2. order) : 0.2855954E+01  (-0.9262966E+00)
 number of electron     324.0000009 magnetization 
 augmentation part      -21.6443724 magnetization 

 Broyden mixing:
  rms(total) = 0.45425E+00    rms(broyden)= 0.45425E+00
  rms(prec ) = 0.48137E+00
  weight for this iteration     100.00

 eigenvalues of (default mixing * dielectric matrix)
  average eigenvalue GAMMA=   1.5114
  0.7619  2.2608

 Free energy of the ion-electron system (eV)
  ---------------------------------------------------
  alpha Z        PSCENC =       253.00328942
  Ewald energy   TEWEN  =     59642.25371642
  -Hartree energ DENC   =    -71410.99545283
  -exchange      EXHF   =         0.00000000
  -V(xc)+E(xc)   XCENC  =     -2089.62159764
  PAW double counting   =      8060.50082591    -5411.87634919
  entropy T*S    EENTRO =        -0.00000000
  eigenvalues    EBANDS =     -1319.71318786
  atomic energy  EATOM  =     11953.08265402
  Solvation  Ediel_sol  =         0.00000000
  ---------------------------------------------------
  free energy    TOTEN  =      -323.36610175 eV

  energy without entropy =     -323.36610174  energy(sigma->0) =     -323.36610174


--------------------------------------------------------------------------------------------------------




--------------------------------------- Iteration      1(   8)  ---------------------------------------


    POTLOK:  cpu time    0.2833: real time    0.2877
    SETDIJ:  cpu time    0.0117: real time    0.0117
    EDDIAG:  cpu time    2.4656: real time    2.4718
  RMM-DIIS:  cpu time   38.1600: real time   38.2282
    ORTHCH:  cpu time    0.2213: real time    0.2215
       DOS:  cpu time    0.0005: real time    0.0005
    CHARGE:  cpu time    1.1205: real time    1.1256
    MIXING:  cpu time    0.0073: real time    0.0073
    --------------------------------------------
      LOOP:  cpu time   42.2702: real time   42.3543

 eigenvalue-minimisations  :  2013
 total energy-change (2. order) : 0.4004158E+00  (-0.6652464E+00)
 number of electron     324.0000009 magnetization 
 augmentation part      -21.4766942 magnetization 

 Broyden mixing:
  rms(total) = 0.12462E+00    rms(broyden)= 0.12462E+00
  rms(prec ) = 0.14593E+00
  weight for this iteration     100.00

 eigenvalues of (default mixing * dielectric matrix)
  average eigenvalue GAMMA=   1.2899
  2.1825  0.8435  0.8435

 Free energy of the ion-electron system (eV)
  ---------------------------------------------------
  alpha Z        PSCENC =       253.00328942
  Ewald energy   TEWEN  =     59642.25371642
  -Hartree energ DENC   =    -71471.49910996
  -exchange      EXHF   =         0.00000000
  -V(xc)+E(xc)   XCENC  =     -2085.63779077
  PAW double counting   =      8410.46602813    -5768.71998167
  entropy T*S    EENTRO =        -0.00000000
  eigenvalues    EBANDS =     -1255.91449157
  atomic energy  EATOM  =     11953.08265402
  Solvation  Ediel_sol  =         0.00000000
  ---------------------------------------------------
  free energy    TOTEN  =      -322.96568596 eV

  energy without entropy =     -322.96568596  energy(sigma->0) =     -322.96568596


--------------------------------------------------------------------------------------------------------




--------------------------------------- Iteration      1(   9)  ---------------------------------------


    POTLOK:  cpu time    0.2798: real time    0.2801
    SETDIJ:  cpu time    0.0119: real time    0.0119
    EDDIAG:  cpu time    2.4635: real time    2.4701
  RMM-DIIS:  cpu time   42.6537: real time   42.7461
    ORTHCH:  cpu time    0.2090: real time    0.2105
       DOS:  cpu time    0.0005: real time    0.0005
    CHARGE:  cpu time    1.1160: real time    1.1169
    MIXING:  cpu time    0.0073: real time    0.0073
    --------------------------------------------
      LOOP:  cpu time   46.7415: real time   46.8433

 eigenvalue-minimisations  :  2228
 total energy-change (2. order) :-0.2003648E-01  (-0.1191046E+00)
 number of electron     324.0000009 magnetization 
 augmentation part      -21.1292183 magnetization 

 Broyden mixing:
  rms(total) = 0.91921E-01    rms(broyden)= 0.91920E-01
  rms(prec ) = 0.10274E+00
  weight for this iteration     100.00

 eigenvalues of (default mixing * dielectric matrix)
  average eigenvalue GAMMA=   1.1873
  2.0344  1.4942  0.7658  0.4549

 Free energy of the ion-electron system (eV)
  ---------------------------------------------------
  alpha Z        PSCENC =       253.00328942
  Ewald energy   TEWEN  =     59642.25371642
  -Hartree energ DENC   =    -71467.69580475
  -exchange      EXHF   =         0.00000000
  -V(xc)+E(xc)   XCENC  =     -2085.38094075
  PAW double counting   =      8404.62880245    -5762.89050512
  entropy T*S    EENTRO =        -0.00000000
  eigenvalues    EBANDS =     -1259.98693414
  atomic energy  EATOM  =     11953.08265402
  Solvation  Ediel_sol  =         0.00000000
  ---------------------------------------------------
  free energy    TOTEN  =      -322.98572244 eV

  energy without entropy =     -322.98572244  energy(sigma->0) =     -322.98572244


--------------------------------------------------------------------------------------------------------




--------------------------------------- Iteration      1(  10)  ---------------------------------------


    POTLOK:  cpu time    0.2843: real time    0.2846
    SETDIJ:  cpu time    0.0141: real time    0.0141
    EDDIAG:  cpu time    2.4718: real time    2.4787
  RMM-DIIS:  cpu time   44.2045: real time   44.2762
    ORTHCH:  cpu time    0.2164: real time    0.2166
       DOS:  cpu time    0.0006: real time    0.0006
    CHARGE:  cpu time    1.1172: real time    1.1183
    MIXING:  cpu time    0.0074: real time    0.0074
    --------------------------------------------
      LOOP:  cpu time   48.3163: real time   48.3965

 eigenvalue-minimisations  :  2296
 total energy-change (2. order) :-0.3110779E-02  (-0.3557228E-01)
 number of electron     324.0000009 magnetization 
 augmentation part      -20.9518239 magnetization 

 Broyden mixing:
  rms(total) = 0.67786E-01    rms(broyden)= 0.67786E-01
  rms(prec ) = 0.76491E-01
  weight for this iteration     100.00

 eigenvalues of (default mixing * dielectric matrix)
  average eigenvalue GAMMA=   1.3019
  2.4181  1.8058  0.9419  0.9419  0.4018

 Free energy of the ion-electron system (eV)
  ---------------------------------------------------
  alpha Z        PSCENC =       253.00328942
  Ewald energy   TEWEN  =     59642.25371642
  -Hartree energ DENC   =    -71469.19968578
  -exchange      EXHF   =         0.00000000
  -V(xc)+E(xc)   XCENC  =     -2085.18337259
  PAW double counting   =      8416.01996759    -5774.26143704
  entropy T*S    EENTRO =        -0.00000001
  eigenvalues    EBANDS =     -1258.70396527
  atomic energy  EATOM  =     11953.08265402
  Solvation  Ediel_sol  =         0.00000000
  ---------------------------------------------------
  free energy    TOTEN  =      -322.98883322 eV

  energy without entropy =     -322.98883321  energy(sigma->0) =     -322.98883322


--------------------------------------------------------------------------------------------------------




--------------------------------------- Iteration      1(  11)  ---------------------------------------


    POTLOK:  cpu time    0.2932: real time    0.2935
    SETDIJ:  cpu time    0.0159: real time    0.0159
    EDDIAG:  cpu time    2.4561: real time    2.4583
  RMM-DIIS:  cpu time   40.1914: real time   40.2612
    ORTHCH:  cpu time    0.2166: real time    0.2168
       DOS:  cpu time    0.0004: real time    0.0004
    CHARGE:  cpu time    1.1133: real time    1.1146
    MIXING:  cpu time    0.0073: real time    0.0073
    --------------------------------------------
      LOOP:  cpu time   44.2942: real time   44.3680

 eigenvalue-minimisations  :  2121
 total energy-change (2. order) : 0.1113348E-01  (-0.1589593E-01)
 number of electron     324.0000009 magnetization 
 augmentation part      -21.2362147 magnetization 

 Broyden mixing:
  rms(total) = 0.34474E-01    rms(broyden)= 0.34474E-01
  rms(prec ) = 0.39605E-01
  weight for this iteration     100.00

 eigenvalues of (default mixing * dielectric matrix)
  average eigenvalue GAMMA=   1.2146
  2.5518  1.6963  1.2730  0.8024  0.5706  0.3937

 Free energy of the ion-electron system (eV)
  ---------------------------------------------------
  alpha Z        PSCENC =       253.00328942
  Ewald energy   TEWEN  =     59642.25371642
  -Hartree energ DENC   =    -71485.52311525
  -exchange      EXHF   =         0.00000000
  -V(xc)+E(xc)   XCENC  =     -2084.92714646
  PAW double counting   =      8465.37124696    -5823.89586684
  entropy T*S    EENTRO =        -0.00000000
  eigenvalues    EBANDS =     -1242.34247803
  atomic energy  EATOM  =     11953.08265402
  Solvation  Ediel_sol  =         0.00000000
  ---------------------------------------------------
  free energy    TOTEN  =      -322.97769975 eV

  energy without entropy =     -322.97769974  energy(sigma->0) =     -322.97769974


--------------------------------------------------------------------------------------------------------




--------------------------------------- Iteration      1(  12)  ---------------------------------------


    POTLOK:  cpu time    0.2886: real time    0.2888
    SETDIJ:  cpu time    0.0117: real time    0.0117
    EDDIAG:  cpu time    2.4604: real time    2.4669
  RMM-DIIS:  cpu time   48.0167: real time   48.1136
    ORTHCH:  cpu time    0.2009: real time    0.2011
       DOS:  cpu time    0.0005: real time    0.0005
    CHARGE:  cpu time    1.1052: real time    1.1062
    MIXING:  cpu time    0.0077: real time    0.0077
    --------------------------------------------
      LOOP:  cpu time   52.0916: real time   52.1966

 eigenvalue-minimisations  :  2497
 total energy-change (2. order) :-0.1095156E-03  (-0.3384685E-02)
 number of electron     324.0000009 magnetization 
 augmentation part      -21.2472504 magnetization 

 Broyden mixing:
  rms(total) = 0.25765E-01    rms(broyden)= 0.25765E-01
  rms(prec ) = 0.29793E-01
  weight for this iteration     100.00

 eigenvalues of (default mixing * dielectric matrix)
  average eigenvalue GAMMA=   1.2134
  2.4798  1.7853  1.7853  0.8301  0.8301  0.4120  0.3712

 Free energy of the ion-electron system (eV)
  ---------------------------------------------------
  alpha Z        PSCENC =       253.00328942
  Ewald energy   TEWEN  =     59642.25371642
  -Hartree energ DENC   =    -71488.62955942
  -exchange      EXHF   =         0.00000000
  -V(xc)+E(xc)   XCENC  =     -2084.84479786
  PAW double counting   =      8469.47899593    -5828.02976929
  entropy T*S    EENTRO =        -0.00000000
  eigenvalues    EBANDS =     -1239.29233849
  atomic energy  EATOM  =     11953.08265402
  Solvation  Ediel_sol  =         0.00000000
  ---------------------------------------------------
  free energy    TOTEN  =      -322.97780926 eV

  energy without entropy =     -322.97780926  energy(sigma->0) =     -322.97780926


--------------------------------------------------------------------------------------------------------




--------------------------------------- Iteration      1(  13)  ---------------------------------------


    POTLOK:  cpu time    0.2853: real time    0.2855
    SETDIJ:  cpu time    0.0140: real time    0.0140
    EDDIAG:  cpu time    2.4638: real time    2.4748
  RMM-DIIS:  cpu time   44.6201: real time   44.6989
    ORTHCH:  cpu time    0.2096: real time    0.2099
       DOS:  cpu time    0.0005: real time    0.0005
    CHARGE:  cpu time    1.1106: real time    1.1156
    MIXING:  cpu time    0.0076: real time    0.0076
    --------------------------------------------
      LOOP:  cpu time   48.7115: real time   48.8068

 eigenvalue-minimisations  :  2309
 total energy-change (2. order) : 0.1767696E-02  (-0.2226688E-02)
 number of electron     324.0000009 magnetization 
 augmentation part      -21.1375788 magnetization 

 Broyden mixing:
  rms(total) = 0.97388E-02    rms(broyden)= 0.97387E-02
  rms(prec ) = 0.12504E-01
  weight for this iteration     100.00

 eigenvalues of (default mixing * dielectric matrix)
  average eigenvalue GAMMA=   1.3587
  2.7262  2.7262  1.6683  1.3212  0.8193  0.8193  0.4157  0.3731

 Free energy of the ion-electron system (eV)
  ---------------------------------------------------
  alpha Z        PSCENC =       253.00328942
  Ewald energy   TEWEN  =     59642.25371642
  -Hartree energ DENC   =    -71490.60151356
  -exchange      EXHF   =         0.00000000
  -V(xc)+E(xc)   XCENC  =     -2084.77414595
  PAW double counting   =      8463.85295367    -5822.35859164
  entropy T*S    EENTRO =        -0.00000000
  eigenvalues    EBANDS =     -1237.43440395
  atomic energy  EATOM  =     11953.08265402
  Solvation  Ediel_sol  =         0.00000000
  ---------------------------------------------------
  free energy    TOTEN  =      -322.97604156 eV

  energy without entropy =     -322.97604156  energy(sigma->0) =     -322.97604156


--------------------------------------------------------------------------------------------------------




--------------------------------------- Iteration      1(  14)  ---------------------------------------


    POTLOK:  cpu time    0.2848: real time    0.2851
    SETDIJ:  cpu time    0.0117: real time    0.0117
    EDDIAG:  cpu time    2.4551: real time    2.4577
  RMM-DIIS:  cpu time   43.0851: real time   43.1756
    ORTHCH:  cpu time    0.2035: real time    0.2037
       DOS:  cpu time    0.0045: real time    0.0045
    CHARGE:  cpu time    1.1148: real time    1.1157
    MIXING:  cpu time    0.0125: real time    0.0125
    --------------------------------------------
      LOOP:  cpu time   47.1721: real time   47.2666

 eigenvalue-minimisations  :  2232
 total energy-change (2. order) :-0.4159231E-03  (-0.4722398E-03)
 number of electron     324.0000009 magnetization 
 augmentation part      -21.1517430 magnetization 

 Broyden mixing:
  rms(total) = 0.51614E-02    rms(broyden)= 0.51614E-02
  rms(prec ) = 0.68002E-02
  weight for this iteration     100.00

 eigenvalues of (default mixing * dielectric matrix)
  average eigenvalue GAMMA=   1.3182
  3.2105  2.5603  1.5583  1.5583  0.8162  0.8162  0.5538  0.4162  0.3737

 Free energy of the ion-electron system (eV)
  ---------------------------------------------------
  alpha Z        PSCENC =       253.00328942
  Ewald energy   TEWEN  =     59642.25371642
  -Hartree energ DENC   =    -71498.87189766
  -exchange      EXHF   =         0.00000000
  -V(xc)+E(xc)   XCENC  =     -2084.74506875
  PAW double counting   =      8462.69347609    -5821.10974798
  entropy T*S    EENTRO =        -0.00000000
  eigenvalues    EBANDS =     -1229.28287905
  atomic energy  EATOM  =     11953.08265402
  Solvation  Ediel_sol  =         0.00000000
  ---------------------------------------------------
  free energy    TOTEN  =      -322.97645749 eV

  energy without entropy =     -322.97645748  energy(sigma->0) =     -322.97645749


--------------------------------------------------------------------------------------------------------




--------------------------------------- Iteration      1(  15)  ---------------------------------------


    POTLOK:  cpu time    0.2889: real time    0.2894
    SETDIJ:  cpu time    0.0117: real time    0.0117
    EDDIAG:  cpu time    2.4752: real time    2.4777
  RMM-DIIS:  cpu time   51.0918: real time   51.1820
    ORTHCH:  cpu time    0.2120: real time    0.2163
       DOS:  cpu time    0.0005: real time    0.0005
    CHARGE:  cpu time    1.1204: real time    1.1214
    MIXING:  cpu time    0.0078: real time    0.0078
    --------------------------------------------
      LOOP:  cpu time   55.2083: real time   55.3067

 eigenvalue-minimisations  :  2660
 total energy-change (2. order) :-0.5196866E-03  (-0.1791592E-03)
 number of electron     324.0000009 magnetization 
 augmentation part      -21.1532175 magnetization 

 Broyden mixing:
  rms(total) = 0.39905E-02    rms(broyden)= 0.39905E-02
  rms(prec ) = 0.51134E-02
  weight for this iteration     100.00

 eigenvalues of (default mixing * dielectric matrix)
  average eigenvalue GAMMA=   1.3021
  3.3818  2.4630  1.7420  1.7420  0.8675  0.8170  0.8170  0.3724  0.4201  0.3987

 Free energy of the ion-electron system (eV)
  ---------------------------------------------------
  alpha Z        PSCENC =       253.00328942
  Ewald energy   TEWEN  =     59642.25371642
  -Hartree energ DENC   =    -71500.96981669
  -exchange      EXHF   =         0.00000000
  -V(xc)+E(xc)   XCENC  =     -2084.73271906
  PAW double counting   =      8462.80185643    -5821.21576894
  entropy T*S    EENTRO =        -0.00000000
  eigenvalues    EBANDS =     -1227.20018877
  atomic energy  EATOM  =     11953.08265402
  Solvation  Ediel_sol  =         0.00000000
  ---------------------------------------------------
  free energy    TOTEN  =      -322.97697717 eV

  energy without entropy =     -322.97697717  energy(sigma->0) =     -322.97697717


--------------------------------------------------------------------------------------------------------




--------------------------------------- Iteration      1(  16)  ---------------------------------------


    POTLOK:  cpu time    0.2972: real time    0.2974
    SETDIJ:  cpu time    0.0117: real time    0.0117
    EDDIAG:  cpu time    2.4681: real time    2.4748
  RMM-DIIS:  cpu time   46.2410: real time   46.3289
    ORTHCH:  cpu time    0.2023: real time    0.2065
       DOS:  cpu time    0.0005: real time    0.0005
    CHARGE:  cpu time    1.1164: real time    1.1174
    MIXING:  cpu time    0.0079: real time    0.0079
    --------------------------------------------
      LOOP:  cpu time   50.3450: real time   50.4450

 eigenvalue-minimisations  :  2414
 total energy-change (2. order) :-0.7793809E-03  (-0.3736200E-04)
 number of electron     324.0000009 magnetization 
 augmentation part      -21.1544258 magnetization 

 Broyden mixing:
  rms(total) = 0.24645E-02    rms(broyden)= 0.24645E-02
  rms(prec ) = 0.34484E-02
  weight for this iteration     100.00

 eigenvalues of (default mixing * dielectric matrix)
  average eigenvalue GAMMA=   1.3612
  3.7561  2.4128  1.9972  1.9972  0.9938  0.9938  0.8231  0.8231  0.4168  0.3715
  0.3878

 Free energy of the ion-electron system (eV)
  ---------------------------------------------------
  alpha Z        PSCENC =       253.00328942
  Ewald energy   TEWEN  =     59642.25371642
  -Hartree energ DENC   =    -71502.65191711
  -exchange      EXHF   =         0.00000000
  -V(xc)+E(xc)   XCENC  =     -2084.72084168
  PAW double counting   =      8462.66964875    -5821.09617313
  entropy T*S    EENTRO =        -0.00000000
  eigenvalues    EBANDS =     -1225.51813326
  atomic energy  EATOM  =     11953.08265402
  Solvation  Ediel_sol  =         0.00000000
  ---------------------------------------------------
  free energy    TOTEN  =      -322.97775656 eV

  energy without entropy =     -322.97775655  energy(sigma->0) =     -322.97775655


--------------------------------------------------------------------------------------------------------




--------------------------------------- Iteration      1(  17)  ---------------------------------------


    POTLOK:  cpu time    0.2887: real time    0.2931
    SETDIJ:  cpu time    0.0117: real time    0.0117
    EDDIAG:  cpu time    2.4742: real time    2.4766
  RMM-DIIS:  cpu time   40.0571: real time   40.1437
    ORTHCH:  cpu time    0.2145: real time    0.2147
       DOS:  cpu time    0.0005: real time    0.0005
    CHARGE:  cpu time    1.1119: real time    1.1132
    MIXING:  cpu time    0.0082: real time    0.0082
    --------------------------------------------
      LOOP:  cpu time   44.1668: real time   44.2617

 eigenvalue-minimisations  :  2072
 total energy-change (2. order) :-0.1264847E-02  (-0.3334102E-04)
 number of electron     324.0000009 magnetization 
 augmentation part      -21.1553525 magnetization 

 Broyden mixing:
  rms(total) = 0.19833E-02    rms(broyden)= 0.19833E-02
  rms(prec ) = 0.24720E-02
  weight for this iteration     100.00

 eigenvalues of (default mixing * dielectric matrix)
  average eigenvalue GAMMA=   1.4104
  4.5150  2.6736  2.3988  1.5586  1.5586  0.9436  0.8219  0.8219  0.4709  0.4157
  0.3784  0.3679

 Free energy of the ion-electron system (eV)
  ---------------------------------------------------
  alpha Z        PSCENC =       253.00328942
  Ewald energy   TEWEN  =     59642.25371642
  -Hartree energ DENC   =    -71505.75978115
  -exchange      EXHF   =         0.00000000
  -V(xc)+E(xc)   XCENC  =     -2084.70686808
  PAW double counting   =      8461.74843475    -5820.18107641
  entropy T*S    EENTRO =        -0.00000000
  eigenvalues    EBANDS =     -1222.41939038
  atomic energy  EATOM  =     11953.08265402
  Solvation  Ediel_sol  =         0.00000000
  ---------------------------------------------------
  free energy    TOTEN  =      -322.97902140 eV

  energy without entropy =     -322.97902140  energy(sigma->0) =     -322.97902140


--------------------------------------------------------------------------------------------------------




--------------------------------------- Iteration      1(  18)  ---------------------------------------


    POTLOK:  cpu time    0.2906: real time    0.2910
    SETDIJ:  cpu time    0.0121: real time    0.0121
    EDDIAG:  cpu time    2.4562: real time    2.4588
  RMM-DIIS:  cpu time   41.4891: real time   41.5641
    ORTHCH:  cpu time    0.2076: real time    0.2078
       DOS:  cpu time    0.0005: real time    0.0005
    CHARGE:  cpu time    1.1109: real time    1.1159
    MIXING:  cpu time    0.0121: real time    0.0121
    --------------------------------------------
      LOOP:  cpu time   45.5790: real time   45.6623

 eigenvalue-minimisations  :  2154
 total energy-change (2. order) :-0.5604638E-03  (-0.1596284E-04)
 number of electron     324.0000009 magnetization 
 augmentation part      -21.1556663 magnetization 

 Broyden mixing:
  rms(total) = 0.13610E-02    rms(broyden)= 0.13610E-02
  rms(prec ) = 0.16520E-02
  weight for this iteration     100.00

 eigenvalues of (default mixing * dielectric matrix)
  average eigenvalue GAMMA=   1.4303
  5.0602  2.8130  2.3499  1.7370  1.7370  0.9044  0.8337  0.8337  0.7533  0.4158
  0.4112  0.3755  0.3687

 Free energy of the ion-electron system (eV)
  ---------------------------------------------------
  alpha Z        PSCENC =       253.00328942
  Ewald energy   TEWEN  =     59642.25371642
  -Hartree energ DENC   =    -71507.18686465
  -exchange      EXHF   =         0.00000000
  -V(xc)+E(xc)   XCENC  =     -2084.70193152
  PAW double counting   =      8461.42397263    -5819.85431777
  entropy T*S    EENTRO =        -0.00000000
  eigenvalues    EBANDS =     -1221.00010042
  atomic energy  EATOM  =     11953.08265402
  Solvation  Ediel_sol  =         0.00000000
  ---------------------------------------------------
  free energy    TOTEN  =      -322.97958187 eV

  energy without entropy =     -322.97958186  energy(sigma->0) =     -322.97958186


--------------------------------------------------------------------------------------------------------




--------------------------------------- Iteration      1(  19)  ---------------------------------------


    POTLOK:  cpu time    0.2823: real time    0.2838
    SETDIJ:  cpu time    0.0169: real time    0.0169
    EDDIAG:  cpu time    2.4664: real time    2.4732
  RMM-DIIS:  cpu time   43.8000: real time   43.8910
    ORTHCH:  cpu time    0.2069: real time    0.2071
       DOS:  cpu time    0.0004: real time    0.0004
    CHARGE:  cpu time    1.1151: real time    1.1161
    MIXING:  cpu time    0.0120: real time    0.0120
    --------------------------------------------
      LOOP:  cpu time   47.9002: real time   48.0005

 eigenvalue-minimisations  :  2277
 total energy-change (2. order) :-0.3135137E-03  (-0.4732423E-05)
 number of electron     324.0000009 magnetization 
 augmentation part      -21.1548109 magnetization 

 Broyden mixing:
  rms(total) = 0.79971E-03    rms(broyden)= 0.79971E-03
  rms(prec ) = 0.10161E-02
  weight for this iteration     100.00

 eigenvalues of (default mixing * dielectric matrix)
  average eigenvalue GAMMA=   1.5320
  6.1885  2.9936  2.4590  1.8771  1.8771  1.0740  1.0740  0.8224  0.8224  0.6961
  0.4174  0.4053  0.3747  0.3664

 Free energy of the ion-electron system (eV)
  ---------------------------------------------------
  alpha Z        PSCENC =       253.00328942
  Ewald energy   TEWEN  =     59642.25371642
  -Hartree energ DENC   =    -71507.72532678
  -exchange      EXHF   =         0.00000000
  -V(xc)+E(xc)   XCENC  =     -2084.70097523
  PAW double counting   =      8461.55531491    -5819.98120898
  entropy T*S    EENTRO =        -0.00000000
  eigenvalues    EBANDS =     -1220.46735917
  atomic energy  EATOM  =     11953.08265402
  Solvation  Ediel_sol  =         0.00000000
  ---------------------------------------------------
  free energy    TOTEN  =      -322.97989538 eV

  energy without entropy =     -322.97989538  energy(sigma->0) =     -322.97989538


--------------------------------------------------------------------------------------------------------




--------------------------------------- Iteration      1(  20)  ---------------------------------------


    POTLOK:  cpu time    0.2926: real time    0.2929
    SETDIJ:  cpu time    0.0137: real time    0.0137
    EDDIAG:  cpu time    2.4763: real time    2.4790
  RMM-DIIS:  cpu time   40.8608: real time   40.9313
    ORTHCH:  cpu time    0.2109: real time    0.2113
       DOS:  cpu time    0.0005: real time    0.0005
    CHARGE:  cpu time    1.1092: real time    1.1141
    MIXING:  cpu time    0.0086: real time    0.0086
    --------------------------------------------
      LOOP:  cpu time   44.9726: real time   45.0514

 eigenvalue-minimisations  :  2114
 total energy-change (2. order) :-0.3441927E-03  (-0.5091128E-05)
 number of electron     324.0000009 magnetization 
 augmentation part      -21.1535295 magnetization 

 Broyden mixing:
  rms(total) = 0.35901E-03    rms(broyden)= 0.35901E-03
  rms(prec ) = 0.46230E-03
  weight for this iteration     100.00

 eigenvalues of (default mixing * dielectric matrix)
  average eigenvalue GAMMA=   1.5504
  6.6727  3.1546  2.4800  1.8327  1.8327  1.2636  1.2636  0.8211  0.8211  0.8419
  0.7091  0.4173  0.4059  0.3748  0.3654

 Free energy of the ion-electron system (eV)
  ---------------------------------------------------
  alpha Z        PSCENC =       253.00328942
  Ewald energy   TEWEN  =     59642.25371642
  -Hartree energ DENC   =    -71508.20842991
  -exchange      EXHF   =         0.00000000
  -V(xc)+E(xc)   XCENC  =     -2084.70046006
  PAW double counting   =      8461.92383759    -5820.34864914
  entropy T*S    EENTRO =        -0.00000000
  eigenvalues    EBANDS =     -1219.98619791
  atomic energy  EATOM  =     11953.08265402
  Solvation  Ediel_sol  =         0.00000000
  ---------------------------------------------------
  free energy    TOTEN  =      -322.98023957 eV

  energy without entropy =     -322.98023957  energy(sigma->0) =     -322.98023957


--------------------------------------------------------------------------------------------------------




--------------------------------------- Iteration      1(  21)  ---------------------------------------


    POTLOK:  cpu time    0.2945: real time    0.2989
    SETDIJ:  cpu time    0.0119: real time    0.0119
    EDDIAG:  cpu time    2.4585: real time    2.4608
  RMM-DIIS:  cpu time   35.2265: real time   35.2972
    ORTHCH:  cpu time    0.2188: real time    0.2191
       DOS:  cpu time    0.0005: real time    0.0005
    CHARGE:  cpu time    1.1082: real time    1.1092
    MIXING:  cpu time    0.0086: real time    0.0086
    --------------------------------------------
      LOOP:  cpu time   39.3275: real time   39.4061

 eigenvalue-minimisations  :  1772
 total energy-change (2. order) :-0.7795256E-04  (-0.9482916E-06)
 number of electron     324.0000009 magnetization 
 augmentation part      -21.1539602 magnetization 

 Broyden mixing:
  rms(total) = 0.29390E-03    rms(broyden)= 0.29390E-03
  rms(prec ) = 0.37213E-03
  weight for this iteration     100.00

 eigenvalues of (default mixing * dielectric matrix)
  average eigenvalue GAMMA=   1.5294
  6.9060  3.2118  2.4676  1.9429  1.9429  1.5836  1.0785  0.9843  0.8216  0.8216
  0.7083  0.3653  0.3746  0.4058  0.4185  0.4363

 Free energy of the ion-electron system (eV)
  ---------------------------------------------------
  alpha Z        PSCENC =       253.00328942
  Ewald energy   TEWEN  =     59642.25371642
  -Hartree energ DENC   =    -71508.39181299
  -exchange      EXHF   =         0.00000000
  -V(xc)+E(xc)   XCENC  =     -2084.70096283
  PAW double counting   =      8461.93419352    -5820.36038622
  entropy T*S    EENTRO =        -0.00000000
  eigenvalues    EBANDS =     -1219.80100887
  atomic energy  EATOM  =     11953.08265402
  Solvation  Ediel_sol  =         0.00000000
  ---------------------------------------------------
  free energy    TOTEN  =      -322.98031752 eV

  energy without entropy =     -322.98031752  energy(sigma->0) =     -322.98031752


--------------------------------------------------------------------------------------------------------




--------------------------------------- Iteration      1(  22)  ---------------------------------------


    POTLOK:  cpu time    0.2930: real time    0.2933
    SETDIJ:  cpu time    0.0116: real time    0.0116
    EDDIAG:  cpu time    2.4663: real time    2.4729
  RMM-DIIS:  cpu time   25.4185: real time   25.4790
    ORTHCH:  cpu time    0.2057: real time    0.2099
       DOS:  cpu time    0.0006: real time    0.0005
    CHARGE:  cpu time    1.1180: real time    1.1191
    MIXING:  cpu time    0.0088: real time    0.0088
    --------------------------------------------
      LOOP:  cpu time   29.5225: real time   29.5952

 eigenvalue-minimisations  :  1283
 total energy-change (2. order) :-0.4207791E-04  (-0.2501537E-06)
 number of electron     324.0000009 magnetization 
 augmentation part      -21.1541793 magnetization 

 Broyden mixing:
  rms(total) = 0.16740E-03    rms(broyden)= 0.16740E-03
  rms(prec ) = 0.23705E-03
  weight for this iteration     100.00

 eigenvalues of (default mixing * dielectric matrix)
  average eigenvalue GAMMA=   1.5906
  7.2483  3.0180  2.8779  2.6301  1.8164  1.8164  1.1664  1.1664  0.9917  0.8210
[...]
 -0.000   0.000   0.000   0.000  -0.000   0.011  -0.000   0.000
  0.000  -0.000   0.000   0.000  -0.000  -0.000   0.011   0.000
 -0.000   0.000  -0.000  -0.000   0.000   0.000   0.000   0.011
  0.000   0.000  -0.000   0.000  -0.001  -0.000  -0.000  -0.000
  0.000  -0.000   0.016  -0.000   0.000   0.000   0.000  -0.000
 -0.009  -0.000   0.000   0.020   0.000  -0.000   0.000   0.000
  0.000   0.000   0.000  -0.000   0.016  -0.000  -0.000   0.000
 -0.000  -0.000  -0.000  -0.000  -0.000  -0.000   0.000  -0.000
 total augmentation occupancy for first ion, spin component:           1
  1.930   0.234   0.000  -0.198   0.001   0.002  -0.041  -0.002  -0.001  -0.000   0.004   0.001  -0.001
  0.234   1.363  -0.006   0.954  -0.003  -0.000  -0.384   0.000   0.002   0.000  -0.019   0.001  -0.000
  0.000  -0.006   1.340  -0.004   0.001  -0.502   0.000   0.004   0.001   0.120   0.001   0.000   0.048
 -0.198   0.954  -0.004   1.515  -0.001   0.000  -0.535  -0.004  -0.001   0.000   0.033   0.002  -0.001
  0.001  -0.003   0.001  -0.001   1.338   0.004  -0.004  -0.495   0.047   0.000   0.002   0.119  -0.002
  0.002  -0.000  -0.502   0.000   0.004   0.313   0.001   0.002  -0.001  -0.042  -0.000   0.001  -0.009
 -0.041  -0.384   0.000  -0.535  -0.004   0.001   0.298   0.001  -0.000   0.000  -0.048  -0.001  -0.000
 -0.002   0.000   0.004  -0.004  -0.495   0.002   0.001   0.309  -0.008   0.001  -0.000  -0.041   0.001
 -0.001   0.002   0.001  -0.001   0.047  -0.001  -0.000  -0.008   0.021   0.000  -0.000  -0.001  -0.000
 -0.000   0.000   0.120   0.000   0.000  -0.042   0.000   0.001   0.000   0.019  -0.000   0.000  -0.000
  0.004  -0.019   0.001   0.033   0.002  -0.000  -0.048  -0.000  -0.000  -0.000   0.020   0.000   0.000
  0.001   0.001   0.000   0.002   0.119   0.001  -0.001  -0.041  -0.001   0.000   0.000   0.019   0.000
 -0.001  -0.000   0.048  -0.001  -0.002  -0.009  -0.000   0.001  -0.000  -0.000   0.000   0.000   0.021


------------------------ aborting loop because EDIFF is reached ----------------------------------------


    CHARGE:  cpu time    1.1255: real time    1.1264
    FORLOC:  cpu time    0.0805: real time    0.0805
    FORNL :  cpu time   12.9303: real time   12.9582
    STRESS:  cpu time   69.7355: real time   69.8546
    FORCOR:  cpu time    0.3283: real time    0.3286
    FORHAR:  cpu time    0.1338: real time    0.1340
    MIXING:  cpu time    0.0082: real time    0.0082
    OFIELD:  cpu time    0.0000: real time    0.0000

  Number of pair interactions contributing to vdW energy:  275518
  Edisp (eV):  -19.62569
    FORVDW:  cpu time    0.0300: real time    0.0300

  FORCE on cell =-STRESS in cart. coord.  units (eV):
  Direction    XX          YY          ZZ          XY          YZ          ZX
  --------------------------------------------------------------------------------------
  Alpha Z   253.00329   253.00329   253.00329
  Ewald   68733.72037 68747.08486-77923.05768    21.36569   -46.05777    29.99648
  Hartree 71049.57563 71055.51205-70676.05888     4.32080    -5.48058     3.50595
  E(xc)   -1361.00884 -1360.70742 -1380.05620    -0.83738     1.66487    -1.08834
  Local  ************************143521.38829   -25.11986    49.51383   -32.24237
  n-local  3573.12180  3571.16872  3756.50875    -0.28680   -11.64397     7.67112
  augment  -760.70973  -760.24324  -800.90679     0.74009     1.80099    -1.17618
  Kinetic  3291.41975  3293.87222  3299.11780     8.60659    -7.30677     4.59129
  Fock        0.00000     0.00000     0.00000     0.00000     0.00000     0.00000
  vdW       -13.82921   -13.13565    -9.14395    -0.60586     0.28395    -0.21048
  -------------------------------------------------------------------------------------
  Total      10.46416    13.13136    40.79462     8.18327   -17.22545    11.04745
  in kB       5.91042     7.41693    23.04184     4.62212    -9.72937     6.23988
  external pressure =       12.12 kB  Pullay stress =        0.00 kB

  kinetic pressure (ideal gas correction) =      0.26 kB
  total pressure  =     12.38 kB
  Total+kin.     6.166       7.639      23.330       4.584      -9.775       6.301

 VOLUME and BASIS-vectors are now :
 -----------------------------------------------------------------------------
  energy-cutoff  :      550.00
  volume of cell :     2836.59
      direct lattice vectors                 reciprocal lattice vectors
    10.600521201  0.000000000  0.000000000     0.094334984  0.056775825  0.000145293
    -5.525959915  9.181572271  0.000000000     0.000000000  0.108913808 -0.002393834
    -0.430413366  0.640564868 29.144193124     0.000000000  0.000000000  0.034312153

  length of vectors
    10.600521201 10.716226124 29.154409132     0.110102701  0.108940112  0.034312153


 FORCES acting on ions
    electron-ion (+dipol)            ewald-force                    non-local-force                 convergence-correction
 -----------------------------------------------------------------------------------------------
   -.177E+00 -.126E+01 0.828E+03   0.265E+00 0.129E+01 -.834E+03   -.107E+00 0.472E-01 0.515E+01   0.178E-03 -.162E-02 -.994E-03
   0.298E+00 -.204E+01 0.831E+03   -.247E+00 0.201E+01 -.837E+03   -.532E-01 0.350E+00 0.488E+01   -.130E-02 0.815E-03 -.131E-02
   -.175E+01 0.132E+01 0.832E+03   0.185E+01 -.133E+01 -.838E+03   -.330E-01 -.115E+00 0.461E+01   -.594E-03 -.144E-03 0.653E-03
   0.212E+01 -.818E+00 0.832E+03   -.210E+01 0.768E+00 -.838E+03   -.379E+00 0.269E+00 0.507E+01   0.334E-03 -.622E-03 -.592E-03
   0.237E+01 0.180E+01 0.830E+03   -.231E+01 -.188E+01 -.835E+03   -.424E+00 0.159E+00 0.475E+01   0.162E-02 0.845E-03 -.776E-03
   0.430E+01 -.107E+01 0.830E+03   -.425E+01 0.974E+00 -.836E+03   -.500E+00 0.418E+00 0.517E+01   0.365E-03 0.120E-02 -.235E-03
   0.176E+01 -.897E+00 0.830E+03   -.170E+01 0.824E+00 -.836E+03   -.309E+00 0.388E+00 0.473E+01   -.528E-03 -.125E-02 -.588E-03
   0.206E+01 -.463E+00 0.829E+03   -.199E+01 0.386E+00 -.835E+03   -.367E+00 0.390E+00 0.529E+01   -.309E-03 0.109E-02 0.447E-03
   0.240E+01 -.165E+01 0.834E+03   -.234E+01 0.156E+01 -.840E+03   -.381E+00 0.401E+00 0.489E+01   0.225E-03 -.304E-03 0.104E-02
   -.126E+01 0.987E+00 -.116E+03   0.139E+01 -.112E+01 0.110E+03   -.186E+00 0.142E+00 0.536E+01   0.338E-03 -.323E-03 -.118E-02
   0.203E+01 -.258E+01 -.114E+03   -.203E+01 0.261E+01 0.109E+03   -.139E+00 0.187E+00 0.494E+01   -.127E-02 0.820E-03 -.277E-03
   0.267E+01 0.138E+01 -.116E+03   -.262E+01 -.146E+01 0.110E+03   -.351E+00 0.211E+00 0.510E+01   -.147E-03 -.108E-02 0.855E-04
   0.283E+01 -.685E+00 -.115E+03   -.277E+01 0.565E+00 0.109E+03   -.348E+00 0.427E+00 0.482E+01   -.631E-04 0.144E-04 -.870E-03
   0.708E-01 -.151E+01 -.115E+03   0.139E-01 0.142E+01 0.109E+03   -.135E+00 0.470E+00 0.495E+01   0.758E-03 0.159E-03 -.567E-03
   0.414E+01 0.891E+00 -.116E+03   -.406E+01 -.101E+01 0.110E+03   -.527E+00 0.329E+00 0.507E+01   0.184E-03 0.433E-03 -.613E-03
   0.296E+01 -.184E+01 -.113E+03   -.287E+01 0.177E+01 0.107E+03   -.506E+00 0.372E+00 0.470E+01   -.316E-03 -.476E-03 -.101E-02
   0.774E+00 -.415E+01 -.117E+03   -.690E+00 0.409E+01 0.111E+03   -.128E+00 0.566E+00 0.511E+01   0.434E-03 0.945E-03 0.413E-03
   -.138E+01 0.148E+01 -.113E+03   0.153E+01 -.158E+01 0.108E+03   -.244E+00 0.305E+00 0.501E+01   -.380E-04 -.412E-03 -.448E-03
   0.305E+01 -.143E-01 0.116E+03   -.315E+01 0.154E+00 -.110E+03   0.411E-01 -.456E+00 -.525E+01   0.144E-03 -.156E-02 0.795E-03
   0.111E+01 0.106E+01 0.114E+03   -.116E+01 -.949E+00 -.108E+03   0.181E+00 -.439E+00 -.487E+01   -.138E-02 0.841E-03 0.121E-02
   -.180E+01 0.338E+01 0.113E+03   0.183E+01 -.328E+01 -.107E+03   0.269E+00 -.649E+00 -.466E+01   -.523E-03 -.338E-03 -.828E-03
   -.268E+00 -.262E+00 0.114E+03   0.234E+00 0.360E+00 -.109E+03   0.126E+00 -.330E+00 -.484E+01   0.421E-03 -.656E-03 0.451E-03
   -.647E-01 0.205E+00 0.114E+03   0.335E-01 -.332E-01 -.108E+03   0.267E+00 -.380E+00 -.479E+01   0.160E-02 0.890E-03 0.687E-03
   0.199E+01 0.251E+01 0.115E+03   -.200E+01 -.245E+01 -.110E+03   -.738E-01 -.472E+00 -.540E+01   0.343E-03 0.108E-02 0.330E-04
   -.215E+01 -.949E+00 0.114E+03   0.216E+01 0.108E+01 -.108E+03   0.386E+00 -.286E+00 -.509E+01   -.515E-03 -.113E-02 0.432E-03
   0.461E+00 0.129E+01 0.116E+03   -.495E+00 -.120E+01 -.110E+03   0.110E+00 -.315E+00 -.522E+01   -.213E-03 0.115E-02 -.636E-03
   0.305E+01 -.291E-01 0.115E+03   -.306E+01 0.773E-01 -.110E+03   -.208E+00 -.254E+00 -.485E+01   0.212E-03 -.400E-03 -.127E-02
   -.602E+00 -.136E+01 -.830E+03   0.531E+00 0.139E+01 0.835E+03   0.275E+00 -.435E-01 -.513E+01   0.314E-03 -.197E-03 0.146E-02
   0.179E+01 0.505E+00 -.831E+03   -.183E+01 -.451E+00 0.837E+03   -.141E-01 -.308E+00 -.514E+01   -.119E-02 0.815E-03 0.844E-03
   0.581E+00 0.297E+01 -.830E+03   -.563E+00 -.292E+01 0.835E+03   0.213E-01 -.410E+00 -.505E+01   0.147E-04 -.117E-02 0.335E-03
   -.619E+00 -.268E+00 -.832E+03   0.594E+00 0.338E+00 0.837E+03   0.382E+00 -.297E+00 -.477E+01   -.552E-04 0.778E-04 0.112E-02
   -.820E+00 0.133E+01 -.830E+03   0.840E+00 -.129E+01 0.835E+03   0.198E+00 -.269E+00 -.507E+01   0.684E-03 0.157E-03 0.106E-02
   0.333E+01 0.134E+01 -.830E+03   -.339E+01 -.129E+01 0.836E+03   -.518E-01 -.252E+00 -.543E+01   0.970E-04 0.229E-03 0.107E-02
   0.108E+01 -.170E+01 -.831E+03   -.112E+01 0.184E+01 0.837E+03   0.211E+00 -.267E+00 -.466E+01   -.316E-03 -.340E-03 0.124E-02
   0.154E+01 0.444E+00 -.828E+03   -.153E+01 -.394E+00 0.833E+03   -.632E-01 -.348E+00 -.511E+01   0.576E-03 0.876E-03 -.555E-04
   -.142E+01 0.221E+01 -.833E+03   0.143E+01 -.220E+01 0.838E+03   0.217E+00 -.202E+00 -.512E+01   -.107E-03 -.489E-03 0.684E-03
   0.104E+01 -.510E+01 0.476E+03   -.110E+01 0.532E+01 -.476E+03   -.196E+00 0.595E+00 0.947E-01   -.277E-03 -.141E-02 0.825E-04
   -.226E+01 0.613E+00 0.472E+03   0.230E+01 -.611E+00 -.472E+03   -.566E-01 -.802E-01 0.363E+00   -.736E-03 -.928E-03 0.849E-04
   -.138E+01 0.101E+01 0.470E+03   0.139E+01 -.929E+00 -.470E+03   -.228E+00 0.116E+00 -.122E+00   -.140E-02 0.100E-02 0.125E-03
   -.704E+01 0.205E+01 0.476E+03   0.730E+01 -.207E+01 -.476E+03   0.459E+00 0.400E-01 0.224E-01   -.195E-03 -.292E-03 0.509E-04
   -.123E+01 0.609E+00 0.469E+03   0.128E+01 -.619E+00 -.469E+03   0.159E-01 0.647E-01 -.357E+00   0.823E-03 -.498E-03 -.569E-04
   0.407E+00 -.274E+01 0.473E+03   -.421E+00 0.286E+01 -.473E+03   -.140E+00 0.188E+00 0.604E-01   0.393E-03 0.143E-02 0.789E-04
   -.915E+00 0.108E+01 0.474E+03   0.101E+01 -.120E+01 -.474E+03   0.237E+00 0.959E-03 0.179E+00   0.451E-03 -.503E-03 0.111E-03
   -.120E+01 -.279E+01 0.472E+03   0.125E+01 0.288E+01 -.472E+03   -.990E-01 0.114E+00 -.583E-01   -.180E-03 0.226E-03 0.377E-04
   -.449E+01 0.276E+01 0.474E+03   0.469E+01 -.278E+01 -.474E+03   0.307E+00 -.279E+00 0.101E+00   0.102E-02 0.107E-02 0.107E-03
   -.437E+01 -.295E+01 -.471E+03   0.452E+01 0.301E+01 0.471E+03   0.309E+00 0.227E+00 0.219E+00   -.489E-03 0.278E-03 0.579E-04
   -.655E+00 -.203E+01 -.474E+03   0.750E+00 0.209E+01 0.474E+03   -.133E+00 0.101E+00 -.950E-01   -.604E-03 0.251E-03 0.166E-04
   -.338E+01 0.202E+01 -.475E+03   0.340E+01 -.204E+01 0.475E+03   0.714E-01 -.693E-01 -.276E+00   0.196E-03 -.102E-02 -.124E-03
   0.562E+00 0.321E+00 -.476E+03   -.650E+00 -.377E+00 0.476E+03   -.275E+00 -.104E+00 -.179E+00   0.438E-03 0.645E-04 0.250E-05
   -.113E+00 -.198E+01 -.470E+03   0.134E+00 0.206E+01 0.470E+03   0.852E-01 -.440E-01 0.260E+00   -.269E-03 0.500E-03 0.947E-04
   -.330E+01 0.432E+01 -.472E+03   0.350E+01 -.446E+01 0.472E+03   0.322E+00 -.263E+00 0.152E+00   -.176E-03 -.604E-03 -.368E-04
   -.110E+01 -.286E+01 -.475E+03   0.115E+01 0.286E+01 0.475E+03   -.886E-01 -.166E-01 -.121E-01   0.263E-04 0.710E-03 0.113E-04
   -.413E+01 0.916E+00 -.470E+03   0.419E+01 -.929E+00 0.470E+03   0.623E-01 -.209E+00 0.172E+00   0.796E-03 0.806E-04 -.322E-05
   -.720E+00 0.362E+01 -.474E+03   0.842E+00 -.376E+01 0.474E+03   0.186E-01 -.158E+00 0.118E+00   -.303E-04 -.352E-03 -.441E-04
 -----------------------------------------------------------------------------------------------
   0.217E+01 0.439E+00 0.196E+00   0.266E-13 0.320E-13 0.125E-11   -.218E+01 -.435E+00 -.200E+00   -.231E-03 -.610E-04 0.242E-02
 
 
 POSITION                                       TOTAL-FORCE (eV/Angst)
 -----------------------------------------------------------------------------------
     -0.19642      2.26238      9.34670        -0.018851      0.075343     -0.506552
     -2.05190      5.30354      9.33603        -0.012107      0.316686     -0.708694
     -3.90826      8.38868      9.34823         0.055225     -0.131384     -0.976259
      3.35834      2.25047      9.32659        -0.342268      0.211687     -0.506401
      1.51822      5.30224      9.35724        -0.355753      0.072915     -0.874366
     -0.33259      8.34501      9.32121        -0.440951      0.311683     -0.413642
      6.88201      2.23313      9.34854        -0.247759      0.302814     -0.890329
      5.05334      5.29823      9.32832        -0.282627      0.303763     -0.341919
      3.19311      8.36239      9.31391        -0.309051      0.301371     -0.670171
      0.62576      0.89063     16.26331        -0.046114     -0.002613     -0.205061
     -1.22933      3.92476     16.27388        -0.138344      0.200853     -0.631803
     -3.05572      7.00260     16.27839        -0.292627      0.118911     -0.459268
      4.16957      0.87926     16.28609        -0.277120      0.296242     -0.756351
      2.30107      3.91982     16.27806        -0.050490      0.351255     -0.662218
      0.49326      7.00149     16.27592        -0.421174      0.200448     -0.503705
      7.70382      0.85156     16.27870        -0.399481      0.280785     -0.854309
      5.84246      3.91219     16.28422        -0.043771      0.480458     -0.516996
      4.00791      7.00980     16.26619        -0.088185      0.192169     -0.500774
     -0.23187      2.31648     12.87362        -0.074698     -0.299880      0.349876
     -2.07309      5.38650     12.86186         0.123687     -0.309506      0.689542
     -3.94322      8.46672     12.85434         0.274941     -0.530276      0.905596
      3.30868      2.31098     12.86032         0.083860     -0.218979      0.772272
      1.44833      5.38542     12.85707         0.220933     -0.191093      0.811176
     -0.38663      8.45938     12.88323        -0.089909     -0.381675      0.156985
      6.81211      2.30366     12.87291         0.371243     -0.142777      0.495038
      4.98352      5.38366     12.86137         0.061050     -0.204471      0.427325
      3.16422      8.44233     12.85212        -0.223107     -0.186522      0.682430
      0.55873      0.92861     19.81271         0.188774     -0.011896      0.476366
     -1.23487      3.98522     19.82277        -0.053837     -0.250041      0.385875
     -3.09295      7.07924     19.81479         0.036326     -0.349789      0.544136
      4.09458      0.95334     19.80394         0.341478     -0.221551      0.822046
      2.25786      4.02024     19.80923         0.207768     -0.215056      0.511232
      0.43663      7.06570     19.83790        -0.105621     -0.190041      0.073634
      7.63507      0.92517     19.78955         0.159610     -0.132329      0.890113
      5.81769      4.01977     19.79764        -0.056168     -0.283951      0.534435
      3.94319      7.05841     19.83763         0.207087     -0.181461      0.370747
      4.91826      9.38470     11.09039        -0.264657      0.853291     -0.016123
     -2.00323      3.30535     11.08946         0.004829     -0.097424      0.523267
     -3.82218      6.36595     11.11327        -0.230838      0.175947     -0.188449
     -2.18836      9.42469     11.09577         0.757850      0.016946     -0.042549
      1.54958      3.29931     11.13274         0.054826      0.046433     -0.523700
     -0.29963      6.34450     11.09924        -0.152928      0.319949     -0.017245
      1.37473      9.41996     11.09078         0.331236     -0.110178      0.217376
      5.07865      3.28506     11.10580        -0.053574      0.221454     -0.137520
      3.20696      6.38555     11.09124         0.528608     -0.325512      0.155192
      9.39561      1.90764     18.02309         0.498356      0.310223      0.385266
     -3.00035      4.98387     18.05073        -0.060287      0.165010     -0.084031
      5.72214      8.05206     18.06231         0.110244     -0.081262     -0.309629
      2.36532      1.94254     18.05611        -0.377387     -0.160516     -0.140540
      0.49971      4.98545     18.02550         0.116187      0.038715      0.345240
     -1.35015      8.07793     18.03644         0.534282     -0.413078      0.287886
      5.89071      1.91950     18.04292        -0.028379      0.006203      0.099074
      4.02927      5.01414     18.02763         0.144855     -0.238007      0.266758
      2.20327      8.05273     18.04031         0.120925     -0.306340      0.257993
 -----------------------------------------------------------------------------------
    total drift:                               -0.003885      0.003946     -0.001729


--------------------------------------------------------------------------------------------------------



  FREE ENERGIE OF THE ION-ELECTRON SYSTEM (eV)
  ---------------------------------------------------
  free  energy   TOTEN  =      -342.59874867 eV

  energy  without entropy=     -342.59874867  energy(sigma->0) =     -342.59874867
 
 d Force = 0.3771977E-02[ 0.115E-02, 0.639E-02]  d Energy = 0.3722143E-02 0.498E-04
 d Force = 0.2027430E+02[ 0.203E+02, 0.203E+02]  d Ewald  = 0.2027429E+02 0.139E-05


--------------------------------------------------------------------------------------------------------


    POTLOK:  cpu time    0.2995: real time    0.2998


--------------------------------------------------------------------------------------------------------


           RANDOM_SEED =         160212511              324                0
   IONSTEP:  cpu time    0.0001: real time    0.0001

  ENERGY OF THE ELECTRON-ION-THERMOSTAT SYSTEM (eV)
  ---------------------------------------------------
% ion-electron   TOTEN  =      -342.598749  see above
  kinetic energy EKIN   =         0.680624
  kin. lattice  EKIN_LAT=         0.000000  (temperature   99.35 K)
  nose potential ES     =        -0.012340
  nose kinetic   EPS    =         0.000245
  ---------------------------------------------------
  total energy   ETOTAL =      -341.930220 eV

  maximum distance moved by ions :      0.44E-03


 mean value of Nose-termostat <S>:     0.989 mean value of <T> :    99.349
 mean temperature <T/S>/<1/S>  :    99.349

    WAVPRE:  cpu time    0.1024: real time    0.1061
    FEWALD:  cpu time    0.0011: real time    0.0011
    ORTHCH:  cpu time    7.7818: real time    7.7977
    POTLOK:  cpu time    0.3004: real time    0.3051
    EDDIAG:  cpu time    2.4347: real time    2.4496
     LOOP+:  cpu time  459.7652: real time  460.7439
    4ORBIT:  cpu time    0.0000: real time    0.0000

 total amount of memory used by VASP MPI-rank0   359007. kBytes
=======================================================================

   base      :      30000. kBytes
   nonl-proj :     191508. kBytes
   fftplans  :      18617. kBytes
   grid      :      84475. kBytes
   one-center:        839. kBytes
   wavefun   :      33568. kBytes
 
  
  
 General timing and accounting informations for this job:
 ========================================================
  
                  Total CPU time used (sec):     5507.892
                            User time (sec):     5496.037
                          System time (sec):       11.855
                         Elapsed time (sec):     5520.261
  
                   Maximum memory used (kb):      795200.
                   Average memory used (kb):           0.
  
                          Minor page faults:       356292
                          Major page faults:            0
                 Voluntary context switches:          789
