 vasp.6.1.1 19Jun20 (build Dec 21 2021 08:45:49) complex                        
  
 executed on             LinuxIFC date 2023.10.08  15:49:35
 running on   40 total cores
 distrk:  each k-point on   40 cores,    1 groups
 distr:  one band on NCORE=   1 cores,   40 groups


--------------------------------------------------------------------------------------------------------


 INCAR:
 POTCAR:   PAW_PBE Te 08Apr2002                   
 POTCAR:   PAW_PBE Mo 08Apr2002                   
 -----------------------------------------------------------------------------
|                                                                             |
|           W    W    AA    RRRRR   N    N  II  N    N   GGGG   !!!           |
|           W    W   A  A   R    R  NN   N  II  NN   N  G    G  !!!           |
|           W    W  A    A  R    R  N N  N  II  N N  N  G       !!!           |
|           W WW W  AAAAAA  RRRRR   N  N N  II  N  N N  G  GGG   !            |
|           WW  WW  A    A  R   R   N   NN  II  N   NN  G    G                |
|           W    W  A    A  R    R  N    N  II  N    N   GGGG   !!!           |
|                                                                             |
|     For optimal performance we recommend to set                             |
|       NCORE = 4 - approx SQRT(number of cores).                             |
|     NCORE specifies how many cores store one orbital (NPAR=cpu/NCORE).      |
|     This setting can greatly improve the performance of VASP for DFT.       |
|     The default, NCORE=1 might be grossly inefficient on modern             |
|     multi-core architectures or massively parallel machines. Do your        |
|     own testing!!!!                                                         |
|     Unfortunately you need to use the default for GW and RPA                |
|     calculations (for HF NCORE is supported but not extensively tested      |
|     yet).                                                                   |
|                                                                             |
 -----------------------------------------------------------------------------

 POTCAR:   PAW_PBE Te 08Apr2002                   
   VRHFIN =Te: s2p4                                                                                 
   LEXCH  = PE                                                                                      
   EATOM  =   223.2721 eV,   16.4100 Ry                                                             
                                                                                                    
   TITEL  = PAW_PBE Te 08Apr2002                                                                    
   LULTRA =        F    use ultrasoft PP ?                                                          
   IUNSCR =        1    unscreen: 0-lin 1-nonlin 2-no                                               
   RPACOR =    2.200    partial core radius                                                         
   POMASS =  127.600; ZVAL   =    6.000    mass and valenz                                          
   RCORE  =    2.300    outmost cutoff radius                                                       
   RWIGS  =    2.900; RWIGS  =    1.535    wigner-seitz radius (au A)                               
   ENMAX  =  174.982; ENMIN  =  131.236 eV                                                          
   ICORE  =        3    local potential                                                             
   LCOR   =        T    correct aug charges                                                         
   LPAW   =        T    paw PP                                                                      
   EAUG   =  368.792                                                                                
   DEXC   =    -.169                                                                                
   RMAX   =    3.486    core radius for proj-oper                                                   
   RAUG   =    1.300    factor for augmentation sphere                                              
   RDEP   =    2.397    radius for radial grids                                                     
   QCUT   =   -3.586; QGAM   =    7.172    optimization parameters                                  
                                                                                                    
   Description                                                                                      
     l     E      TYP  RCUT    TYP  RCUT                                                            
     0   .000     23  2.300                                                                         
     0   .000     23  2.300                                                                         
     1   .000     23  2.300                                                                         
     1   .000     23  2.300                                                                         
     2   .000     23  2.300                                                                         
     3  -.100     23  2.300                                                                         
  local pseudopotential read in
  partial core-charges read in
  atomic valenz-charges read in
  non local Contribution for L=           0  read in
    real space projection operators read in
  non local Contribution for L=           0  read in
    real space projection operators read in
  non local Contribution for L=           1  read in
    real space projection operators read in
  non local Contribution for L=           1  read in
    real space projection operators read in
  non local Contribution for L=           2  read in
    real space projection operators read in
    PAW grid and wavefunctions read in
 
   number of l-projection  operators is LMAX  =           5
   number of lm-projection operators is LMMAX =          13
 
 POTCAR:   PAW_PBE Mo 08Apr2002                   
   VRHFIN =Mo: 4p5s4d                                                                               
   LEXCH  = PE                                                                                      
   EATOM  =   217.5180 eV,   15.9871 Ry                                                             
                                                                                                    
   TITEL  = PAW_PBE Mo 08Apr2002                                                                    
   LULTRA =        F    use ultrasoft PP ?                                                          
   IUNSCR =        1    unscreen: 0-lin 1-nonlin 2-no                                               
   RPACOR =    2.200    partial core radius                                                         
   POMASS =   95.940; ZVAL   =    6.000    mass and valenz                                          
   RCORE  =    2.750    outmost cutoff radius                                                       
   RWIGS  =    2.750; RWIGS  =    1.455    wigner-seitz radius (au A)                               
   ENMAX  =  224.584; ENMIN  =  168.438 eV                                                          
   RCLOC  =    2.111    cutoff for local pot                                                        
   LCOR   =        T    correct aug charges                                                         
   LPAW   =        T    paw PP                                                                      
   EAUG   =  345.278                                                                                
   DEXC   =    -.088                                                                                
   RMAX   =    3.077    core radius for proj-oper                                                   
   RAUG   =    1.300    factor for augmentation sphere                                              
   RDEP   =    2.815    radius for radial grids                                                     
   QCUT   =   -4.063; QGAM   =    8.126    optimization parameters                                  
                                                                                                    
   Description                                                                                      
     l     E      TYP  RCUT    TYP  RCUT                                                            
     2   .000     23  2.500                                                                         
     2   .000     23  2.500                                                                         
     0   .000     23  2.600                                                                         
     0  1.000     23  2.600                                                                         
     1   .400     23  2.750                                                                         
     1  2.000     23  2.750                                                                         
     3   .000      7   .000                                                                         
  local pseudopotential read in
  partial core-charges read in
  atomic valenz-charges read in
  non local Contribution for L=           2  read in
    real space projection operators read in
  non local Contribution for L=           2  read in
    real space projection operators read in
  non local Contribution for L=           0  read in
    real space projection operators read in
  non local Contribution for L=           0  read in
    real space projection operators read in
  non local Contribution for L=           1  read in
    real space projection operators read in
  non local Contribution for L=           1  read in
    real space projection operators read in
    PAW grid and wavefunctions read in
 
   number of l-projection  operators is LMAX  =           6
   number of lm-projection operators is LMMAX =          18
 
 -----------------------------------------------------------------------------
|                                                                             |
|               ----> ADVICE to this user running VASP <----                  |
|                                                                             |
|     You have a (more or less) 'large supercell' and for larger cells it     |
|     might be more efficient to use real-space projection operators.         |
|     Therefore, try LREAL= Auto in the INCAR file.                           |
|     Mind: If you want to do very accurate calculations, keep the            |
|     reciprocal projection scheme (i.e. LREAL=.FALSE.).                      |
|                                                                             |
 -----------------------------------------------------------------------------

 PAW_PBE Te 08Apr2002                   :
 energy of atom  1       EATOM= -223.2721
 kinetic energy error for atom=    0.0006 (will be added to EATOM!!)
 PAW_PBE Mo 08Apr2002                   :
 energy of atom  2       EATOM= -217.5180
 kinetic energy error for atom=    0.0009 (will be added to EATOM!!)
 
 
 POSCAR: Te Mo
  positions in cartesian coordinates
  No initial velocities read in
 exchange correlation table for  LEXCH =        8
   RHO(1)=    0.500       N(1)  =     2000
   RHO(2)=  100.500       N(2)  =     4000
 


--------------------------------------------------------------------------------------------------------


 ion  position               nearest neighbor table
   1  0.110  0.221  0.316-  41 2.71  38 2.73  37 2.75   9 3.50   5 3.53   7 3.53   4 3.54   3 3.56
                             2 3.56  19 3.61
   2  0.111  0.555  0.316-  42 2.71  39 2.73  38 2.76   7 3.51   6 3.52   8 3.54   5 3.55   3 3.55
                             1 3.56  20 3.62
   3  0.111  0.888  0.316-  40 2.70  37 2.72  39 2.75   8 3.51   4 3.52   9 3.54   6 3.55   2 3.55
                             1 3.56  21 3.62
   4  0.444  0.222  0.316-  44 2.70  41 2.72  40 2.76   8 3.52   3 3.52   7 3.54   1 3.54   5 3.56
                             6 3.56  22 3.61
   5  0.445  0.556  0.316-  45 2.70  42 2.73  41 2.77   9 3.52   1 3.53   8 3.53   2 3.55   4 3.56
                             6 3.56  23 3.62
   6  0.445  0.889  0.316-  43 2.69  40 2.73  42 2.76   7 3.52   2 3.52   9 3.54   3 3.55   4 3.56
                             5 3.56  24 3.61
   7  0.778  0.223  0.316-  38 2.70  44 2.73  43 2.77   2 3.51   6 3.52   1 3.53   4 3.54   9 3.56
                             8 3.56  25 3.63
   8  0.778  0.556  0.316-  39 2.70  45 2.72  44 2.76   3 3.51   4 3.52   5 3.53   2 3.54   9 3.56
                             7 3.56  26 3.62
   9  0.778  0.890  0.316-  37 2.69  43 2.72  45 2.76   1 3.50   5 3.52   6 3.54   3 3.54   7 3.56
                             8 3.56  27 3.61
  10  0.000  0.167  0.564-  46 2.70  52 2.72  54 2.76  18 3.51  14 3.51  16 3.54  13 3.55  11 3.55
                            12 3.56  28 3.62
  11  0.000  0.500  0.563-  47 2.70  53 2.72  52 2.76  15 3.52  16 3.52  14 3.54  17 3.54  10 3.55
                            12 3.56  29 3.61
  12  1.000  0.834  0.563-  48 2.70  54 2.72  53 2.76  13 3.51  17 3.52  18 3.53  15 3.55  10 3.56
                            11 3.56  30 3.62
  13  0.334  0.166  0.563-  49 2.69  46 2.72  48 2.75  17 3.51  12 3.51  16 3.54  10 3.55  15 3.55
                            14 3.56  31 3.61
  14  0.334  0.500  0.563-  50 2.70  47 2.73  46 2.76  10 3.51  18 3.52  17 3.54  11 3.54  13 3.56
                            15 3.56  32 3.62
  15  0.334  0.834  0.563-  51 2.70  48 2.72  47 2.76  16 3.51  11 3.52  18 3.54  12 3.55  13 3.55
                            14 3.56  33 3.61
  16  0.667  0.167  0.563-  52 2.69  49 2.72  51 2.76  15 3.51  11 3.52  13 3.54  10 3.54  17 3.55
                            18 3.56  34 3.62
  17  0.666  0.499  0.563-  53 2.70  50 2.73  49 2.76  13 3.51  12 3.52  14 3.54  11 3.54  16 3.55
                            18 3.56  35 3.61
  18  0.667  0.833  0.563-  54 2.70  51 2.73  50 2.77  10 3.51  14 3.52  12 3.53  15 3.54  16 3.56
                            17 3.56  36 3.62
  19  0.111  0.222  0.437-  37 2.70  41 2.74  38 2.75  27 3.52  23 3.52  22 3.54  25 3.54  21 3.55
                            20 3.56   1 3.61
  20  0.111  0.556  0.437-  38 2.70  42 2.74  39 2.75  24 3.51  25 3.52  26 3.54  23 3.55  19 3.56
                            21 3.56   2 3.62
  21  0.111  0.889  0.437-  39 2.70  40 2.74  37 2.75  22 3.52  26 3.52  27 3.53  24 3.54  19 3.55
                            20 3.56   3 3.62
  22  0.444  0.222  0.436-  40 2.69  44 2.74  41 2.74  26 3.51  21 3.52  19 3.54  25 3.54  23 3.55
                            24 3.56   4 3.61
  23  0.445  0.556  0.437-  41 2.70  45 2.74  42 2.75  27 3.51  19 3.52  26 3.53  20 3.55  22 3.55
                            24 3.56   5 3.62
  24  0.444  0.889  0.437-  42 2.69  43 2.74  40 2.75  20 3.51  25 3.52  21 3.54  27 3.55  22 3.56
                            23 3.56   6 3.61
  25  0.778  0.222  0.437-  43 2.70  38 2.74  44 2.76  24 3.52  20 3.52  22 3.54  19 3.54  26 3.56
                            27 3.56   7 3.63
  26  0.777  0.555  0.437-  44 2.70  39 2.74  45 2.76  22 3.51  21 3.52  23 3.53  20 3.54  27 3.55
                            25 3.56   8 3.62
  27  0.778  0.889  0.437-  45 2.69  37 2.73  43 2.75  23 3.51  19 3.52  21 3.53  24 3.55  26 3.55
                            25 3.56   9 3.61
  28  1.000  0.167  0.684-  54 2.70  46 2.75  52 2.76  36 3.52  32 3.52  34 3.54  31 3.55  30 3.56
                            29 3.56  10 3.62
  29  1.000  0.500  0.684-  52 2.70  47 2.74  53 2.75  33 3.51  34 3.52  35 3.53  32 3.54  30 3.56
                            28 3.56  11 3.61
  30  1.000  0.833  0.684-  53 2.70  48 2.74  54 2.75  31 3.51  35 3.52  36 3.54  33 3.54  28 3.56
                            29 3.56  12 3.62
  31  0.333  0.166  0.684-  48 2.69  49 2.74  46 2.75  30 3.51  35 3.52  34 3.54  28 3.55  33 3.56
                            32 3.56  13 3.61
  32  0.333  0.500  0.684-  46 2.70  50 2.74  47 2.74  36 3.51  28 3.52  29 3.54  35 3.54  33 3.55
                            31 3.56  14 3.62
  33  0.333  0.833  0.684-  47 2.69  51 2.74  48 2.75  29 3.51  34 3.52  30 3.54  36 3.55  32 3.55
                            31 3.56  15 3.61
  34  0.666  0.166  0.684-  51 2.70  52 2.74  49 2.75  29 3.52  33 3.52  28 3.54  31 3.54  35 3.56
                            36 3.56  16 3.62
  35  0.667  0.500  0.684-  49 2.69  53 2.74  50 2.75  30 3.52  31 3.52  29 3.53  32 3.54  36 3.56
                            34 3.56  17 3.61
  36  0.667  0.833  0.684-  50 2.69  54 2.74  51 2.76  32 3.51  28 3.52  30 3.54  33 3.55  35 3.56
                            34 3.56  18 3.62
  37  1.000  1.000  0.376-   9 2.69  19 2.70   3 2.72  27 2.73   1 2.75  21 2.75
  38  1.000  0.333  0.376-  20 2.70   7 2.70   1 2.73  25 2.74  19 2.75   2 2.76
  39  1.000  0.667  0.376-  21 2.70   8 2.70   2 2.73  26 2.74  20 2.75   3 2.75
  40  0.333  0.000  0.376-  22 2.69   3 2.70   6 2.73  21 2.74  24 2.75   4 2.76
  41  0.334  0.333  0.376-  23 2.70   1 2.71   4 2.72  19 2.74  22 2.74   5 2.77
  42  0.334  0.667  0.376-  24 2.69   2 2.71   5 2.73  20 2.74  23 2.75   6 2.76
  43  0.667  1.000  0.376-   6 2.69  25 2.70   9 2.72  24 2.74  27 2.75   7 2.77
  44  0.667  0.333  0.376-  26 2.70   4 2.70   7 2.73  22 2.74  25 2.76   8 2.76
  45  0.667  0.667  0.376-  27 2.69   5 2.70   8 2.72  23 2.74  26 2.76   9 2.76
  46  0.223  0.278  0.624-  32 2.70  10 2.70  13 2.72  28 2.75  31 2.75  14 2.76
  47  0.223  0.611  0.624-  33 2.69  11 2.70  14 2.73  29 2.74  32 2.74  15 2.76
  48  0.222  0.944  0.624-  31 2.69  12 2.70  15 2.72  30 2.74  33 2.75  13 2.75
  49  0.555  0.277  0.624-  35 2.69  13 2.69  16 2.72  31 2.74  34 2.75  17 2.76
  50  0.555  0.611  0.624-  36 2.69  14 2.70  17 2.73  32 2.74  35 2.75  18 2.77
  51  0.556  0.944  0.624-  15 2.70  34 2.70  18 2.73  33 2.74  36 2.76  16 2.76
  52  0.888  0.278  0.624-  16 2.69  29 2.70  10 2.72  34 2.74  11 2.76  28 2.76
  53  0.889  0.612  0.624-  30 2.70  17 2.70  11 2.72  35 2.74  29 2.75  12 2.76
  54  0.889  0.944  0.624-  18 2.70  28 2.70  12 2.72  36 2.74  30 2.75  10 2.76
 

IMPORTANT INFORMATION: All symmetrisations will be switched off!
NOSYMM: (Re-)initialisation of all symmetry stuff for point group C_1.


----------------------------------------------------------------------------------------

                                     Primitive cell                                     

  volume of cell :    2918.2289

  direct lattice vectors                    reciprocal lattice vectors
    10.620133394  0.000000000  0.000000000     0.094160776  0.055693345  0.001540894
    -5.433410859  9.186271447  0.000000000     0.000000000  0.108858094  0.002527683
    -0.078686163 -0.694563567 29.912320622     0.000000000  0.000000000  0.033431040

  length of vectors
    10.620133394 10.672841077 29.920486878     0.109409208  0.108887436  0.033431040

  position of ions in fractional coordinates (direct lattice)
     0.110173748  0.221268044  0.315801087
     0.110857017  0.555257610  0.315628249
     0.110821303  0.888272528  0.315891467
     0.444342865  0.222162226  0.315829711
     0.444904200  0.555580376  0.315630784
     0.445067151  0.889143335  0.315891797
     0.778172589  0.222749900  0.315630151
     0.777731924  0.555970422  0.315837226
     0.778309889  0.889546465  0.315771020
     0.000016307  0.167003578  0.563585106
     0.000292231  0.500177449  0.563387728
     0.999851049  0.833622321  0.563230755
     0.333540163  0.166210589  0.563495586
     0.333581303  0.499782326  0.563225755
     0.333721377  0.833595337  0.563379595
     0.666615952  0.166638627  0.563266629
     0.666363674  0.499332734  0.563314884
     0.667196326  0.833459640  0.563126590
     0.111349253  0.222171367  0.436582121
     0.111151886  0.555577032  0.436706043
     0.110702816  0.888950193  0.436719133
     0.444400810  0.222308713  0.436428659
     0.445200323  0.555598226  0.436691800
     0.444248475  0.888814004  0.436682798
     0.777709945  0.221973590  0.436786757
     0.777388717  0.555156081  0.436844251
     0.778223604  0.888617490  0.436534728
     0.999685015  0.166560700  0.684483637
     0.999944851  0.500068565  0.684120151
     0.999934877  0.833375148  0.684197365
     0.333357405  0.166151025  0.684171120
     0.333401637  0.500103167  0.684180680
     0.332595479  0.832534791  0.684152719
     0.666499230  0.166158706  0.684375708
     0.666899981  0.499578384  0.683994357
     0.666553677  0.832562561  0.684243411
     0.999726024  0.999885666  0.376068188
     0.999554392  0.333088552  0.376257165
     0.999983308  0.666678830  0.376249520
     0.333286727  0.000413205  0.376360389
     0.333526833  0.332725893  0.376295848
     0.333607582  0.666797121  0.376278091
     0.666663382  0.999994154  0.376251195
     0.666769876  0.333496508  0.376173443
     0.666936313  0.667263227  0.376164537
     0.222811226  0.278044549  0.623684716
     0.222602913  0.611090082  0.623914937
     0.222222110  0.944443757  0.623754848
     0.555457816  0.277369198  0.623735957
     0.555443292  0.610885938  0.623798608
     0.555529896  0.944378626  0.623737760
     0.888109590  0.277557491  0.623541044
     0.889066114  0.611503724  0.623650650
     0.889198487  0.944186336  0.623665407

  ion indices of the primitive-cell ions
   primitive index   ion index
                 1           1
                 2           2
                 3           3
                 4           4
                 5           5
                 6           6
                 7           7
                 8           8
                 9           9
                10          10
                11          11
                12          12
                13          13
                14          14
                15          15
                16          16
                17          17
                18          18
                19          19
                20          20
                21          21
                22          22
                23          23
                24          24
                25          25
                26          26
                27          27
                28          28
                29          29
                30          30
                31          31
                32          32
                33          33
                34          34
                35          35
                36          36
                37          37
                38          38
                39          39
                40          40
                41          41
                42          42
                43          43
                44          44
                45          45
                46          46
                47          47
                48          48
                49          49
                50          50
                51          51
                52          52
                53          53
                54          54

----------------------------------------------------------------------------------------

 
 

Automatic generation of k-mesh.
 generate k-points for:    3    3    1
Space group operators:
 irot       det(A)        alpha          n_x          n_y          n_z        tau_x        tau_y        tau_z
    1     1.000000     0.000000     1.000000     0.000000     0.000000     0.000000     0.000000     0.000000
 
 Subroutine IBZKPT returns following result:
 ===========================================
 
 Found      5 irreducible k-points:
 
 Following reciprocal coordinates:
            Coordinates               Weight
  0.000000  0.000000  0.000000      1.000000
  0.333333  0.000000 -0.000000      2.000000
  0.000000  0.333333  0.000000      2.000000
  0.333333  0.333333  0.000000      2.000000
 -0.333333  0.333333 -0.000000      2.000000
 
 Following cartesian coordinates:
            Coordinates               Weight
  0.000000  0.000000  0.000000      1.000000
  0.031387  0.018564  0.000514      2.000000
  0.000000  0.036286  0.000843      2.000000
  0.031387  0.054850  0.001356      2.000000
 -0.031387  0.017722  0.000329      2.000000
 


--------------------------------------------------------------------------------------------------------




 Dimension of arrays:
   k-points           NKPTS =      5   k-points in BZ     NKDIM =      5   number of bands    NBANDS=    200
   number of dos      NEDOS =    301   number of ions     NIONS =     54
   non local maximal  LDIM  =      6   non local SUM 2l+1 LMDIM =     18
   total plane-waves  NPLWV = ******
   max r-space proj   IRMAX =      1   max aug-charges    IRDMAX=  37453
   dimension x,y,z NGX =    84 NGY =   84 NGZ =  240
   dimension x,y,z NGXF=   168 NGYF=  168 NGZF=  480
   support grid    NGXF=   168 NGYF=  168 NGZF=  480
   ions per type =              36  18
   NGX,Y,Z   is equivalent  to a cutoff of  13.15, 13.08, 13.34 a.u.
   NGXF,Y,Z  is equivalent  to a cutoff of  26.30, 26.17, 26.67 a.u.

 SYSTEM =  dpgen_md                                
 POSCAR =  Te Mo                                   

 Startparameter for this run:
   NWRITE =      2    write-flag & timer
   PREC   = a         normal or accurate (medium, high low for compatibility)
   ISTART =      0    job   : 0-new  1-cont  2-samecut
   ICHARG =      2    charge: 1-file 2-atom 10-const
   ISPIN  =      1    spin polarized calculation?
   LNONCOLLINEAR =      F non collinear calculations
   LSORBIT =      F    spin-orbit coupling
   INIWAV =      1    electr: 0-lowe 1-rand  2-diag
   LASPH  =      F    aspherical Exc in radial PAW
   METAGGA=      F    non-selfconsistent MetaGGA calc.

 Electronic Relaxation 1
   ENCUT  =  550.0 eV  40.42 Ry    6.36 a.u.  20.31 20.41 57.21*2*pi/ulx,y,z
   ENINI  =  550.0     initial cutoff
   ENAUG  =  368.8 eV  augmentation charge cutoff
   NELM   =    100;   NELMIN=  6; NELMDL= -5     # of ELM steps 
   EDIFF  = 0.1E-05   stopping-criterion for ELM
   LREAL  =      F    real-space projection
   NLSPLINE    = F    spline interpolate recip. space projectors
   LCOMPAT=      F    compatible to vasp.4.4
   GGA_COMPAT  = T    GGA compatible to vasp.4.4-vasp.4.6
   LMAXPAW     = -100 max onsite density
   LMAXMIX     =    2 max onsite mixed and CHGCAR
   VOSKOWN=      0    Vosko Wilk Nusair interpolation
   ROPT   =    0.00000   0.00000
 Ionic relaxation
   EDIFFG = 0.1E-04   stopping-criterion for IOM
   NSW    =     10    number of steps for IOM
   NBLOCK =      1;   KBLOCK =      1    inner block; outer block 
   IBRION =      0    ionic relax: 0-MD 1-quasi-New 2-CG
   NFREE  =      0    steps in history (QN), initial steepest desc. (CG)
   ISIF   =      2    stress and relaxation
   IWAVPR =     11    prediction:  0-non 1-charg 2-wave 3-comb
   ISYM   =      0    0-nonsym 1-usesym 2-fastsym
   LCORR  =      T    Harris-Foulkes like correction to forces

   POTIM  = 2.0000    time-step for ionic-motion
   TEIN   =  100.0    initial temperature
   TEBEG  =  100.0;   TEEND  = 100.0 temperature during run
   SMASS  =   0.04    Nose mass-parameter (am)
   estimated Nose-frequenzy (Omega)   =  0.79E+14 period in steps = 0.40E+02 mass=   0.327E-28a.u.
   SCALEE = 1.0000    scale energy and forces
   NPACO  =    256;   APACO  = 16.0  distance and # of slots for P.C.
   PSTRESS=    0.0 pullay stress

  Mass of Ions in am
   POMASS = 127.60 95.94
  Ionic Valenz
   ZVAL   =   6.00  6.00
  Atomic Wigner-Seitz radii
   RWIGS  =  -1.00 -1.00
  virtual crystal weights 
   VCA    =   1.00  1.00
   NELECT =     324.0000    total number of electrons
   NUPDOWN=      -1.0000    fix difference up-down

 DOS related values:
   EMIN   =  10.00;   EMAX   =-10.00  energy-range for DOS
   EFERMI =   0.00
   ISMEAR =     0;   SIGMA  =   0.10  broadening in eV -4-tet -1-fermi 0-gaus

 Electronic relaxation 2 (details)
   IALGO  =     68    algorithm
   LDIAG  =      T    sub-space diagonalisation (order eigenvalues)
   LSUBROT=      F    optimize rotation matrix (better conditioning)
   TURBO    =      0    0=normal 1=particle mesh
   IRESTART =      0    0=no restart 2=restart with 2 vectors
   NREBOOT  =      0    no. of reboots
   NMIN     =      0    reboot dimension
   EREF     =   0.00    reference energy to select bands
   IMIX   =      4    mixing-type and parameters
     AMIX     =   0.40;   BMIX     =  1.00
     AMIX_MAG =   1.60;   BMIX_MAG =  1.00
     AMIN     =   0.10
     WC   =   100.;   INIMIX=   1;  MIXPRE=   1;  MAXMIX= -45

 Intra band minimization:
   WEIMIN = 0.0010     energy-eigenvalue tresh-hold
   EBREAK =  0.13E-08  absolut break condition
   DEPER  =   0.30     relativ break condition  

   TIME   =   0.40     timestep for ELM

  volume/ion in A,a.u.               =      54.04       364.69
  Fermi-wavevector in a.u.,A,eV,Ry     =   0.786834  1.486902  8.423483  0.619108
  Thomas-Fermi vector in A             =   1.891453
 
 Write flags
   LWAVE        =      F    write WAVECAR
   LDOWNSAMPLE  =      F    k-point downsampling of WAVECAR
   LCHARG       =      F    write CHGCAR
   LVTOT        =      F    write LOCPOT, total local potential
   LVHAR        =      F    write LOCPOT, Hartree potential only
   LELF         =      F    write electronic localiz. function (ELF)
   LORBIT       =      0    0 simple, 1 ext, 2 COOP (PROOUT), +10 PAW based schemes


 Dipole corrections
   LMONO  =      F    monopole corrections only (constant potential shift)
   LDIPOL =      F    correct potential (dipole corrections)
   IDIPOL =      0    1-x, 2-y, 3-z, 4-all directions 
   EPSILON=  1.0000000 bulk dielectric constant

 Exchange correlation treatment:
   GGA     =    --    GGA type
   LEXCH   =     8    internal setting for exchange type
   VOSKOWN=      0    Vosko Wilk Nusair interpolation
   LHFCALC =     F    Hartree Fock is set to
   LHFONE  =     F    Hartree Fock one center treatment
   AEXX    =    0.0000 exact exchange contribution

 Linear response parameters
   LEPSILON=     F    determine dielectric tensor
   LRPA    =     F    only Hartree local field effects (RPA)
   LNABLA  =     F    use nabla operator in PAW spheres
   LVEL    =     F    velocity operator in full k-point grid
   LINTERFAST=   F  fast interpolation
   KINTER  =     0    interpolate to denser k-point grid
   CSHIFT  =0.1000    complex shift for real part using Kramers Kronig
   OMEGAMAX=  -1.0    maximum frequency
   DEG_THRESHOLD= 0.2000000E-02 threshold for treating states as degnerate
   RTIME   =   -0.100 relaxation time in fs
  (WPLASMAI=    0.000 imaginary part of plasma frequency in eV, 0.658/RTIME)
   DFIELD  = 0.0000000 0.0000000 0.0000000 field for delta impulse in time
 
 Orbital magnetization related:
   ORBITALMAG=     F  switch on orbital magnetization
   LCHIMAG   =     F  perturbation theory with respect to B field
   DQ        =  0.001000  dq finite difference perturbation B field
   LLRAUG    =     F  two centre corrections for induced B field



--------------------------------------------------------------------------------------------------------


 molecular dynamics for ions
   using nose mass (canonical ensemble)
 charge density and potential will be updated during run
 non-spin polarized calculation
 RMM-DIIS sequential band-by-band and
  variant of blocked Davidson during initial phase
 perform sub-space diagonalisation
    before iterative eigenvector-optimisation
 modified Broyden-mixing scheme, WC =      100.0
 initial mixing is a Kerker type mixing with AMIX =  0.4000 and BMIX =      1.0000
 Hartree-type preconditioning will be used
 using additional bands           38
 reciprocal scheme for non local part
 use partial core corrections
 calculate Harris-corrections to forces 
   (improved forces if not selfconsistent)
 use gradient corrections 
 use of overlap-Matrix (Vanderbilt PP)
 Gauss-broadening in eV      SIGMA  =   0.10


--------------------------------------------------------------------------------------------------------


  energy-cutoff  :      550.00
  volume of cell :     2918.23
      direct lattice vectors                 reciprocal lattice vectors
    10.620133394  0.000000000  0.000000000     0.094160776  0.055693345  0.001540894
    -5.433410859  9.186271447  0.000000000     0.000000000  0.108858094  0.002527683
    -0.078686163 -0.694563567 29.912320622     0.000000000  0.000000000  0.033431040

  length of vectors
    10.620133394 10.672841077 29.920486878     0.109409208  0.108887436  0.033431040


 
 k-points in units of 2pi/SCALE and weight: read from INCAR                         
   0.00000000  0.00000000  0.00000000       0.111
   0.03138693  0.01856445  0.00051363       0.222
   0.00000000  0.03628603  0.00084256       0.222
   0.03138693  0.05485048  0.00135619       0.222
  -0.03138693  0.01772158  0.00032893       0.222
 
 k-points in reciprocal lattice and weights: read from INCAR                         
   0.00000000  0.00000000  0.00000000       0.111
   0.33333333  0.00000000 -0.00000000       0.222
   0.00000000  0.33333333  0.00000000       0.222
   0.33333333  0.33333333  0.00000000       0.222
  -0.33333333  0.33333333 -0.00000000       0.222
 
 position of ions in fractional coordinates (direct lattice) 
   0.11017375  0.22126804  0.31580109
   0.11085702  0.55525761  0.31562825
   0.11082130  0.88827253  0.31589147
   0.44434286  0.22216223  0.31582971
   0.44490420  0.55558038  0.31563078
   0.44506715  0.88914334  0.31589180
   0.77817259  0.22274990  0.31563015
   0.77773192  0.55597042  0.31583723
   0.77830989  0.88954647  0.31577102
   0.00001631  0.16700358  0.56358511
   0.00029223  0.50017745  0.56338773
   0.99985105  0.83362232  0.56323075
   0.33354016  0.16621059  0.56349559
   0.33358130  0.49978233  0.56322575
   0.33372138  0.83359534  0.56337959
   0.66661595  0.16663863  0.56326663
   0.66636367  0.49933273  0.56331488
   0.66719633  0.83345964  0.56312659
   0.11134925  0.22217137  0.43658212
   0.11115189  0.55557703  0.43670604
   0.11070282  0.88895019  0.43671913
   0.44440081  0.22230871  0.43642866
   0.44520032  0.55559823  0.43669180
   0.44424848  0.88881400  0.43668280
   0.77770995  0.22197359  0.43678676
   0.77738872  0.55515608  0.43684425
   0.77822360  0.88861749  0.43653473
   0.99968502  0.16656070  0.68448364
   0.99994485  0.50006856  0.68412015
   0.99993488  0.83337515  0.68419737
   0.33335741  0.16615103  0.68417112
   0.33340164  0.50010317  0.68418068
   0.33259548  0.83253479  0.68415272
   0.66649923  0.16615871  0.68437571
   0.66689998  0.49957838  0.68399436
   0.66655368  0.83256256  0.68424341
   0.99972602  0.99988567  0.37606819
   0.99955439  0.33308855  0.37625716
   0.99998331  0.66667883  0.37624952
   0.33328673  0.00041321  0.37636039
   0.33352683  0.33272589  0.37629585
   0.33360758  0.66679712  0.37627809
   0.66666338  0.99999415  0.37625119
   0.66676988  0.33349651  0.37617344
   0.66693631  0.66726323  0.37616454
   0.22281123  0.27804455  0.62368472
   0.22260291  0.61109008  0.62391494
   0.22222211  0.94444376  0.62375485
   0.55545782  0.27736920  0.62373596
   0.55544329  0.61088594  0.62379861
   0.55552990  0.94437863  0.62373776
   0.88810959  0.27755749  0.62354104
   0.88906611  0.61150372  0.62365065
   0.88919849  0.94418634  0.62366541
 
 position of ions in cartesian coordinates  (Angst):
  -0.05702947  1.81328438  9.44634337
  -1.86446199  4.88152325  9.44117337
  -3.67426887  7.94050586  9.44904685
   3.48703041  1.82147870  9.44719959
   1.68140973  4.88448650  9.44124920
  -0.12926486  7.94850510  9.44905672
   7.02916924  1.82701585  9.44123026
   5.21394903  4.88792619  9.44742437
   3.40763661  7.95229225  9.44544398
  -0.95157222  1.14269452 16.85813840
  -2.75889687  4.20345723 16.85223435
   6.04482047  7.26668136 16.84753893
   2.59481130  1.13547208 16.85546065
   0.78283714  4.19994003 16.84738936
  -1.02943059  7.26633010 16.85199107
   6.12981292  1.13956319 16.84861200
   4.31946612  4.19574804 16.85005543
   2.51287505  7.26525928 16.84442310
  -0.05895737  1.73769245 13.05918437
  -1.87259314  4.80036131 13.06289117
  -3.68871672  7.86280858 13.06328274
   3.47736041  1.73906074 13.05459399
   1.67493178  4.80056590 13.06246513
  -0.14567449  7.86158274 13.06219587
   7.01894057  1.73573348 13.06530551
   5.20520720  4.79639835 13.06702530
   3.40226533  7.85988036 13.05776673
   9.65793610  1.05465441 20.47449402
   7.84863895  4.11860065 20.46362131
   6.03753534  7.18039177 20.46593096
   2.58369853  1.05110808 20.46514590
   0.76966833  4.11887647 20.46543188
  -1.04512857  7.17270303 20.46459549
   6.12165131  1.05103654 20.47126561
   4.31433125  4.11418509 20.45985851
   2.50139402  7.17289514 20.46730828
   5.15484273  8.92401788 11.24907220
   8.77598779  2.79850734 11.25472495
   6.96801050  5.86296349 11.25449629
   3.50769003 -0.25761040 11.25781264
   1.70465370  2.79514898 11.25588206
  -0.10963357  5.86403030 11.25535091
   1.61706919  8.92488737 11.25454637
   5.23956183  2.80231308 11.25222062
   3.42783840  5.86839095 11.25195423
   0.80647931  2.12100402 18.65585720
  -1.00532433  5.18029079 18.66274364
  -2.82060338  8.24267932 18.65795500
   4.34289590  2.11476447 18.65738994
   2.53060324  5.17849626 18.65926398
   0.71952499  8.24209288 18.65744385
   7.87469437  2.11662956 18.65155962
   6.07037707  5.18427418 18.65483821
   4.26418042  8.24037671 18.65527963
 


--------------------------------------------------------------------------------------------------------


 k-point   1 :   0.0000 0.0000 0.0000  plane waves:   85515
 k-point   2 :   0.3333 0.0000-0.0000  plane waves:   85488
 k-point   3 :   0.0000 0.3333 0.0000  plane waves:   85489
 k-point   4 :   0.3333 0.3333 0.0000  plane waves:   85477
 k-point   5 :  -0.3333 0.3333-0.0000  plane waves:   85410

 maximum and minimum number of plane-waves per node :     85515    85410

 maximum number of plane-waves:     85515
 maximum index in each direction: 
   IXMAX=   20   IYMAX=   20   IZMAX=   57
   IXMIN=  -20   IYMIN=  -20   IZMIN=  -57


 serial   3D FFT for wavefunctions
 parallel 3D FFT for charge:
    minimum data exchange during FFTs selected (reduces bandwidth)


 total amount of memory used by VASP MPI-rank0   372844. kBytes
=======================================================================

   base      :      30000. kBytes
   nonl-proj :     197038. kBytes
   fftplans  :      19943. kBytes
   grid      :      90496. kBytes
   one-center:        839. kBytes
   wavefun   :      34528. kBytes
 
     INWAV:  cpu time    0.0001: real time    0.0001
 Broyden mixing: mesh for mixing (old mesh)
   NGX = 41   NGY = 41   NGZ =115
  (NGX  =168   NGY  =168   NGZ  =480)
  gives a total of 193315 points

 initial charge density was supplied:
 charge density of overlapping atoms calculated
 number of electron     324.0000000 magnetization 
 keeping initial charge density in first step


--------------------------------------------------------------------------------------------------------


 Maximum index for augmentation-charges         2255 (set IRDMAX)


--------------------------------------------------------------------------------------------------------


 First call to EWALD:  gamma=   0.124
 Maximum number of real-space cells 4x 4x 2
 Maximum number of reciprocal cells 2x 2x 5

    FEWALD:  cpu time    0.0022: real time    0.0022


--------------------------------------- Iteration      1(   1)  ---------------------------------------


    POTLOK:  cpu time    0.3544: real time    0.3557
    SETDIJ:  cpu time    0.0126: real time    0.0127
     EDDAV:  cpu time   51.2204: real time   51.3057
       DOS:  cpu time    0.0010: real time    0.0010
    --------------------------------------------
      LOOP:  cpu time   51.5883: real time   51.6751

 eigenvalue-minimisations  :  2000
 total energy-change (2. order) : 0.2099601E+04  (-0.1151602E+05)
 number of electron     324.0000000 magnetization 
 augmentation part      324.0000000 magnetization 

 Free energy of the ion-electron system (eV)
  ---------------------------------------------------
  alpha Z        PSCENC =       245.92525280
  Ewald energy   TEWEN  =     58027.93402685
  -Hartree energ DENC   =    -69709.03008411
  -exchange      EXHF   =         0.00000000
  -V(xc)+E(xc)   XCENC  =     -2101.71901808
  PAW double counting   =      7476.04436201    -4809.59211051
  entropy T*S    EENTRO =        -0.11817921
  eigenvalues    EBANDS =      1017.07439396
  atomic energy  EATOM  =     11953.08265402
  Solvation  Ediel_sol  =         0.00000000
  ---------------------------------------------------
  free energy    TOTEN  =      2099.60129774 eV

  energy without entropy =     2099.71947695  energy(sigma->0) =     2099.66038734


--------------------------------------------------------------------------------------------------------




--------------------------------------- Iteration      1(   2)  ---------------------------------------


     EDDAV:  cpu time   71.0224: real time   71.1285
       DOS:  cpu time    0.0006: real time    0.0006
    --------------------------------------------
      LOOP:  cpu time   71.0230: real time   71.1291

 eigenvalue-minimisations  :  3000
 total energy-change (2. order) :-0.2196982E+04  (-0.2134739E+04)
 number of electron     324.0000000 magnetization 
 augmentation part      324.0000000 magnetization 

 Free energy of the ion-electron system (eV)
  ---------------------------------------------------
  alpha Z        PSCENC =       245.92525280
  Ewald energy   TEWEN  =     58027.93402685
  -Hartree energ DENC   =    -69709.03008411
  -exchange      EXHF   =         0.00000000
  -V(xc)+E(xc)   XCENC  =     -2101.71901808
  PAW double counting   =      7476.04436201    -4809.59211051
  entropy T*S    EENTRO =        -0.01470153
  eigenvalues    EBANDS =     -1180.01082292
  atomic energy  EATOM  =     11953.08265402
  Solvation  Ediel_sol  =         0.00000000
  ---------------------------------------------------
  free energy    TOTEN  =       -97.38044146 eV

  energy without entropy =      -97.36573994  energy(sigma->0) =      -97.37309070


--------------------------------------------------------------------------------------------------------




--------------------------------------- Iteration      1(   3)  ---------------------------------------


     EDDAV:  cpu time   61.4523: real time   61.5509
       DOS:  cpu time    0.0004: real time    0.0004
    --------------------------------------------
      LOOP:  cpu time   61.4527: real time   61.5512

 eigenvalue-minimisations  :  2520
 total energy-change (2. order) :-0.2277485E+03  (-0.2245287E+03)
 number of electron     324.0000000 magnetization 
 augmentation part      324.0000000 magnetization 

 Free energy of the ion-electron system (eV)
  ---------------------------------------------------
  alpha Z        PSCENC =       245.92525280
  Ewald energy   TEWEN  =     58027.93402685
  -Hartree energ DENC   =    -69709.03008411
  -exchange      EXHF   =         0.00000000
  -V(xc)+E(xc)   XCENC  =     -2101.71901808
  PAW double counting   =      7476.04436201    -4809.59211051
  entropy T*S    EENTRO =        -0.00000000
  eigenvalues    EBANDS =     -1407.77402827
  atomic energy  EATOM  =     11953.08265402
  Solvation  Ediel_sol  =         0.00000000
  ---------------------------------------------------
  free energy    TOTEN  =      -325.12894528 eV

  energy without entropy =     -325.12894528  energy(sigma->0) =     -325.12894528


--------------------------------------------------------------------------------------------------------




--------------------------------------- Iteration      1(   4)  ---------------------------------------


     EDDAV:  cpu time   73.2329: real time   73.3556
       DOS:  cpu time    0.0004: real time    0.0004
    --------------------------------------------
      LOOP:  cpu time   73.2332: real time   73.3560

 eigenvalue-minimisations  :  3120
 total energy-change (2. order) :-0.1121780E+02  (-0.1113568E+02)
 number of electron     324.0000000 magnetization 
 augmentation part      324.0000000 magnetization 

 Free energy of the ion-electron system (eV)
  ---------------------------------------------------
  alpha Z        PSCENC =       245.92525280
  Ewald energy   TEWEN  =     58027.93402685
  -Hartree energ DENC   =    -69709.03008411
  -exchange      EXHF   =         0.00000000
  -V(xc)+E(xc)   XCENC  =     -2101.71901808
  PAW double counting   =      7476.04436201    -4809.59211051
  entropy T*S    EENTRO =        -0.00000000
  eigenvalues    EBANDS =     -1418.99182718
  atomic energy  EATOM  =     11953.08265402
  Solvation  Ediel_sol  =         0.00000000
  ---------------------------------------------------
  free energy    TOTEN  =      -336.34674419 eV

  energy without entropy =     -336.34674419  energy(sigma->0) =     -336.34674419


--------------------------------------------------------------------------------------------------------




--------------------------------------- Iteration      1(   5)  ---------------------------------------


     EDDAV:  cpu time   67.7875: real time   67.8680
       DOS:  cpu time    0.0004: real time    0.0004
    CHARGE:  cpu time    1.2165: real time    1.2178
    MIXING:  cpu time    0.0083: real time    0.0086
    --------------------------------------------
      LOOP:  cpu time   69.0127: real time   69.0948

 eigenvalue-minimisations  :  2840
 total energy-change (2. order) :-0.3094966E+00  (-0.3088118E+00)
 number of electron     324.0000012 magnetization 
 augmentation part      -25.6708810 magnetization 

 Broyden mixing:
  rms(total) = 0.19279E+01    rms(broyden)= 0.19279E+01
  rms(prec ) = 0.20418E+01
  weight for this iteration     100.00

 Free energy of the ion-electron system (eV)
  ---------------------------------------------------
  alpha Z        PSCENC =       245.92525280
  Ewald energy   TEWEN  =     58027.93402685
  -Hartree energ DENC   =    -69709.03008411
  -exchange      EXHF   =         0.00000000
  -V(xc)+E(xc)   XCENC  =     -2101.71901808
  PAW double counting   =      7476.04436201    -4809.59211051
  entropy T*S    EENTRO =        -0.00000000
  eigenvalues    EBANDS =     -1419.30132376
  atomic energy  EATOM  =     11953.08265402
  Solvation  Ediel_sol  =         0.00000000
  ---------------------------------------------------
  free energy    TOTEN  =      -336.65624078 eV

  energy without entropy =     -336.65624078  energy(sigma->0) =     -336.65624078


--------------------------------------------------------------------------------------------------------




--------------------------------------- Iteration      1(   6)  ---------------------------------------


    POTLOK:  cpu time    0.3078: real time    0.3081
    SETDIJ:  cpu time    0.0120: real time    0.0120
    EDDIAG:  cpu time    2.6010: real time    2.6041
  RMM-DIIS:  cpu time   44.4713: real time   44.5194
    ORTHCH:  cpu time    0.2104: real time    0.2106
       DOS:  cpu time    0.0004: real time    0.0004
    CHARGE:  cpu time    1.2236: real time    1.2248
    MIXING:  cpu time    0.0074: real time    0.0074
    --------------------------------------------
      LOOP:  cpu time   48.8340: real time   48.8868

 eigenvalue-minimisations  :  2142
 total energy-change (2. order) : 0.8888889E+01  (-0.5805415E+01)
 number of electron     324.0000012 magnetization 
 augmentation part      -19.8654023 magnetization 

 Broyden mixing:
  rms(total) = 0.71439E+00    rms(broyden)= 0.71439E+00
  rms(prec ) = 0.83131E+00
  weight for this iteration     100.00

 eigenvalues of (default mixing * dielectric matrix)
  average eigenvalue GAMMA=   1.0255
  1.0255

 Free energy of the ion-electron system (eV)
  ---------------------------------------------------
  alpha Z        PSCENC =       245.92525280
  Ewald energy   TEWEN  =     58027.93402685
  -Hartree energ DENC   =    -69683.05369337
  -exchange      EXHF   =         0.00000000
  -V(xc)+E(xc)   XCENC  =     -2095.12518137
  PAW double counting   =      7671.79902320    -5016.68233859
  entropy T*S    EENTRO =        -0.00000000
  eigenvalues    EBANDS =     -1431.64709482
  atomic energy  EATOM  =     11953.08265402
  Solvation  Ediel_sol  =         0.00000000
  ---------------------------------------------------
  free energy    TOTEN  =      -327.76735128 eV

  energy without entropy =     -327.76735128  energy(sigma->0) =     -327.76735128


--------------------------------------------------------------------------------------------------------




--------------------------------------- Iteration      1(   7)  ---------------------------------------


    POTLOK:  cpu time    0.3073: real time    0.3076
    SETDIJ:  cpu time    0.0121: real time    0.0121
    EDDIAG:  cpu time    2.6011: real time    2.6049
  RMM-DIIS:  cpu time   41.6478: real time   41.7202
    ORTHCH:  cpu time    0.2093: real time    0.2095
       DOS:  cpu time    0.0004: real time    0.0004
    CHARGE:  cpu time    1.2200: real time    1.2217
    MIXING:  cpu time    0.0073: real time    0.0073
    --------------------------------------------
      LOOP:  cpu time   46.0053: real time   46.0838

 eigenvalue-minimisations  :  2019
 total energy-change (2. order) : 0.3339385E+01  (-0.1072680E+01)
 number of electron     324.0000012 magnetization 
 augmentation part      -21.7344011 magnetization 

 Broyden mixing:
  rms(total) = 0.47350E+00    rms(broyden)= 0.47350E+00
  rms(prec ) = 0.50294E+00
  weight for this iteration     100.00

 eigenvalues of (default mixing * dielectric matrix)
  average eigenvalue GAMMA=   1.4831
  0.7334  2.2328

 Free energy of the ion-electron system (eV)
  ---------------------------------------------------
  alpha Z        PSCENC =       245.92525280
  Ewald energy   TEWEN  =     58027.93402685
  -Hartree energ DENC   =    -69769.07433430
  -exchange      EXHF   =         0.00000000
  -V(xc)+E(xc)   XCENC  =     -2093.92303798
  PAW double counting   =      7956.91106534    -5306.62611962
  entropy T*S    EENTRO =        -0.00000000
  eigenvalues    EBANDS =     -1338.65747383
  atomic energy  EATOM  =     11953.08265402
  Solvation  Ediel_sol  =         0.00000000
  ---------------------------------------------------
  free energy    TOTEN  =      -324.42796672 eV

  energy without entropy =     -324.42796672  energy(sigma->0) =     -324.42796672


--------------------------------------------------------------------------------------------------------




--------------------------------------- Iteration      1(   8)  ---------------------------------------


    POTLOK:  cpu time    0.3069: real time    0.3072
    SETDIJ:  cpu time    0.0121: real time    0.0121
    EDDIAG:  cpu time    2.5999: real time    2.6029
  RMM-DIIS:  cpu time   41.5302: real time   41.6000
    ORTHCH:  cpu time    0.2102: real time    0.2104
       DOS:  cpu time    0.0004: real time    0.0004
    CHARGE:  cpu time    1.2202: real time    1.2213
    MIXING:  cpu time    0.0076: real time    0.0076
    --------------------------------------------
      LOOP:  cpu time   45.8874: real time   45.9619

 eigenvalue-minimisations  :  2022
 total energy-change (2. order) : 0.4548051E+00  (-0.8168702E+00)
 number of electron     324.0000012 magnetization 
 augmentation part      -21.6421996 magnetization 

 Broyden mixing:
  rms(total) = 0.14574E+00    rms(broyden)= 0.14574E+00
  rms(prec ) = 0.17006E+00
  weight for this iteration     100.00

 eigenvalues of (default mixing * dielectric matrix)
  average eigenvalue GAMMA=   1.2559
  2.1546  0.8066  0.8066

 Free energy of the ion-electron system (eV)
  ---------------------------------------------------
  alpha Z        PSCENC =       245.92525280
  Ewald energy   TEWEN  =     58027.93402685
  -Hartree energ DENC   =    -69831.65063275
  -exchange      EXHF   =         0.00000000
  -V(xc)+E(xc)   XCENC  =     -2089.94894658
  PAW double counting   =      8274.52384571    -5630.73544266
  entropy T*S    EENTRO =        -0.00000000
  eigenvalues    EBANDS =     -1273.10391898
  atomic energy  EATOM  =     11953.08265402
  Solvation  Ediel_sol  =         0.00000000
  ---------------------------------------------------
  free energy    TOTEN  =      -323.97316158 eV

  energy without entropy =     -323.97316158  energy(sigma->0) =     -323.97316158


--------------------------------------------------------------------------------------------------------




--------------------------------------- Iteration      1(   9)  ---------------------------------------


    POTLOK:  cpu time    0.3079: real time    0.3083
    SETDIJ:  cpu time    0.0121: real time    0.0121
    EDDIAG:  cpu time    2.6380: real time    2.6433
  RMM-DIIS:  cpu time   46.2881: real time   46.3683
    ORTHCH:  cpu time    0.2109: real time    0.2122
       DOS:  cpu time    0.0004: real time    0.0004
    CHARGE:  cpu time    1.2185: real time    1.2197
    MIXING:  cpu time    0.0079: real time    0.0079
    --------------------------------------------
      LOOP:  cpu time   50.6838: real time   50.7722

 eigenvalue-minimisations  :  2207
 total energy-change (2. order) :-0.1428248E-02  (-0.1313432E+00)
 number of electron     324.0000012 magnetization 
 augmentation part      -21.2243280 magnetization 

 Broyden mixing:
  rms(total) = 0.96172E-01    rms(broyden)= 0.96171E-01
  rms(prec ) = 0.10740E+00
  weight for this iteration     100.00

 eigenvalues of (default mixing * dielectric matrix)
  average eigenvalue GAMMA=   1.1482
  2.0146  1.3722  0.7472  0.4589

 Free energy of the ion-electron system (eV)
  ---------------------------------------------------
  alpha Z        PSCENC =       245.92525280
  Ewald energy   TEWEN  =     58027.93402685
  -Hartree energ DENC   =    -69826.82381609
  -exchange      EXHF   =         0.00000000
  -V(xc)+E(xc)   XCENC  =     -2089.65352080
  PAW double counting   =      8266.12889083    -5622.37182921
  entropy T*S    EENTRO =        -0.00000000
  eigenvalues    EBANDS =     -1278.19624823
  atomic energy  EATOM  =     11953.08265402
  Solvation  Ediel_sol  =         0.00000000
  ---------------------------------------------------
  free energy    TOTEN  =      -323.97458982 eV

  energy without entropy =     -323.97458982  energy(sigma->0) =     -323.97458982


--------------------------------------------------------------------------------------------------------




--------------------------------------- Iteration      1(  10)  ---------------------------------------


    POTLOK:  cpu time    0.3100: real time    0.3113
    SETDIJ:  cpu time    0.0121: real time    0.0121
    EDDIAG:  cpu time    2.6151: real time    2.6212
  RMM-DIIS:  cpu time   48.8304: real time   48.9138
    ORTHCH:  cpu time    0.2098: real time    0.2100
       DOS:  cpu time    0.0004: real time    0.0004
    CHARGE:  cpu time    1.2201: real time    1.2213
    MIXING:  cpu time    0.0078: real time    0.0078
    --------------------------------------------
      LOOP:  cpu time   53.2057: real time   53.2979

 eigenvalue-minimisations  :  2328
 total energy-change (2. order) :-0.9269119E-02  (-0.4437082E-01)
 number of electron     324.0000012 magnetization 
 augmentation part      -20.9977182 magnetization 

 Broyden mixing:
  rms(total) = 0.74172E-01    rms(broyden)= 0.74172E-01
  rms(prec ) = 0.83345E-01
  weight for this iteration     100.00

 eigenvalues of (default mixing * dielectric matrix)
  average eigenvalue GAMMA=   1.2980
  2.4438  1.7703  0.9365  0.9365  0.4029

 Free energy of the ion-electron system (eV)
  ---------------------------------------------------
  alpha Z        PSCENC =       245.92525280
  Ewald energy   TEWEN  =     58027.93402685
  -Hartree energ DENC   =    -69827.96938883
  -exchange      EXHF   =         0.00000000
  -V(xc)+E(xc)   XCENC  =     -2089.43698768
  PAW double counting   =      8275.16112080    -5631.38115966
  entropy T*S    EENTRO =        -0.00000000
  eigenvalues    EBANDS =     -1277.29937724
  atomic energy  EATOM  =     11953.08265402
  Solvation  Ediel_sol  =         0.00000000
  ---------------------------------------------------
  free energy    TOTEN  =      -323.98385894 eV

  energy without entropy =     -323.98385894  energy(sigma->0) =     -323.98385894


--------------------------------------------------------------------------------------------------------




--------------------------------------- Iteration      1(  11)  ---------------------------------------


    POTLOK:  cpu time    0.3091: real time    0.3094
    SETDIJ:  cpu time    0.0119: real time    0.0119
    EDDIAG:  cpu time    2.6003: real time    2.6035
  RMM-DIIS:  cpu time   43.7137: real time   43.7658
    ORTHCH:  cpu time    0.2097: real time    0.2099
       DOS:  cpu time    0.0004: real time    0.0004
    CHARGE:  cpu time    1.2240: real time    1.2251
    MIXING:  cpu time    0.0069: real time    0.0085
    --------------------------------------------
      LOOP:  cpu time   48.0760: real time   48.1345

 eigenvalue-minimisations  :  2125
 total energy-change (2. order) : 0.1284804E-01  (-0.1970221E-01)
 number of electron     324.0000012 magnetization 
 augmentation part      -21.3201761 magnetization 

 Broyden mixing:
  rms(total) = 0.37084E-01    rms(broyden)= 0.37084E-01
  rms(prec ) = 0.42287E-01
  weight for this iteration     100.00

 eigenvalues of (default mixing * dielectric matrix)
  average eigenvalue GAMMA=   1.2328
  2.5601  1.6472  1.3330  0.7297  0.7297  0.3972

 Free energy of the ion-electron system (eV)
  ---------------------------------------------------
  alpha Z        PSCENC =       245.92525280
  Ewald energy   TEWEN  =     58027.93402685
  -Hartree energ DENC   =    -69847.61684117
  -exchange      EXHF   =         0.00000000
  -V(xc)+E(xc)   XCENC  =     -2089.11583363
  PAW double counting   =      8329.00516507    -5685.51305414
  entropy T*S    EENTRO =        -0.00000000
  eigenvalues    EBANDS =     -1257.67238070
  atomic energy  EATOM  =     11953.08265402
  Solvation  Ediel_sol  =         0.00000000
  ---------------------------------------------------
  free energy    TOTEN  =      -323.97101090 eV

  energy without entropy =     -323.97101090  energy(sigma->0) =     -323.97101090


--------------------------------------------------------------------------------------------------------




--------------------------------------- Iteration      1(  12)  ---------------------------------------


    POTLOK:  cpu time    0.3094: real time    0.3096
    SETDIJ:  cpu time    0.0125: real time    0.0125
    EDDIAG:  cpu time    2.6030: real time    2.6072
  RMM-DIIS:  cpu time   50.3434: real time   50.4248
    ORTHCH:  cpu time    0.2111: real time    0.2113
       DOS:  cpu time    0.0005: real time    0.0005
    CHARGE:  cpu time    1.2198: real time    1.2223
    MIXING:  cpu time    0.0079: real time    0.0079
    --------------------------------------------
      LOOP:  cpu time   54.7076: real time   54.7961

 eigenvalue-minimisations  :  2424
 total energy-change (2. order) : 0.9770651E-03  (-0.4130463E-02)
 number of electron     324.0000012 magnetization 
 augmentation part      -21.2877891 magnetization 

 Broyden mixing:
  rms(total) = 0.25829E-01    rms(broyden)= 0.25829E-01
  rms(prec ) = 0.29877E-01
  weight for this iteration     100.00

 eigenvalues of (default mixing * dielectric matrix)
  average eigenvalue GAMMA=   1.1917
  2.5316  1.7005  1.7005  0.8170  0.8170  0.4042  0.3708

 Free energy of the ion-electron system (eV)
  ---------------------------------------------------
  alpha Z        PSCENC =       245.92525280
  Ewald energy   TEWEN  =     58027.93402685
  -Hartree energ DENC   =    -69850.59811231
  -exchange      EXHF   =         0.00000000
  -V(xc)+E(xc)   XCENC  =     -2089.00871271
  PAW double counting   =      8330.20653840    -5686.72844990
  entropy T*S    EENTRO =        -0.00000000
  eigenvalues    EBANDS =     -1254.78323100
  atomic energy  EATOM  =     11953.08265402
  Solvation  Ediel_sol  =         0.00000000
  ---------------------------------------------------
  free energy    TOTEN  =      -323.97003384 eV

  energy without entropy =     -323.97003384  energy(sigma->0) =     -323.97003384


--------------------------------------------------------------------------------------------------------




--------------------------------------- Iteration      1(  13)  ---------------------------------------


    POTLOK:  cpu time    0.3088: real time    0.3091
    SETDIJ:  cpu time    0.0120: real time    0.0120
    EDDIAG:  cpu time    2.6040: real time    2.6069
  RMM-DIIS:  cpu time   50.2236: real time   50.3031
    ORTHCH:  cpu time    0.2081: real time    0.2083
       DOS:  cpu time    0.0004: real time    0.0004
    CHARGE:  cpu time    1.2176: real time    1.2186
    MIXING:  cpu time    0.0081: real time    0.0081
    --------------------------------------------
      LOOP:  cpu time   54.5826: real time   54.6666

 eigenvalue-minimisations  :  2416
 total energy-change (2. order) : 0.9923303E-03  (-0.2248087E-02)
 number of electron     324.0000012 magnetization 
 augmentation part      -21.1944314 magnetization 

 Broyden mixing:
  rms(total) = 0.97163E-02    rms(broyden)= 0.97162E-02
  rms(prec ) = 0.12802E-01
  weight for this iteration     100.00

 eigenvalues of (default mixing * dielectric matrix)
  average eigenvalue GAMMA=   1.3171
  2.6072  2.6072  1.7407  1.1766  0.8139  0.8139  0.4045  0.3725

 Free energy of the ion-electron system (eV)
  ---------------------------------------------------
  alpha Z        PSCENC =       245.92525280
  Ewald energy   TEWEN  =     58027.93402685
  -Hartree energ DENC   =    -69852.56999095
  -exchange      EXHF   =         0.00000000
  -V(xc)+E(xc)   XCENC  =     -2088.93927274
  PAW double counting   =      8325.83561610    -5682.32747781
  entropy T*S    EENTRO =        -0.00000000
  eigenvalues    EBANDS =     -1252.90984978
  atomic energy  EATOM  =     11953.08265402
  Solvation  Ediel_sol  =         0.00000000
  ---------------------------------------------------
  free energy    TOTEN  =      -323.96904151 eV

  energy without entropy =     -323.96904151  energy(sigma->0) =     -323.96904151


--------------------------------------------------------------------------------------------------------




--------------------------------------- Iteration      1(  14)  ---------------------------------------


    POTLOK:  cpu time    0.3120: real time    0.3123
    SETDIJ:  cpu time    0.0119: real time    0.0120
    EDDIAG:  cpu time    2.6284: real time    2.6310
  RMM-DIIS:  cpu time   49.0176: real time   49.0722
    ORTHCH:  cpu time    0.2106: real time    0.2108
       DOS:  cpu time    0.0004: real time    0.0004
    CHARGE:  cpu time    1.2219: real time    1.2231
    MIXING:  cpu time    0.0082: real time    0.0082
    --------------------------------------------
      LOOP:  cpu time   53.4110: real time   53.4699

 eigenvalue-minimisations  :  2326
 total energy-change (2. order) :-0.7066093E-03  (-0.6055120E-03)
 number of electron     324.0000012 magnetization 
 augmentation part      -21.1973525 magnetization 

 Broyden mixing:
  rms(total) = 0.56745E-02    rms(broyden)= 0.56745E-02
  rms(prec ) = 0.76512E-02
  weight for this iteration     100.00

 eigenvalues of (default mixing * dielectric matrix)
  average eigenvalue GAMMA=   1.3323
  3.3428  2.5735  1.5280  1.5280  0.8111  0.8111  0.6201  0.4043  0.3720

 Free energy of the ion-electron system (eV)
  ---------------------------------------------------
  alpha Z        PSCENC =       245.92525280
  Ewald energy   TEWEN  =     58027.93402685
  -Hartree energ DENC   =    -69861.09398476
  -exchange      EXHF   =         0.00000000
  -V(xc)+E(xc)   XCENC  =     -2088.89625223
  PAW double counting   =      8322.65375961    -5679.04254122
  entropy T*S    EENTRO =        -0.00000000
  eigenvalues    EBANDS =     -1244.53266319
  atomic energy  EATOM  =     11953.08265402
  Solvation  Ediel_sol  =         0.00000000
  ---------------------------------------------------
  free energy    TOTEN  =      -323.96974812 eV

  energy without entropy =     -323.96974812  energy(sigma->0) =     -323.96974812


--------------------------------------------------------------------------------------------------------




--------------------------------------- Iteration      1(  15)  ---------------------------------------


    POTLOK:  cpu time    0.3109: real time    0.3112
    SETDIJ:  cpu time    0.0122: real time    0.0122
    EDDIAG:  cpu time    2.6039: real time    2.6084
  RMM-DIIS:  cpu time   52.6290: real time   52.7062
    ORTHCH:  cpu time    0.2335: real time    0.2338
       DOS:  cpu time    0.0006: real time    0.0006
    CHARGE:  cpu time    1.2168: real time    1.2183
    MIXING:  cpu time    0.0083: real time    0.0083
    --------------------------------------------
      LOOP:  cpu time   57.0151: real time   57.0990

 eigenvalue-minimisations  :  2522
 total energy-change (2. order) :-0.6159333E-03  (-0.1903733E-03)
 number of electron     324.0000012 magnetization 
 augmentation part      -21.2043229 magnetization 

 Broyden mixing:
  rms(total) = 0.44653E-02    rms(broyden)= 0.44653E-02
  rms(prec ) = 0.56557E-02
  weight for this iteration     100.00

 eigenvalues of (default mixing * dielectric matrix)
  average eigenvalue GAMMA=   1.2954
  3.5293  2.4885  1.6566  1.6566  0.8115  0.8115  0.8022  0.3697  0.4028  0.4250

 Free energy of the ion-electron system (eV)
  ---------------------------------------------------
  alpha Z        PSCENC =       245.92525280
  Ewald energy   TEWEN  =     58027.93402685
  -Hartree energ DENC   =    -69864.56507768
  -exchange      EXHF   =         0.00000000
  -V(xc)+E(xc)   XCENC  =     -2088.87563319
  PAW double counting   =      8322.76450027    -5679.13927754
  entropy T*S    EENTRO =        -0.00000000
  eigenvalues    EBANDS =     -1241.09680959
  atomic energy  EATOM  =     11953.08265402
  Solvation  Ediel_sol  =         0.00000000
  ---------------------------------------------------
  free energy    TOTEN  =      -323.97036405 eV

  energy without entropy =     -323.97036405  energy(sigma->0) =     -323.97036405


--------------------------------------------------------------------------------------------------------




--------------------------------------- Iteration      1(  16)  ---------------------------------------


    POTLOK:  cpu time    0.3099: real time    0.3101
    SETDIJ:  cpu time    0.0118: real time    0.0118
    EDDIAG:  cpu time    2.5848: real time    2.5890
  RMM-DIIS:  cpu time   53.2333: real time   53.3175
    ORTHCH:  cpu time    0.2100: real time    0.2102
       DOS:  cpu time    0.0004: real time    0.0004
    CHARGE:  cpu time    1.2057: real time    1.2069
    MIXING:  cpu time    0.0085: real time    0.0085
    --------------------------------------------
      LOOP:  cpu time   57.5645: real time   57.6546

 eigenvalue-minimisations  :  2576
 total energy-change (2. order) :-0.6850793E-03  (-0.5447555E-04)
 number of electron     324.0000012 magnetization 
 augmentation part      -21.2081094 magnetization 

 Broyden mixing:
  rms(total) = 0.32086E-02    rms(broyden)= 0.32086E-02
  rms(prec ) = 0.41711E-02
  weight for this iteration     100.00

 eigenvalues of (default mixing * dielectric matrix)
  average eigenvalue GAMMA=   1.3453
  3.7352  2.2417  2.1157  2.1157  1.0682  0.8185  0.8185  0.7237  0.4050  0.3686
  0.3872

 Free energy of the ion-electron system (eV)
  ---------------------------------------------------
  alpha Z        PSCENC =       245.92525280
  Ewald energy   TEWEN  =     58027.93402685
  -Hartree energ DENC   =    -69865.97238247
  -exchange      EXHF   =         0.00000000
  -V(xc)+E(xc)   XCENC  =     -2088.86699099
  PAW double counting   =      8322.92548399    -5679.30878657
  entropy T*S    EENTRO =        -0.00000000
  eigenvalues    EBANDS =     -1239.69030676
  atomic energy  EATOM  =     11953.08265402
  Solvation  Ediel_sol  =         0.00000000
  ---------------------------------------------------
  free energy    TOTEN  =      -323.97104913 eV

  energy without entropy =     -323.97104913  energy(sigma->0) =     -323.97104913


--------------------------------------------------------------------------------------------------------




--------------------------------------- Iteration      1(  17)  ---------------------------------------


    POTLOK:  cpu time    0.3125: real time    0.3129
    SETDIJ:  cpu time    0.0121: real time    0.0121
    EDDIAG:  cpu time    2.6013: real time    2.6054
  RMM-DIIS:  cpu time   44.1609: real time   44.2304
    ORTHCH:  cpu time    0.2090: real time    0.2092
       DOS:  cpu time    0.0004: real time    0.0004
    CHARGE:  cpu time    1.2017: real time    1.2029
    MIXING:  cpu time    0.0086: real time    0.0086
    --------------------------------------------
      LOOP:  cpu time   48.5066: real time   48.5820

 eigenvalue-minimisations  :  2101
 total energy-change (2. order) :-0.1670411E-02  (-0.2799005E-04)
 number of electron     324.0000012 magnetization 
 augmentation part      -21.2080975 magnetization 

 Broyden mixing:
  rms(total) = 0.15791E-02    rms(broyden)= 0.15791E-02
  rms(prec ) = 0.21577E-02
  weight for this iteration     100.00

 eigenvalues of (default mixing * dielectric matrix)
  average eigenvalue GAMMA=   1.4172
  4.5545  2.6916  2.3283  1.5224  1.5224  0.9526  0.8223  0.8223  0.6352  0.4046
  0.3680  0.3824

 Free energy of the ion-electron system (eV)
  ---------------------------------------------------
  alpha Z        PSCENC =       245.92525280
  Ewald energy   TEWEN  =     58027.93402685
  -Hartree energ DENC   =    -69868.96036281
  -exchange      EXHF   =         0.00000000
  -V(xc)+E(xc)   XCENC  =     -2088.85275200
  PAW double counting   =      8322.18576880    -5678.58575879
  entropy T*S    EENTRO =        -0.00000000
  eigenvalues    EBANDS =     -1236.70154841
  atomic energy  EATOM  =     11953.08265402
  Solvation  Ediel_sol  =         0.00000000
  ---------------------------------------------------
  free energy    TOTEN  =      -323.97271954 eV

  energy without entropy =     -323.97271954  energy(sigma->0) =     -323.97271954


--------------------------------------------------------------------------------------------------------




--------------------------------------- Iteration      1(  18)  ---------------------------------------


    POTLOK:  cpu time    0.3133: real time    0.3136
    SETDIJ:  cpu time    0.0123: real time    0.0123
    EDDIAG:  cpu time    2.6001: real time    2.6039
  RMM-DIIS:  cpu time   44.8890: real time   44.9645
    ORTHCH:  cpu time    0.2102: real time    0.2104
       DOS:  cpu time    0.0004: real time    0.0004
    CHARGE:  cpu time    1.1992: real time    1.2020
    MIXING:  cpu time    0.0098: real time    0.0098
    --------------------------------------------
      LOOP:  cpu time   49.2342: real time   49.3168

 eigenvalue-minimisations  :  2129
 total energy-change (2. order) :-0.7897802E-03  (-0.2169885E-04)
 number of electron     324.0000012 magnetization 
 augmentation part      -21.2077390 magnetization 

 Broyden mixing:
  rms(total) = 0.15489E-02    rms(broyden)= 0.15489E-02
  rms(prec ) = 0.18714E-02
  weight for this iteration     100.00

 eigenvalues of (default mixing * dielectric matrix)
  average eigenvalue GAMMA=   1.4116
  5.0340  2.8273  2.2951  1.6704  1.6704  0.9704  0.8258  0.8258  0.6566  0.4197
  0.4046  0.3682  0.3824

 Free energy of the ion-electron system (eV)
  ---------------------------------------------------
  alpha Z        PSCENC =       245.92525280
  Ewald energy   TEWEN  =     58027.93402685
  -Hartree energ DENC   =    -69870.74208229
  -exchange      EXHF   =         0.00000000
  -V(xc)+E(xc)   XCENC  =     -2088.84712505
  PAW double counting   =      8321.64398830    -5678.03810182
  entropy T*S    EENTRO =        -0.00000000
  eigenvalues    EBANDS =     -1234.93212213
  atomic energy  EATOM  =     11953.08265402
  Solvation  Ediel_sol  =         0.00000000
  ---------------------------------------------------
  free energy    TOTEN  =      -323.97350932 eV

  energy without entropy =     -323.97350932  energy(sigma->0) =     -323.97350932


--------------------------------------------------------------------------------------------------------




--------------------------------------- Iteration      1(  19)  ---------------------------------------


    POTLOK:  cpu time    0.3152: real time    0.3182
    SETDIJ:  cpu time    0.0123: real time    0.0124
    EDDIAG:  cpu time    2.6180: real time    2.6209
  RMM-DIIS:  cpu time   48.7830: real time   48.8765
    ORTHCH:  cpu time    0.2119: real time    0.2122
       DOS:  cpu time    0.0005: real time    0.0004
    CHARGE:  cpu time    1.1991: real time    1.2017
    MIXING:  cpu time    0.0090: real time    0.0090
    --------------------------------------------
      LOOP:  cpu time   53.1489: real time   53.2513

 eigenvalue-minimisations  :  2333
 total energy-change (2. order) :-0.3492059E-03  (-0.6497161E-05)
 number of electron     324.0000012 magnetization 
 augmentation part      -21.2070676 magnetization 

 Broyden mixing:
  rms(total) = 0.10018E-02    rms(broyden)= 0.10018E-02
  rms(prec ) = 0.12433E-02
  weight for this iteration     100.00

 eigenvalues of (default mixing * dielectric matrix)
  average eigenvalue GAMMA=   1.5352
  6.2419  3.1342  2.4598  1.8811  1.8811  1.0363  1.0363  0.8178  0.8178  0.6617
  0.4048  0.3874  0.3694  0.3630

 Free energy of the ion-electron system (eV)
  ---------------------------------------------------
  alpha Z        PSCENC =       245.92525280
  Ewald energy   TEWEN  =     58027.93402685
  -Hartree energ DENC   =    -69871.32556058
  -exchange      EXHF   =         0.00000000
  -V(xc)+E(xc)   XCENC  =     -2088.84585545
  PAW double counting   =      8321.66494208    -5678.05670050
  entropy T*S    EENTRO =        -0.00000000
  eigenvalues    EBANDS =     -1234.35261775
  atomic energy  EATOM  =     11953.08265402
  Solvation  Ediel_sol  =         0.00000000
  ---------------------------------------------------
  free energy    TOTEN  =      -323.97385853 eV

  energy without entropy =     -323.97385853  energy(sigma->0) =     -323.97385853


--------------------------------------------------------------------------------------------------------




--------------------------------------- Iteration      1(  20)  ---------------------------------------


    POTLOK:  cpu time    0.3161: real time    0.3164
    SETDIJ:  cpu time    0.0120: real time    0.0120
    EDDIAG:  cpu time    2.5988: real time    2.6033
  RMM-DIIS:  cpu time   44.0694: real time   44.1359
    ORTHCH:  cpu time    0.2074: real time    0.2076
       DOS:  cpu time    0.0004: real time    0.0004
    CHARGE:  cpu time    1.1981: real time    1.1992
    MIXING:  cpu time    0.0096: real time    0.0096
    --------------------------------------------
      LOOP:  cpu time   48.4117: real time   48.4844

 eigenvalue-minimisations  :  2093
 total energy-change (2. order) :-0.5549595E-03  (-0.7048275E-05)
 number of electron     324.0000012 magnetization 
 augmentation part      -21.2055972 magnetization 

 Broyden mixing:
  rms(total) = 0.42489E-03    rms(broyden)= 0.42489E-03
  rms(prec ) = 0.51753E-03
  weight for this iteration     100.00

 eigenvalues of (default mixing * dielectric matrix)
  average eigenvalue GAMMA=   1.5618
  6.7581  3.3196  2.5197  1.7816  1.7816  1.2743  1.2743  0.8167  0.8167  0.8865
  0.6726  0.4047  0.3887  0.3704  0.3610

 Free energy of the ion-electron system (eV)
  ---------------------------------------------------
  alpha Z        PSCENC =       245.92525280
  Ewald energy   TEWEN  =     58027.93402685
  -Hartree energ DENC   =    -69871.98504525
  -exchange      EXHF   =         0.00000000
  -V(xc)+E(xc)   XCENC  =     -2088.84522390
  PAW double counting   =      8322.26343593    -5678.65649767
  entropy T*S    EENTRO =        -0.00000000
  eigenvalues    EBANDS =     -1233.69301627
  atomic energy  EATOM  =     11953.08265402
  Solvation  Ediel_sol  =         0.00000000
  ---------------------------------------------------
  free energy    TOTEN  =      -323.97441349 eV

  energy without entropy =     -323.97441349  energy(sigma->0) =     -323.97441349


--------------------------------------------------------------------------------------------------------




--------------------------------------- Iteration      1(  21)  ---------------------------------------


    POTLOK:  cpu time    0.3162: real time    0.3165
    SETDIJ:  cpu time    0.0121: real time    0.0122
    EDDIAG:  cpu time    2.6024: real time    2.6056
  RMM-DIIS:  cpu time   43.8037: real time   43.8776
    ORTHCH:  cpu time    0.2084: real time    0.2086
       DOS:  cpu time    0.0004: real time    0.0004
    CHARGE:  cpu time    1.2024: real time    1.2050
    MIXING:  cpu time    0.0092: real time    0.0092
    --------------------------------------------
      LOOP:  cpu time   48.1548: real time   48.2351

 eigenvalue-minimisations  :  2032
 total energy-change (2. order) :-0.1101749E-03  (-0.1442645E-05)
 number of electron     324.0000012 magnetization 
 augmentation part      -21.2064460 magnetization 

 Broyden mixing:
  rms(total) = 0.34005E-03    rms(broyden)= 0.34005E-03
  rms(prec ) = 0.41180E-03
  weight for this iteration     100.00

 eigenvalues of (default mixing * dielectric matrix)
  average eigenvalue GAMMA=   1.5426
  7.0239  3.3765  2.5279  1.8638  1.8638  1.7499  1.0067  1.0067  0.8166  0.8166
  0.6712  0.4312  0.4052  0.3902  0.3703  0.3609

 Free energy of the ion-electron system (eV)
  ---------------------------------------------------
  alpha Z        PSCENC =       245.92525280
  Ewald energy   TEWEN  =     58027.93402685
  -Hartree energ DENC   =    -69872.15517122
  -exchange      EXHF   =         0.00000000
  -V(xc)+E(xc)   XCENC  =     -2088.84609793
  PAW double counting   =      8322.31805755    -5678.71203917
  entropy T*S    EENTRO =        -0.00000000
  eigenvalues    EBANDS =     -1233.52120655
  atomic energy  EATOM  =     11953.08265402
  Solvation  Ediel_sol  =         0.00000000
  ---------------------------------------------------
  free energy    TOTEN  =      -323.97452366 eV

  energy without entropy =     -323.97452366  energy(sigma->0) =     -323.97452366


--------------------------------------------------------------------------------------------------------




--------------------------------------- Iteration      1(  22)  ---------------------------------------


    POTLOK:  cpu time    0.3174: real time    0.3177
    SETDIJ:  cpu time    0.0120: real time    0.0120
    EDDIAG:  cpu time    2.6042: real time    2.6073
  RMM-DIIS:  cpu time   30.5532: real time   30.5959
    ORTHCH:  cpu time    0.2083: real time    0.2085
       DOS:  cpu time    0.0005: real time    0.0005
    CHARGE:  cpu time    1.2046: real time    1.2058
    MIXING:  cpu time    0.0097: real time    0.0097
    --------------------------------------------
      LOOP:  cpu time   34.9099: real time   34.9575

 eigenvalue-minimisations  :  1406
 total energy-change (2. order) :-0.5016210E-04  (-0.4028753E-06)
 number of electron     324.0000012 magnetization 
 augmentation part      -21.2068547 magnetization 

 Broyden mixing:
  rms(total) = 0.20369E-03    rms(broyden)= 0.20369E-03
  rms(prec ) = 0.25600E-03
  weight for this iteration     100.00

 eigenvalues of (default mixing * dielectric matrix)
  average eigenvalue GAMMA=   1.6036
  7.4531  3.3184  2.6538  2.6538  1.8567  1.8567  1.0907  1.0907  1.0665  0.8159
  0.8159  0.6678  0.3609  0.3701  0.4046  0.3894  0.3966

[...]
 -0.000  -0.000   0.000  -0.000  -0.000   0.011   0.000   0.000
  0.000  -0.000  -0.000   0.000  -0.000   0.000   0.011   0.000
 -0.000  -0.000  -0.000  -0.000   0.000   0.000   0.000   0.011
  0.000   0.000   0.001   0.000  -0.000  -0.000  -0.000  -0.000
 -0.000   0.000   0.014   0.000   0.000   0.000  -0.000  -0.000
 -0.009  -0.000  -0.000   0.019  -0.000   0.000   0.000   0.000
 -0.000   0.000   0.000   0.001   0.015  -0.000  -0.000   0.000
 -0.000   0.000  -0.001   0.000   0.001  -0.000  -0.000  -0.000
 total augmentation occupancy for first ion, spin component:           1
  1.935   0.203   0.002  -0.199  -0.002  -0.002  -0.036  -0.006  -0.000   0.001   0.005   0.001   0.001
  0.203   1.335  -0.002   0.933   0.020   0.003  -0.367  -0.010   0.003  -0.001  -0.021   0.002  -0.000
  0.002  -0.002   1.330   0.005   0.005  -0.474  -0.001  -0.000   0.003   0.115   0.001   0.001   0.045
 -0.199   0.933   0.005   1.501   0.007  -0.001  -0.528  -0.009  -0.000   0.000   0.034   0.003   0.002
 -0.002   0.020   0.005   0.007   1.335  -0.000  -0.009  -0.483   0.045   0.001   0.000   0.117   0.003
 -0.002   0.003  -0.474  -0.001  -0.000   0.296  -0.001   0.002  -0.002  -0.038   0.000   0.000  -0.008
 -0.036  -0.367  -0.001  -0.528  -0.009  -0.001   0.284   0.003   0.000  -0.000  -0.045  -0.002  -0.000
 -0.006  -0.010  -0.000  -0.009  -0.483   0.002   0.003   0.298  -0.008   0.000   0.000  -0.039  -0.001
 -0.000   0.003   0.003  -0.000   0.045  -0.002   0.000  -0.008   0.020   0.000  -0.000  -0.000  -0.000
  0.001  -0.001   0.115   0.000   0.001  -0.038  -0.000   0.000   0.000   0.018   0.000   0.000  -0.001
  0.005  -0.021   0.001   0.034   0.000   0.000  -0.045   0.000  -0.000   0.000   0.019   0.001  -0.000
  0.001   0.002   0.001   0.003   0.117   0.000  -0.002  -0.039  -0.000   0.000   0.001   0.018   0.000
  0.001  -0.000   0.045   0.002   0.003  -0.008  -0.000  -0.001  -0.000  -0.001  -0.000   0.000   0.020


------------------------ aborting loop because EDIFF is reached ----------------------------------------


    CHARGE:  cpu time    1.2024: real time    1.2035
    FORLOC:  cpu time    0.0811: real time    0.0812
    FORNL :  cpu time   13.9777: real time   13.9940
    STRESS:  cpu time   75.7500: real time   75.8608
    FORCOR:  cpu time    0.3970: real time    0.3973
    FORHAR:  cpu time    0.1476: real time    0.1477
    MIXING:  cpu time    0.0085: real time    0.0085
    OFIELD:  cpu time    0.0000: real time    0.0000

  Number of pair interactions contributing to vdW energy:  269274
  Edisp (eV):  -18.85572
    FORVDW:  cpu time    0.0294: real time    0.0295

  FORCE on cell =-STRESS in cart. coord.  units (eV):
  Direction    XX          YY          ZZ          XY          YZ          ZX
  --------------------------------------------------------------------------------------
  Alpha Z   245.92525   245.92525   245.92525
  Ewald   67164.91321 67151.84299-76274.64762    19.46532    38.06213    -2.30810
  Hartree 69505.46597 69502.84590-69120.97740     6.76846     1.85417    -3.44369
  E(xc)   -1353.59167 -1353.42453 -1372.56303    -0.17468    -1.95754    -0.54181
  Local  ************************140333.01798   -25.55277   -39.63814     5.04348
  n-local  3552.83963  3550.51686  3734.08844    -1.66844    14.13888     4.10432
  augment  -760.55519  -760.15873  -800.75146     0.69166    -2.47193    -0.88087
  Kinetic  3280.91893  3282.91038  3264.40122     6.23845     5.74679    -0.64224
  Fock        0.00000     0.00000     0.00000     0.00000     0.00000     0.00000
  vdW       -12.45172   -12.48914    -9.06436     0.04417    -0.99667    -0.66455
  -------------------------------------------------------------------------------------
  Total      -5.87277    -5.99146    -0.57096     5.81216    14.73769     0.66654
  in kB      -3.22429    -3.28945    -0.31347     3.19102     8.09134     0.36595
  external pressure =       -2.28 kB  Pullay stress =        0.00 kB

  kinetic pressure (ideal gas correction) =      0.20 kB
  total pressure  =     -2.07 kB
  Total+kin.    -3.062      -3.055      -0.106       3.170       8.130       0.360

 VOLUME and BASIS-vectors are now :
 -----------------------------------------------------------------------------
  energy-cutoff  :      550.00
  volume of cell :     2918.23
      direct lattice vectors                 reciprocal lattice vectors
    10.620133394  0.000000000  0.000000000     0.094160776  0.055693345  0.001540894
    -5.433410859  9.186271447  0.000000000     0.000000000  0.108858094  0.002527683
    -0.078686163 -0.694563567 29.912320622     0.000000000  0.000000000  0.033431040

  length of vectors
    10.620133394 10.672841077 29.920486878     0.109409208  0.108887436  0.033431040


 FORCES acting on ions
    electron-ion (+dipol)            ewald-force                    non-local-force                 convergence-correction
 -----------------------------------------------------------------------------------------------
   0.176E+01 -.349E+00 0.812E+03   -.173E+01 0.390E+00 -.818E+03   -.175E+00 -.134E+00 0.547E+01   -.372E-03 0.992E-03 -.737E-03
   -.930E+00 0.152E+00 0.817E+03   0.990E+00 -.683E-01 -.822E+03   -.199E+00 -.263E+00 0.550E+01   0.243E-03 0.303E-03 0.242E-03
   0.305E+01 0.241E+01 0.814E+03   -.303E+01 -.235E+01 -.820E+03   -.225E+00 -.605E+00 0.530E+01   0.155E-02 -.405E-03 -.661E-03
   0.107E+01 -.928E+00 0.817E+03   -.103E+01 0.107E+01 -.822E+03   -.721E-01 -.416E+00 0.569E+01   0.759E-03 -.563E-03 -.556E-03
   -.249E+00 -.144E+01 0.812E+03   0.315E+00 0.151E+01 -.817E+03   -.699E-01 -.981E-01 0.570E+01   -.115E-02 0.122E-03 -.254E-03
   -.154E+01 0.222E+01 0.814E+03   0.156E+01 -.215E+01 -.820E+03   -.647E-01 -.493E+00 0.511E+01   -.471E-03 -.152E-03 0.329E-03
   -.780E+00 0.320E+01 0.814E+03   0.791E+00 -.307E+01 -.820E+03   -.317E-01 -.695E+00 0.508E+01   -.344E-03 0.397E-03 0.267E-04
   0.410E+01 -.306E+00 0.813E+03   -.408E+01 0.482E+00 -.818E+03   -.303E+00 -.533E+00 0.537E+01   0.990E-03 -.848E-03 -.475E-03
   -.224E+00 0.281E+01 0.814E+03   0.247E+00 -.278E+01 -.819E+03   0.120E+00 -.387E+00 0.552E+01   -.110E-02 0.149E-03 -.749E-03
   -.102E+01 -.164E+01 -.950E+02   0.101E+01 0.168E+01 0.896E+02   0.350E-01 -.971E-01 0.541E+01   0.605E-04 0.896E-03 -.434E-03
   -.186E+01 -.122E+01 -.977E+02   0.186E+01 0.127E+01 0.922E+02   0.587E-01 -.165E+00 0.551E+01   0.131E-03 0.275E-03 0.151E-03
   -.173E+01 0.130E+01 -.985E+02   0.174E+01 -.122E+01 0.930E+02   0.450E-01 -.504E+00 0.545E+01   0.845E-03 -.705E-03 -.638E-04
   0.112E+01 0.966E+00 -.972E+02   -.111E+01 -.927E+00 0.918E+02   -.313E-01 -.379E+00 0.554E+01   0.330E-03 0.356E-03 0.731E-03
   0.155E+01 0.275E+01 -.958E+02   -.160E+01 -.272E+01 0.903E+02   -.559E-01 -.377E+00 0.560E+01   -.298E-03 0.231E-03 0.262E-03
   0.258E+01 0.129E+01 -.963E+02   -.264E+01 -.123E+01 0.908E+02   -.108E+00 -.344E+00 0.540E+01   -.257E-03 -.633E-03 -.723E-04
   0.237E+01 0.171E+01 -.952E+02   -.244E+01 -.168E+01 0.898E+02   -.130E+00 -.434E+00 0.549E+01   -.499E-03 0.721E-03 -.299E-03
   0.292E+01 0.233E+01 -.961E+02   -.293E+01 -.229E+01 0.906E+02   -.296E+00 -.500E+00 0.530E+01   0.211E-03 -.365E-03 0.295E-03
   0.247E+01 0.865E+00 -.957E+02   -.250E+01 -.831E+00 0.902E+02   -.221E+00 -.261E+00 0.534E+01   -.515E-03 -.777E-03 -.104E-02
   0.104E+01 -.258E+01 0.998E+02   -.983E+00 0.247E+01 -.943E+02   -.378E-01 0.656E+00 -.532E+01   -.552E-03 0.113E-02 0.428E-03
   -.335E+00 0.694E+00 0.936E+02   0.333E+00 -.805E+00 -.883E+02   -.134E-01 0.366E+00 -.539E+01   0.283E-03 0.452E-03 -.249E-03
   0.629E+00 -.203E+01 0.966E+02   -.593E+00 0.201E+01 -.911E+02   0.263E-01 0.276E+00 -.552E+01   0.143E-02 -.871E-03 0.130E-03
   -.707E+00 0.340E-02 0.983E+02   0.726E+00 -.199E-01 -.929E+02   0.239E+00 0.321E-01 -.566E+01   0.746E-03 -.280E-03 -.133E-03
   0.670E-01 -.102E+01 0.981E+02   -.156E-01 0.921E+00 -.927E+02   0.630E-01 0.454E+00 -.566E+01   -.119E-02 0.407E-03 0.382E-03
   -.212E+01 -.392E+01 0.943E+02   0.213E+01 0.391E+01 -.889E+02   0.191E+00 0.584E+00 -.544E+01   -.315E-03 -.617E-03 -.622E-03
   -.586E+00 0.108E+00 0.955E+02   0.552E+00 -.168E+00 -.901E+02   0.180E+00 0.346E+00 -.542E+01   -.268E-03 0.303E-03 -.310E-03
   0.460E+00 0.116E+01 0.947E+02   -.422E+00 -.117E+01 -.893E+02   0.136E+00 0.983E-02 -.578E+01   0.857E-03 -.592E-03 0.518E-03
   0.124E+01 -.167E+01 0.988E+02   -.123E+01 0.163E+01 -.932E+02   0.395E-01 0.417E+00 -.532E+01   -.108E-02 0.369E-04 0.738E-03
   -.147E+01 0.187E+00 -.814E+03   0.146E+01 -.241E+00 0.819E+03   0.160E+00 0.110E+00 -.528E+01   0.225E-03 0.111E-02 0.793E-03
   -.209E+01 -.171E+01 -.813E+03   0.205E+01 0.168E+01 0.818E+03   0.346E+00 0.230E+00 -.557E+01   -.259E-04 0.295E-03 -.306E-03
   0.126E+01 -.473E+00 -.813E+03   -.128E+01 0.431E+00 0.818E+03   -.537E-01 0.151E+00 -.556E+01   0.101E-02 -.575E-03 0.276E-03
   0.295E+01 -.102E+01 -.816E+03   -.297E+01 0.966E+00 0.822E+03   -.839E-01 0.243E+00 -.553E+01   0.415E-03 0.335E-03 0.143E-03
   -.174E+01 0.771E-01 -.813E+03   0.173E+01 -.141E+00 0.819E+03   0.337E+00 0.285E+00 -.543E+01   -.355E-03 -.121E-03 -.334E-03
   0.109E+01 0.421E-01 -.815E+03   -.108E+01 -.139E+00 0.820E+03   -.209E-01 0.385E+00 -.525E+01   -.284E-03 -.219E-03 0.789E-04
   -.287E-01 -.540E+00 -.816E+03   0.749E-01 0.412E+00 0.822E+03   -.371E-01 0.411E+00 -.548E+01   -.703E-03 0.553E-03 0.702E-03
   0.319E+01 -.303E+01 -.814E+03   -.320E+01 0.300E+01 0.820E+03   -.166E+00 0.459E+00 -.535E+01   0.249E-03 -.691E-03 -.169E-03
   0.176E+00 -.137E+00 -.814E+03   -.123E+00 0.259E-01 0.820E+03   -.119E+00 0.446E+00 -.544E+01   -.554E-03 -.556E-03 0.845E-03
   0.584E-01 0.175E+01 0.456E+03   -.409E-01 -.192E+01 -.456E+03   -.921E-01 -.145E+00 -.177E+00   0.247E-03 0.176E-03 -.318E-03
   -.398E+01 0.620E+00 0.453E+03   0.402E+01 -.559E+00 -.453E+03   0.349E+00 -.253E+00 -.948E-01   -.627E-03 0.896E-03 -.281E-03
   0.312E+00 -.334E+00 0.455E+03   -.237E+00 0.341E+00 -.455E+03   0.166E+00 0.215E+00 0.266E-01   0.136E-02 -.552E-03 -.109E-03
   -.859E+00 -.393E+01 0.456E+03   0.901E+00 0.406E+01 -.456E+03   -.276E-01 0.488E+00 0.268E+00   0.975E-03 -.629E-03 -.438E-03
   -.224E+01 -.144E+01 0.458E+03   0.234E+01 0.143E+01 -.458E+03   -.100E+00 0.126E-01 -.545E-01   -.152E-03 0.537E-03 -.238E-03
   -.487E+01 0.286E+01 0.454E+03   0.489E+01 -.297E+01 -.454E+03   0.289E+00 -.264E+00 -.236E+00   -.898E-03 0.263E-03 -.113E-03
   -.156E+01 0.713E+00 0.455E+03   0.151E+01 -.673E+00 -.455E+03   -.456E-02 0.463E-01 0.144E+00   -.142E-02 0.169E-03 -.254E-03
   0.381E+01 -.210E+01 0.456E+03   -.394E+01 0.223E+01 -.456E+03   -.259E+00 0.441E+00 0.246E+00   0.737E-03 -.246E-03 -.335E-03
   0.815E+00 0.161E+01 0.453E+03   -.814E+00 -.172E+01 -.454E+03   -.181E+00 0.197E-01 -.336E+00   -.497E-03 -.313E-03 -.213E-03
   -.223E+01 -.914E+00 -.455E+03   0.226E+01 0.932E+00 0.455E+03   0.101E-01 0.708E-01 -.910E-03   0.412E-03 0.733E-03 0.353E-03
   0.151E+01 0.190E+01 -.454E+03   -.157E+01 -.193E+01 0.454E+03   -.358E+00 -.184E+00 -.579E-01   -.188E-03 -.231E-03 0.835E-04
   0.204E+00 -.276E+00 -.458E+03   -.138E+00 0.353E+00 0.458E+03   -.876E-01 0.427E-01 -.121E+00   0.509E-03 -.117E-03 0.194E-03
   0.720E+00 0.105E+01 -.457E+03   -.683E+00 -.114E+01 0.457E+03   0.702E-01 0.665E-01 -.145E+00   -.116E-03 0.368E-03 0.231E-03
   0.168E+00 0.266E+01 -.455E+03   -.165E+00 -.273E+01 0.455E+03   -.401E-01 -.250E+00 0.226E+00   -.274E-03 -.937E-03 0.199E-04
   -.192E+01 0.154E+00 -.454E+03   0.200E+01 -.130E+00 0.454E+03   0.157E+00 -.776E-01 0.110E+00   -.104E-02 -.184E-03 0.331E-03
   -.156E+01 -.144E+01 -.455E+03   0.153E+01 0.144E+01 0.455E+03   -.789E-01 0.100E+00 0.114E+00   -.223E-03 0.103E-02 0.187E-03
   -.273E+01 -.346E+01 -.451E+03   0.278E+01 0.358E+01 0.452E+03   0.122E+00 0.336E+00 0.314E+00   0.382E-03 -.603E-03 0.279E-03
   -.272E+01 0.478E+00 -.457E+03   0.276E+01 -.473E+00 0.457E+03   -.373E-02 0.219E-01 0.230E+00   0.229E-03 0.716E-05 0.978E-04
 -----------------------------------------------------------------------------------------------
   0.604E+00 0.142E+00 0.184E+00   -.302E-13 0.694E-14 -.182E-11   -.609E+00 -.141E+00 -.183E+00   -.585E-03 0.463E-03 -.915E-03
 
 
 POSITION                                       TOTAL-FORCE (eV/Angst)
 -----------------------------------------------------------------------------------
     -0.05620      1.81370      9.45823        -0.147275     -0.088401     -0.015297
     -1.85338      4.89508      9.42466        -0.137019     -0.167376      0.204328
     -3.66607      7.96439      9.44796        -0.198137     -0.521925     -0.089225
      3.49495      1.81034      9.40205        -0.022575     -0.274874      0.335091
      1.67468      4.86782      9.44270        -0.008566     -0.024235      0.285381
     -0.12228      7.95777      9.46030        -0.042782     -0.406361     -0.254776
      7.03890      1.85662      9.46019        -0.018282     -0.542647     -0.293450
      5.23703      4.88433      9.45226        -0.266550     -0.348755      0.015970
      3.39289      7.94685      9.44609         0.134461     -0.345666      0.079839
      9.65765      1.10955     16.85135        -0.000044     -0.066832     -0.151945
      7.86298      4.17672     16.85435         0.040173     -0.126189     -0.076819
     -4.57178      7.27572     16.86409         0.034097     -0.423373     -0.137454
      2.57965      1.14327     16.85318        -0.040889     -0.339305      0.049499
      0.78364      4.20877     16.83673        -0.119719     -0.348097      0.074631
     -1.02546      7.27297     16.85328        -0.183845     -0.289245     -0.103154
      6.12647      1.15735     16.84535        -0.214677     -0.394498     -0.006088
      4.32895      4.20047     16.85312        -0.315251     -0.460760     -0.213826
      2.52162      7.26423     16.85498        -0.263001     -0.226969     -0.210697
     -0.06477      1.72658     13.02712         0.025635      0.542774      0.333672
     -1.88071      4.81601     13.07861        -0.001236      0.265391      0.051996
     -3.68351      7.85858     13.05804         0.078053      0.251011      0.025765
      3.45915      1.74354     13.06111         0.265352      0.022476     -0.179810
      1.65399      4.78392     13.06970         0.122780      0.357488     -0.110701
     -0.15964      7.84336     13.07515         0.208547      0.564029      0.011784
      7.00480      1.73264     13.06235         0.155667      0.286171      0.085233
      5.20019      4.80211     13.09674         0.189524      0.005869     -0.314014
      3.39773      7.85841     13.04205         0.069337      0.376469      0.276407
      9.64032      1.07524     20.44952         0.146084      0.054517      0.135052
      7.81688      4.12625     20.46362         0.285890      0.187550     -0.164803
     -4.57087      7.17963     20.46189        -0.079880      0.100561     -0.124659
      2.58133      1.06514     20.49270        -0.100929      0.185891     -0.165845
      0.74335      4.12819     20.46028         0.308638      0.213098     -0.040608
     -1.02430      7.18342     20.46147        -0.006994      0.281514      0.126238
      6.12314      1.04799     20.48326         0.006481      0.271607     -0.141213
      4.32452      4.10351     20.45974        -0.169049      0.414466      0.031252
      2.51151      7.17482     20.46102        -0.066338      0.323347     -0.039942
     -0.01849     -0.25790     11.25799        -0.077446     -0.303309     -0.287909
      8.75907      2.83468     11.26380         0.419581     -0.222705     -0.071069
      6.96454      5.84672     11.25677         0.234304      0.229847      0.026988
     -1.91198      8.89222     11.23680         0.006004      0.630953      0.402533
      1.71640      2.79201     11.24521        -0.007446      0.007719     -0.109374
     -0.12893      5.87793     11.27218         0.340416     -0.386098     -0.371040
      7.05826     -0.26113     11.24878        -0.034256      0.077899      0.203391
      5.25679      2.76544     11.24140        -0.406237      0.573738      0.338602
      3.44799      5.85076     11.28065        -0.190588     -0.088385     -0.489026
      0.79734      2.11454     18.65642         0.055889      0.093689      0.013312
     -0.98479      5.19613     18.65690        -0.431946     -0.236332     -0.107484
     -2.80315      8.24171     18.67442        -0.039501      0.103680     -0.114651
      4.33705      2.10914     18.67434         0.109802     -0.015682     -0.189868
      2.54266      5.19174     18.64057        -0.040688     -0.327380      0.327371
      0.71984      8.25346     18.64883         0.250039     -0.059360      0.143954
      7.88357      2.10499     18.65124        -0.100753      0.120300      0.179783
      6.06666      5.15121     18.63245         0.197006      0.471717      0.417479
      4.26452      8.24072     18.64787         0.042820      0.022621      0.399079
 -----------------------------------------------------------------------------------
    total drift:                               -0.005321      0.001632     -0.000117


--------------------------------------------------------------------------------------------------------



  FREE ENERGIE OF THE ION-ELECTRON SYSTEM (eV)
  ---------------------------------------------------
  free  energy   TOTEN  =      -342.65592474 eV

  energy  without entropy=     -342.65592474  energy(sigma->0) =     -342.65592474
 
 d Force =-0.2931671E-01[-0.312E-01,-0.275E-01]  d Energy =-0.2929461E-01-0.221E-04
 d Force =-0.1413417E+01[-0.142E+01,-0.141E+01]  d Ewald  =-0.1413420E+01 0.298E-05


--------------------------------------------------------------------------------------------------------


    POTLOK:  cpu time    0.3274: real time    0.3287


--------------------------------------------------------------------------------------------------------


           RANDOM_SEED =         264335330              324                0
   IONSTEP:  cpu time    0.0001: real time    0.0001

  ENERGY OF THE ELECTRON-ION-THERMOSTAT SYSTEM (eV)
  ---------------------------------------------------
% ion-electron   TOTEN  =      -342.655925  see above
  kinetic energy EKIN   =         0.539915
  kin. lattice  EKIN_LAT=         0.000000  (temperature   78.81 K)
  nose potential ES     =        -0.035321
  nose kinetic   EPS    =         0.005444
  ---------------------------------------------------
  total energy   ETOTAL =      -342.145887 eV

  maximum distance moved by ions :      0.56E-03


 mean value of Nose-termostat <S>:     0.964 mean value of <T> :    78.810
 mean temperature <T/S>/<1/S>  :    78.810

    WAVPRE:  cpu time    0.1100: real time    0.1135
    FEWALD:  cpu time    0.0016: real time    0.0016
    ORTHCH:  cpu time    8.5009: real time    8.5134
    POTLOK:  cpu time    0.3281: real time    0.3284
    EDDIAG:  cpu time    2.6025: real time    2.6067
     LOOP+:  cpu time  462.3269: real time  463.0439
    4ORBIT:  cpu time    0.0000: real time    0.0000

 total amount of memory used by VASP MPI-rank0   372844. kBytes
=======================================================================

   base      :      30000. kBytes
   nonl-proj :     197038. kBytes
   fftplans  :      19943. kBytes
   grid      :      90496. kBytes
   one-center:        839. kBytes
   wavefun   :      34528. kBytes
 
  
  
 General timing and accounting informations for this job:
 ========================================================
  
                  Total CPU time used (sec):     5942.758
                            User time (sec):     5929.242
                          System time (sec):       13.516
                         Elapsed time (sec):     5951.930
  
                   Maximum memory used (kb):      830224.
                   Average memory used (kb):           0.
  
                          Minor page faults:       395530
                          Major page faults:            0
                 Voluntary context switches:          730
