0.000000000000000000e+00 2.032270000000000021e+00 9.602719999999999700e+00 -1.760000000000000009e+00 5.080680000000000085e+00 9.602719999999999700e+00 -3.520000000000000018e+00 8.129089999999999705e+00 9.602719999999999700e+00 3.520000000000000018e+00 2.032270000000000021e+00 9.602719999999999700e+00 1.760000000000000009e+00 5.080680000000000085e+00 9.602719999999999700e+00 0.000000000000000000e+00 8.129089999999999705e+00 9.602719999999999700e+00 7.040000000000000036e+00 2.032270000000000021e+00 9.602719999999999700e+00 5.280000000000000249e+00 5.080680000000000085e+00 9.602719999999999700e+00 3.520000000000000018e+00 8.129089999999999705e+00 9.602719999999999700e+00 1.760000000000000009e+00 2.032270000000000021e+00 1.677712000000000003e+01 0.000000000000000000e+00 5.080680000000000085e+00 1.677712000000000003e+01 -1.760000000000000009e+00 8.129089999999999705e+00 1.677712000000000003e+01 5.280000000000000249e+00 2.032270000000000021e+00 1.677712000000000003e+01 3.520000000000000018e+00 5.080680000000000085e+00 1.677712000000000003e+01 1.760000000000000009e+00 8.129089999999999705e+00 1.677712000000000003e+01 8.800000000000000711e+00 2.032270000000000021e+00 1.677712000000000003e+01 7.040000000000000036e+00 5.080680000000000085e+00 1.677712000000000003e+01 5.280000000000000249e+00 8.129089999999999705e+00 1.677712000000000003e+01 0.000000000000000000e+00 2.032270000000000021e+00 1.322287999999999997e+01 -1.760000000000000009e+00 5.080680000000000085e+00 1.322287999999999997e+01 -3.520000000000000018e+00 8.129089999999999705e+00 1.322287999999999997e+01 3.520000000000000018e+00 2.032270000000000021e+00 1.322287999999999997e+01 1.760000000000000009e+00 5.080680000000000085e+00 1.322287999999999997e+01 0.000000000000000000e+00 8.129089999999999705e+00 1.322287999999999997e+01 7.040000000000000036e+00 2.032270000000000021e+00 1.322287999999999997e+01 5.280000000000000249e+00 5.080680000000000085e+00 1.322287999999999997e+01 3.520000000000000018e+00 8.129089999999999705e+00 1.322287999999999997e+01 1.760000000000000009e+00 2.032270000000000021e+00 2.039731000000000094e+01 0.000000000000000000e+00 5.080680000000000085e+00 2.039731000000000094e+01 -1.760000000000000009e+00 8.129089999999999705e+00 2.039731000000000094e+01 5.280000000000000249e+00 2.032270000000000021e+00 2.039731000000000094e+01 3.520000000000000018e+00 5.080680000000000085e+00 2.039731000000000094e+01 1.760000000000000009e+00 8.129089999999999705e+00 2.039731000000000094e+01 8.800000000000000711e+00 2.032270000000000021e+00 2.039731000000000094e+01 7.040000000000000036e+00 5.080680000000000085e+00 2.039731000000000094e+01 5.280000000000000249e+00 8.129089999999999705e+00 2.039731000000000094e+01 0.000000000000000000e+00 0.000000000000000000e+00 1.141357999999999961e+01 -1.760000000000000009e+00 3.048410000000000064e+00 1.141357999999999961e+01 -3.520000000000000018e+00 6.096820000000000128e+00 1.141357999999999961e+01 3.520000000000000018e+00 0.000000000000000000e+00 1.141357999999999961e+01 1.760000000000000009e+00 3.048410000000000064e+00 1.141357999999999961e+01 0.000000000000000000e+00 6.096820000000000128e+00 1.141357999999999961e+01 7.040000000000000036e+00 0.000000000000000000e+00 1.141357999999999961e+01 5.280000000000000249e+00 3.048410000000000064e+00 1.141357999999999961e+01 3.520000000000000018e+00 6.096820000000000128e+00 1.141357999999999961e+01 1.760000000000000009e+00 0.000000000000000000e+00 1.858643999999999963e+01 0.000000000000000000e+00 3.048410000000000064e+00 1.858643999999999963e+01 -1.760000000000000009e+00 6.096820000000000128e+00 1.858643999999999963e+01 5.280000000000000249e+00 0.000000000000000000e+00 1.858643999999999963e+01 3.520000000000000018e+00 3.048410000000000064e+00 1.858643999999999963e+01 1.760000000000000009e+00 6.096820000000000128e+00 1.858643999999999963e+01 8.800000000000000711e+00 0.000000000000000000e+00 1.858643999999999963e+01 7.040000000000000036e+00 3.048410000000000064e+00 1.858643999999999963e+01 5.280000000000000249e+00 6.096820000000000128e+00 1.858643999999999963e+01
1.340000000000000045e-03 2.030609999999999804e+00 9.602479999999999905e+00 -1.758709999999999996e+00 5.080400000000000027e+00 9.603600000000000136e+00 -3.516000000000000014e+00 8.128769999999999385e+00 9.602790000000000603e+00 3.522569999999999979e+00 2.034120000000000150e+00 9.601440000000000197e+00 1.759419999999999984e+00 5.082029999999999603e+00 9.601110000000000255e+00 2.799999999999999755e-04 8.129619999999999180e+00 9.601499999999999702e+00 7.040189999999999948e+00 2.030980000000000008e+00 9.603180000000000049e+00 5.278739999999999988e+00 5.078949999999999854e+00 9.601010000000000488e+00 3.517959999999999976e+00 8.131569999999999965e+00 9.604499999999999815e+00 1.760299999999999976e+00 2.028739999999999988e+00 1.677985999999999933e+01 -1.020000000000000073e-03 5.081380000000000230e+00 1.677567000000000164e+01 -1.758669999999999956e+00 8.128399999999999181e+00 1.677774000000000143e+01 5.281909999999999883e+00 2.028379999999999850e+00 1.677714999999999890e+01 3.518850000000000033e+00 5.080829999999999735e+00 1.677900999999999954e+01 1.759319999999999995e+00 8.128790000000000404e+00 1.677949999999999875e+01 8.800159999999999982e+00 2.029570000000000096e+00 1.678119999999999834e+01 7.039780000000000371e+00 5.083039999999999559e+00 1.677809999999999846e+01 5.278299999999999770e+00 8.131050000000000111e+00 1.677629999999999910e+01 -7.900000000000000121e-04 2.034920000000000062e+00 1.322180000000000000e+01 -1.761169999999999902e+00 5.079850000000000421e+00 1.322234000000000087e+01 -3.521100000000000119e+00 8.129609999999999559e+00 1.322236999999999973e+01 3.517759999999999998e+00 2.031379999999999963e+00 1.322378999999999927e+01 1.760680000000000023e+00 5.079130000000000145e+00 1.322213999999999956e+01 -2.710000000000000169e-03 8.130150000000000432e+00 1.322395999999999994e+01 7.038619999999999877e+00 2.034009999999999874e+00 1.322461000000000020e+01 5.280020000000000380e+00 5.079449999999999577e+00 1.322145000000000081e+01 3.521850000000000147e+00 8.129770000000000607e+00 1.322627999999999915e+01 1.756510000000000016e+00 2.031610000000000138e+00 2.039686999999999983e+01 -1.170000000000000033e-03 5.080799999999999983e+00 2.039956000000000103e+01 -1.758510000000000018e+00 8.127890000000000725e+00 2.039862000000000108e+01 5.281769999999999854e+00 2.033420000000000005e+00 2.039543000000000106e+01 3.518260000000000165e+00 5.078820000000000334e+00 2.039770000000000039e+01 1.758210000000000051e+00 8.129730000000000345e+00 2.039781999999999940e+01 8.798280000000000101e+00 2.035270000000000135e+00 2.039722000000000079e+01 7.040399999999999991e+00 5.081540000000000390e+00 2.039576999999999884e+01 5.278109999999999857e+00 8.129210000000000491e+00 2.039254000000000033e+01 -1.100000000000000039e-04 8.499999999999999526e-04 1.141117999999999988e+01 -1.759109999999999951e+00 3.048810000000000020e+00 1.141404999999999959e+01 7.041140000000000398e+00 6.094319999999999737e+00 1.141339999999999932e+01 -1.758869999999999933e+00 9.144880000000000564e+00 1.141446000000000005e+01 1.758229999999999960e+00 3.047649999999999970e+00 1.141117000000000026e+01 8.499999999999999526e-04 6.096960000000000157e+00 1.141259999999999941e+01 1.761540000000000106e+00 9.144289999999999807e+00 1.141217999999999932e+01 5.281360000000000277e+00 3.047610000000000152e+00 1.141245999999999938e+01 3.519559999999999800e+00 6.100270000000000081e+00 1.141424999999999912e+01 1.761759999999999993e+00 2.650000000000000012e-03 1.858599999999999852e+01 1.160000000000000007e-03 3.045589999999999797e+00 1.858483999999999980e+01 -1.759160000000000057e+00 6.097780000000000200e+00 1.858998000000000062e+01 5.900000000000000296e-04 9.144579999999999487e+00 1.858365999999999829e+01 3.522740000000000204e+00 3.049459999999999837e+00 1.858528000000000091e+01 1.756450000000000067e+00 6.095780000000000420e+00 1.858643000000000001e+01 8.801569999999999894e+00 1.479999999999999979e-03 1.858786999999999878e+01 7.041699999999999626e+00 3.050399999999999778e+00 1.858801000000000059e+01 5.282250000000000334e+00 6.094780000000000086e+00 1.858421999999999841e+01
2.680000000000000090e-03 2.028939999999999966e+00 9.602240000000000109e+00 -1.757419999999999982e+00 5.080110000000000348e+00 9.604480000000000572e+00 -3.512000000000000011e+00 8.128439999999999444e+00 9.602859999999999729e+00 3.525139999999999940e+00 2.035969999999999835e+00 9.600170000000000314e+00 1.758850000000000025e+00 5.083370000000000388e+00 9.599510000000000431e+00 5.599999999999999509e-04 8.130150000000000432e+00 9.600289999999999324e+00 7.040379999999999860e+00 2.029689999999999994e+00 9.603640000000000398e+00 5.277470000000000105e+00 5.077239999999999753e+00 9.599320000000000519e+00 3.515930000000000000e+00 8.134040000000000603e+00 9.606270000000000309e+00 1.760610000000000008e+00 2.025220000000000020e+00 1.678258999999999901e+01 -2.040000000000000147e-03 5.082060000000000244e+00 1.677423999999999893e+01 -1.757339999999999902e+00 8.127700000000000813e+00 1.677835999999999927e+01 5.283830000000000027e+00 2.024509999999999810e+00 1.677717000000000169e+01 3.517700000000000049e+00 5.080989999999999895e+00 1.678088999999999942e+01 1.758639999999999981e+00 8.128479999999999706e+00 1.678187000000000140e+01 8.800309999999999633e+00 2.026879999999999793e+00 1.678527000000000058e+01 7.039570000000000327e+00 5.085379999999999789e+00 1.677908000000000044e+01 5.276600000000000179e+00 8.132999999999999119e+00 1.677548000000000172e+01 -1.590000000000000050e-03 2.037549999999999972e+00 1.322071000000000041e+01 -1.762329999999999952e+00 5.079019999999999868e+00 1.322179000000000038e+01 -3.522200000000000220e+00 8.130129999999999413e+00 1.322184999999999988e+01 3.515530000000000044e+00 2.030489999999999906e+00 1.322467999999999932e+01 1.761370000000000102e+00 5.077580000000000204e+00 1.322139999999999915e+01 -5.409999999999999878e-03 8.131199999999999761e+00 1.322503999999999991e+01 7.037239999999999718e+00 2.035740000000000105e+00 1.322634000000000043e+01 5.280039999999999623e+00 5.078219999999999956e+00 1.322001000000000026e+01 3.523699999999999832e+00 8.130449999999999733e+00 1.322967000000000048e+01 1.753039999999999932e+00 2.030959999999999877e+00 2.039642999999999873e+01 -2.350000000000000092e-03 5.080910000000000259e+00 2.040178999999999832e+01 -1.757030000000000092e+00 8.126689999999999969e+00 2.039992000000000161e+01 5.283540000000000347e+00 2.034559999999999924e+00 2.039354000000000156e+01 3.516519999999999868e+00 5.076970000000000205e+00 2.039808000000000021e+01 1.756420000000000092e+00 8.130369999999999209e+00 2.039831999999999823e+01 8.796580000000000510e+00 2.038260000000000183e+00 2.039713000000000065e+01 7.040799999999999947e+00 5.082390000000000185e+00 2.039423999999999992e+01 5.276229999999999976e+00 8.129319999999999879e+00 2.038777999999999935e+01 -2.200000000000000078e-04 1.699999999999999905e-03 1.140879999999999939e+01 -1.758229999999999960e+00 3.049199999999999910e+00 1.141450999999999993e+01 7.042270000000000252e+00 6.091829999999999856e+00 1.141320999999999941e+01 -1.757740000000000080e+00 9.144529999999999603e+00 1.141531999999999947e+01 1.756469999999999976e+00 3.046889999999999876e+00 1.140877000000000052e+01 1.690000000000000096e-03 6.097100000000000186e+00 1.141163000000000061e+01 1.763060000000000072e+00 9.143359999999999488e+00 1.141080999999999968e+01 5.282700000000000173e+00 3.046809999999999796e+00 1.141133999999999915e+01 3.519120000000000026e+00 6.103699999999999903e+00 1.141491000000000078e+01 1.763519999999999976e+00 5.270000000000000379e-03 1.858557000000000059e+01 2.309999999999999987e-03 3.042800000000000171e+00 1.858325999999999922e+01 -1.758310000000000040e+00 6.098729999999999762e+00 1.859348999999999918e+01 1.170000000000000033e-03 9.143929999999999225e+00 1.858090999999999937e+01 3.525469999999999882e+00 3.050489999999999924e+00 1.858412999999999826e+01 1.752920000000000034e+00 6.094750000000000334e+00 1.858643000000000001e+01 8.803110000000000213e+00 2.939999999999999905e-03 1.858930000000000149e+01 7.043389999999999596e+00 3.052379999999999871e+00 1.858956999999999837e+01 5.284480000000000288e+00 6.092749999999999666e+00 1.858201000000000036e+01
4.000000000000000083e-03 2.027289999999999814e+00 9.601979999999999293e+00 -1.756129999999999969e+00 5.079819999999999780e+00 9.605339999999999989e+00 -3.508020000000000138e+00 8.128109999999999502e+00 9.602940000000000254e+00 3.527699999999999836e+00 2.037799999999999834e+00 9.598910000000000053e+00 1.758280000000000065e+00 5.084710000000000285e+00 9.597920000000000229e+00 8.499999999999999526e-04 8.130689999999999529e+00 9.599080000000000723e+00 7.040569999999999773e+00 2.028410000000000046e+00 9.604100000000000747e+00 5.276209999999999845e+00 5.075529999999999653e+00 9.597640000000000171e+00 3.513920000000000154e+00 8.136499999999999844e+00 9.608019999999999783e+00 1.760939999999999950e+00 2.021720000000000184e+00 1.678528999999999982e+01 -3.069999999999999812e-03 5.082729999999999748e+00 1.677280999999999977e+01 -1.756029999999999980e+00 8.127000000000000668e+00 1.677898000000000067e+01 5.285739999999999661e+00 2.020659999999999901e+00 1.677719000000000094e+01 3.516539999999999999e+00 5.081140000000000434e+00 1.678275999999999968e+01 1.757980000000000098e+00 8.128170000000000783e+00 1.678423000000000087e+01 8.800470000000000681e+00 2.024199999999999999e+00 1.678931000000000040e+01 7.039380000000000415e+00 5.087720000000000020e+00 1.678004999999999924e+01 5.274919999999999831e+00 8.134940000000000282e+00 1.677468000000000004e+01 -2.370000000000000145e-03 2.040169999999999817e+00 1.321962000000000081e+01 -1.763479999999999936e+00 5.078190000000000204e+00 1.322124999999999950e+01 -3.523299999999999876e+00 8.130639999999999645e+00 1.322132000000000041e+01 3.513310000000000155e+00 2.029609999999999914e+00 1.322555999999999976e+01 1.762049999999999894e+00 5.076039999999999885e+00 1.322064999999999912e+01 -8.089999999999999969e-03 8.132229999999999848e+00 1.322610000000000063e+01 7.035870000000000068e+00 2.037450000000000205e+00 1.322804000000000002e+01 5.280059999999999754e+00 5.076999999999999957e+00 1.321857999999999933e+01 3.525549999999999962e+00 8.131140000000000256e+00 1.323302999999999940e+01 1.749600000000000044e+00 2.030310000000000059e+00 2.039599000000000117e+01 -3.510000000000000099e-03 5.081010000000000026e+00 2.040401999999999916e+01 -1.755549999999999944e+00 8.125519999999999854e+00 2.040121999999999858e+01 5.285300000000000331e+00 2.035699999999999843e+00 2.039166000000000167e+01 3.514790000000000081e+00 5.075140000000000207e+00 2.039844000000000079e+01 1.754639999999999977e+00 8.131009999999999849e+00 2.039881000000000100e+01 8.794879999999999143e+00 2.041240000000000165e+00 2.039705000000000013e+01 7.041190000000000282e+00 5.083249999999999602e+00 2.039273000000000025e+01 5.274379999999999846e+00 8.129429999999999268e+00 2.038303000000000154e+01 -3.200000000000000262e-04 2.550000000000000183e-03 1.140647000000000055e+01 -1.757370000000000099e+00 3.049580000000000179e+00 1.141494999999999926e+01 7.043389999999999596e+00 6.089369999999999727e+00 1.141300000000000026e+01 -1.756620000000000070e+00 9.144199999999999662e+00 1.141616999999999926e+01 1.754750000000000032e+00 3.046139999999999848e+00 1.140638000000000041e+01 2.530000000000000131e-03 6.097240000000000215e+00 1.141069000000000067e+01 1.764550000000000063e+00 9.142440000000000566e+00 1.140949999999999953e+01 5.284010000000000318e+00 3.046009999999999884e+00 1.141023999999999994e+01 3.518689999999999873e+00 6.107099999999999973e+00 1.141555999999999926e+01 1.765269999999999895e+00 7.839999999999999747e-03 1.858515999999999835e+01 3.439999999999999915e-03 3.040070000000000050e+00 1.858170000000000144e+01 -1.757479999999999931e+00 6.099660000000000082e+00 1.859695999999999927e+01 1.740000000000000010e-03 9.143290000000000362e+00 1.857822000000000173e+01 3.528160000000000185e+00 3.051480000000000192e+00 1.858299999999999841e+01 1.749419999999999975e+00 6.093720000000000248e+00 1.858645999999999887e+01 8.804610000000000269e+00 4.389999999999999805e-03 1.859072000000000102e+01 7.045069999999999943e+00 3.054349999999999898e+00 1.859109000000000123e+01 5.286660000000000359e+00 6.090749999999999886e+00 1.857983000000000118e+01
5.309999999999999616e-03 2.025659999999999794e+00 9.601710000000000633e+00 -1.754850000000000021e+00 5.079530000000000101e+00 9.606199999999999406e+00 -3.504059999999999953e+00 8.127769999999999939e+00 9.603030000000000399e+00 3.530240000000000045e+00 2.039610000000000145e+00 9.597659999999999414e+00 1.757719999999999949e+00 5.086059999999999803e+00 9.596339999999999648e+00 1.129999999999999928e-03 8.131209999999999383e+00 9.597889999999999588e+00 7.040790000000000326e+00 2.027130000000000098e+00 9.604549999999999699e+00 5.274960000000000093e+00 5.073850000000000193e+00 9.595980000000000842e+00 3.511929999999999996e+00 8.138939999999999841e+00 9.609740000000000393e+00 1.761279999999999957e+00 2.018260000000000165e+00 1.678794999999999860e+01 -4.100000000000000346e-03 5.083389999999999631e+00 1.677140999999999948e+01 -1.754729999999999901e+00 8.126300000000000523e+00 1.677959999999999852e+01 5.287659999999999805e+00 2.016849999999999810e+00 1.677721000000000018e+01 3.515390000000000015e+00 5.081290000000000084e+00 1.678461000000000070e+01 1.757330000000000059e+00 8.127850000000000463e+00 1.678658000000000072e+01 8.800620000000000331e+00 2.021539999999999893e+00 1.679329999999999856e+01 7.039209999999999745e+00 5.090040000000000120e+00 1.678100999999999843e+01 5.273259999999999614e+00 8.136860000000000426e+00 1.677387999999999835e+01 -3.160000000000000048e-03 2.042769999999999975e+00 1.321854000000000084e+01 -1.764610000000000012e+00 5.077379999999999782e+00 1.322071000000000041e+01 -3.524399999999999977e+00 8.131140000000000256e+00 1.322077999999999953e+01 3.511089999999999822e+00 2.028739999999999988e+00 1.322639999999999993e+01 1.762720000000000065e+00 5.074499999999999567e+00 1.321987999999999985e+01 -1.072999999999999995e-02 8.133259999999999934e+00 1.322714999999999996e+01 7.034519999999999662e+00 2.039140000000000175e+00 1.322972000000000037e+01 5.280079999999999885e+00 5.075770000000000337e+00 1.321714000000000055e+01 3.527379999999999960e+00 8.131840000000000401e+00 1.323637000000000086e+01 1.746199999999999974e+00 2.029679999999999929e+00 2.039555000000000007e+01 -4.669999999999999672e-03 5.081080000000000041e+00 2.040624000000000038e+01 -1.754080000000000084e+00 8.124380000000000379e+00 2.040250999999999948e+01 5.287060000000000315e+00 2.036820000000000075e+00 2.038979000000000141e+01 3.513069999999999915e+00 5.073319999999999830e+00 2.039879000000000175e+01 1.752869999999999928e+00 8.131640000000000867e+00 2.039929000000000059e+01 8.793210000000000193e+00 2.044210000000000083e+00 2.039697999999999922e+01 7.041579999999999728e+00 5.084120000000000417e+00 2.039125999999999905e+01 5.272549999999999848e+00 8.129519999999999413e+00 2.037831999999999866e+01 -4.200000000000000174e-04 3.370000000000000166e-03 1.140418999999999983e+01 -1.756520000000000081e+00 3.049939999999999873e+00 1.141538000000000075e+01 7.044480000000000075e+00 6.086940000000000239e+00 1.141278999999999932e+01 -1.755500000000000060e+00 9.143900000000000361e+00 1.141699000000000019e+01 1.753069999999999906e+00 3.045420000000000016e+00 1.140400999999999954e+01 3.340000000000000087e-03 6.097400000000000375e+00 1.140977999999999959e+01 1.766010000000000080e+00 9.141540000000000887e+00 1.140827999999999953e+01 5.285289999999999822e+00 3.045209999999999972e+00 1.140916999999999959e+01 3.518269999999999786e+00 6.110450000000000159e+00 1.141619999999999990e+01 1.767020000000000035e+00 1.033000000000000064e-02 1.858476999999999890e+01 4.539999999999999765e-03 3.037409999999999943e+00 1.858017999999999859e+01 -1.756639999999999979e+00 6.100579999999999892e+00 1.860035999999999845e+01 2.299999999999999961e-03 9.142649999999999721e+00 1.857562000000000069e+01 3.530780000000000030e+00 3.052430000000000199e+00 1.858190000000000097e+01 1.745959999999999956e+00 6.092690000000000161e+00 1.858651000000000053e+01 8.806039999999999424e+00 5.810000000000000060e-03 1.859215000000000018e+01 7.046730000000000160e+00 3.056299999999999795e+00 1.859254999999999924e+01 5.288780000000000037e+00 6.088799999999999990e+00 1.857768000000000086e+01
6.590000000000000371e-03 2.024039999999999839e+00 9.601399999999999935e+00 -1.753560000000000008e+00 5.079229999999999912e+00 9.607039999999999580e+00 -3.500119999999999898e+00 8.127420000000000755e+00 9.603120000000000545e+00 3.532760000000000122e+00 2.041399999999999881e+00 9.596429999999999794e+00 1.757179999999999964e+00 5.087399999999999700e+00 9.594770000000000465e+00 1.420000000000000038e-03 8.131740000000000634e+00 9.596700000000000230e+00 7.041019999999999612e+00 2.025869999999999838e+00 9.604990000000000805e+00 5.273710000000000342e+00 5.072199999999999598e+00 9.594340000000000757e+00 3.509959999999999969e+00 8.141370000000000218e+00 9.611409999999999343e+00 1.761640000000000095e+00 2.014839999999999964e+00 1.679054999999999964e+01 -5.150000000000000064e-03 5.084019999999999762e+00 1.677001999999999882e+01 -1.753440000000000110e+00 8.125590000000000757e+00 1.678021000000000029e+01 5.289589999999999570e+00 2.013079999999999981e+00 1.677721000000000018e+01 3.514240000000000030e+00 5.081439999999999735e+00 1.678642999999999930e+01 1.756720000000000059e+00 8.127520000000000522e+00 1.678890000000000171e+01 8.800760000000000360e+00 2.018920000000000048e+00 1.679724999999999824e+01 7.039069999999999716e+00 5.092340000000000089e+00 1.678194999999999837e+01 5.271630000000000038e+00 8.138780000000000570e+00 1.677310999999999908e+01 -3.930000000000000333e-03 2.045339999999999936e+00 1.321746000000000087e+01 -1.765719999999999956e+00 5.076570000000000249e+00 1.322017999999999915e+01 -3.525490000000000013e+00 8.131619999999999848e+00 1.322021999999999942e+01 3.508890000000000065e+00 2.027890000000000192e+00 1.322722000000000087e+01 1.763390000000000013e+00 5.072980000000000267e+00 1.321911000000000058e+01 -1.333999999999999943e-02 8.134270000000000778e+00 1.322818000000000005e+01 7.033190000000000275e+00 2.040799999999999947e+00 1.323137000000000008e+01 5.280090000000000394e+00 5.074559999999999960e+00 1.321570999999999962e+01 3.529209999999999958e+00 8.132559999999999789e+00 1.323967000000000027e+01 1.742850000000000010e+00 2.029069999999999929e+00 2.039511999999999858e+01 -5.819999999999999653e-03 5.081120000000000303e+00 2.040842999999999918e+01 -1.752610000000000001e+00 8.123290000000000788e+00 2.040380000000000038e+01 5.288800000000000168e+00 2.037929999999999797e+00 2.038792000000000115e+01 3.511369999999999880e+00 5.071519999999999584e+00 2.039911000000000030e+01 1.751109999999999944e+00 8.132270000000000110e+00 2.039976000000000056e+01 8.791560000000000485e+00 2.047159999999999869e+00 2.039693000000000112e+01 7.041960000000000441e+00 5.084990000000000343e+00 2.038982999999999990e+01 5.270749999999999602e+00 8.129609999999999559e+00 2.037365000000000137e+01 -5.100000000000000366e-04 4.179999999999999688e-03 1.140198999999999963e+01 -1.755700000000000038e+00 3.050279999999999880e+00 1.141577999999999982e+01 7.045530000000000292e+00 6.084550000000000125e+00 1.141254999999999953e+01 -1.754389999999999894e+00 9.143639999999999546e+00 1.141778000000000048e+01 1.751449999999999951e+00 3.044709999999999805e+00 1.140166999999999931e+01 4.129999999999999991e-03 6.097570000000000157e+00 1.140891000000000055e+01 1.767409999999999926e+00 9.140679999999999694e+00 1.140718000000000032e+01 5.286520000000000330e+00 3.044410000000000061e+00 1.140814999999999912e+01 3.517860000000000209e+00 6.113739999999999952e+00 1.141680999999999990e+01 1.768760000000000110e+00 1.271000000000000081e-02 1.858440999999999832e+01 5.599999999999999943e-03 3.034860000000000113e+00 1.857871000000000095e+01 -1.755810000000000093e+00 6.101479999999999571e+00 1.860366000000000142e+01 2.840000000000000076e-03 9.142020000000000479e+00 1.857313999999999865e+01 3.533339999999999925e+00 3.053310000000000191e+00 1.858083999999999847e+01 1.742550000000000043e+00 6.091680000000000206e+00 1.858660000000000068e+01 8.807380000000000209e+00 7.190000000000000210e-03 1.859356999999999971e+01 7.048359999999999737e+00 3.058240000000000069e+00 1.859393000000000029e+01 5.290809999999999569e+00 6.086899999999999977e+00 1.857557999999999865e+01
7.849999999999999339e-03 2.022450000000000081e+00 9.601060000000000372e+00 -1.752280000000000060e+00 5.078929999999999723e+00 9.607849999999999113e+00 -3.496220000000000105e+00 8.127060000000000173e+00 9.603220000000000312e+00 3.535260000000000069e+00 2.043159999999999865e+00 9.595209999999999795e+00 1.756660000000000110e+00 5.088739999999999597e+00 9.593220000000000525e+00 1.709999999999999932e-03 8.132270000000000110e+00 9.595530000000000115e+00 7.041269999999999918e+00 2.024620000000000086e+00 9.605430000000000135e+00 5.272459999999999702e+00 5.070579999999999643e+00 9.592739999999999156e+00 3.508030000000000204e+00 8.143769999999999953e+00 9.613030000000000186e+00 1.762040000000000051e+00 2.011470000000000091e+00 1.679308999999999941e+01 -6.210000000000000242e-03 5.084629999999999761e+00 1.676866000000000057e+01 -1.752189999999999914e+00 8.124869999999999592e+00 1.678079999999999927e+01 5.291520000000000223e+00 2.009380000000000166e+00 1.677720000000000056e+01 3.513090000000000046e+00 5.081599999999999895e+00 1.678821999999999903e+01 1.756140000000000034e+00 8.127190000000000580e+00 1.679119999999999990e+01 8.800900000000000389e+00 2.016319999999999890e+00 1.680112000000000094e+01 7.038979999999999571e+00 5.094610000000000305e+00 1.678286999999999907e+01 5.270039999999999836e+00 8.140670000000000073e+00 1.677234999999999943e+01 -4.700000000000000185e-03 2.047870000000000079e+00 1.321639000000000053e+01 -1.766799999999999926e+00 5.075779999999999959e+00 1.321965999999999930e+01 -3.526580000000000048e+00 8.132080000000000197e+00 1.321963000000000044e+01 3.506709999999999994e+00 2.027060000000000084e+00 1.322799999999999976e+01 1.764049999999999896e+00 5.071469999999999700e+00 1.321831000000000067e+01 -1.590000000000000094e-02 8.135249999999999204e+00 1.322917999999999950e+01 7.031880000000000130e+00 2.042429999999999968e+00 1.323298999999999914e+01 5.280090000000000394e+00 5.073360000000000092e+00 1.321427000000000085e+01 3.531019999999999825e+00 8.133290000000000575e+00 1.324292999999999942e+01 1.739570000000000061e+00 2.028480000000000061e+00 2.039469000000000065e+01 -6.949999999999999581e-03 5.081129999999999924e+00 2.041060999999999837e+01 -1.751160000000000050e+00 8.122239999999999682e+00 2.040506999999999849e+01 5.290519999999999889e+00 2.039019999999999833e+00 2.038607000000000014e+01 3.509689999999999976e+00 5.069749999999999979e+00 2.039940999999999960e+01 1.749370000000000092e+00 8.132899999999999352e+00 2.040021000000000129e+01 8.789949999999999264e+00 2.050089999999999968e+00 2.039690999999999832e+01 7.042329999999999757e+00 5.085880000000000400e+00 2.038844999999999885e+01 5.269009999999999749e+00 8.129670000000000840e+00 2.036901999999999902e+01 -5.999999999999999474e-04 4.969999999999999592e-03 1.139987999999999957e+01 -1.754909999999999970e+00 3.050590000000000135e+00 1.141614000000000040e+01 7.046549999999999869e+00 6.082209999999999894e+00 1.141228000000000087e+01 -1.753279999999999950e+00 9.143409999999999371e+00 1.141853000000000051e+01 1.749910000000000077e+00 3.044029999999999792e+00 1.139935000000000009e+01 4.890000000000000249e-03 6.097760000000000069e+00 1.140809999999999924e+01 1.768750000000000044e+00 9.139849999999999142e+00 1.140624000000000038e+01 5.287700000000000067e+00 3.043620000000000214e+00 1.140717000000000070e+01 3.517469999999999875e+00 6.116959999999999731e+00 1.141741000000000028e+01 1.770480000000000054e+00 1.494999999999999975e-02 1.858408999999999978e+01 6.610000000000000424e-03 3.032430000000000181e+00 1.857731000000000066e+01 -1.754990000000000050e+00 6.102350000000000385e+00 1.860685000000000144e+01 3.360000000000000139e-03 9.141389999999999461e+00 1.857079999999999842e+01 3.535810000000000120e+00 3.054100000000000037e+00 1.857982000000000156e+01 1.739200000000000079e+00 6.090670000000000250e+00 1.858673999999999893e+01 8.808600000000000207e+00 8.529999999999999388e-03 1.859498999999999924e+01 7.049959999999999560e+00 3.060150000000000148e+00 1.859522000000000119e+01 5.292740000000000222e+00 6.085079999999999600e+00 1.857355000000000089e+01