-3.386759015100000170e+02
-3.386731738199999882e+02
-3.386648158699999840e+02
-3.386510280699999953e+02
-3.386321444700000143e+02
-3.386086204399999815e+02
-3.385810117999999989e+02
-3.385499444299999823e+02
-3.385160977099999968e+02
-3.384801739700000098e+02
-3.372293322900000021e+02
-3.372275018700000260e+02
-3.372212595999999962e+02
-3.372107666100000074e+02
-3.371963166300000125e+02
-3.371783227999999895e+02
-3.371572958699999845e+02
-3.371338289700000246e+02
-3.371085663900000213e+02
-3.370821924800000033e+02
-3.372069448699999725e+02
-3.372183284899999762e+02
-3.372313883599999826e+02
-3.372460058799999842e+02
-3.372621416599999975e+02
-3.372798358699999994e+02
-3.372991848899999923e+02
-3.373203160099999991e+02
-3.373433628700000213e+02
-3.373684341399999767e+02
-3.379555164600000126e+02
-3.379545639500000220e+02
-3.379505523799999764e+02
-3.379435986799999796e+02
-3.379339045899999974e+02
-3.379217609899999957e+02
-3.379075231200000076e+02
-3.378916064399999755e+02
-3.378744700500000135e+02
-3.378565919700000109e+02
-3.379414568199999849e+02
-3.379454413799999770e+02
-3.379461900499999842e+02
-3.379437769699999876e+02
-3.379383522800000037e+02
-3.379301465400000097e+02
-3.379194583099999818e+02
-3.379066482800000131e+02
-3.378921165699999847e+02
-3.378762998600000174e+02
-3.379377537799999800e+02
-3.379432389199999989e+02
-3.379477673000000095e+02
-3.379513292400000068e+02
-3.379540082899999902e+02
-3.379559676700000068e+02
-3.379574328200000082e+02
-3.379586768600000255e+02
-3.379600011399999744e+02
-3.379617083599999887e+02
-3.382962930599999822e+02
-3.382985659400000031e+02
-3.382964770899999962e+02
-3.382901363600000195e+02
-3.382797727000000236e+02
-3.382657221700000036e+02
-3.382484154300000228e+02
-3.382283523300000070e+02
-3.382060838200000035e+02
-3.381821919399999956e+02
-3.380034299999999803e+02
-3.380047268399999894e+02
-3.380019712199999731e+02
-3.379953570100000206e+02
-3.379852160799999865e+02
-3.379720010699999762e+02
-3.379562719799999968e+02
-3.379386610799999744e+02
-3.379198532400000090e+02
-3.379005637299999876e+02
-3.376222960800000124e+02
-3.376309925499999736e+02
-3.376377883700000098e+02
-3.376426674400000252e+02
-3.376456837900000210e+02
-3.376469635899999844e+02
-3.376466972100000135e+02
-3.376451333900000122e+02
-3.376425682500000107e+02
-3.376393304599999965e+02
-3.383409635900000012e+02
-3.383442671099999757e+02
-3.383428979700000241e+02
-3.383369753800000126e+02
-3.383267445999999836e+02
-3.383125614499999756e+02
-3.382948792700000240e+02
-3.382742319000000180e+02
-3.382512118399999963e+02
-3.382264448199999833e+02
-3.367327053800000272e+02
-3.367272288899999921e+02
-3.367239731000000234e+02
-3.367230495900000165e+02
-3.367245833700000048e+02
-3.367286984699999834e+02
-3.367355245499999796e+02
-3.367451874299999872e+02
-3.367578048799999806e+02
-3.367734818900000278e+02
-3.382565655799999718e+02
-3.382538980400000241e+02
-3.382463758399999847e+02
-3.382342255099999875e+02
-3.382178173199999947e+02
-3.381976375799999914e+02
-3.381742680500000233e+02
-3.381483675200000221e+02
-3.381206437999999821e+02
-3.380918239000000085e+02
-3.377923240100000157e+02
-3.377971101300000214e+02
-3.377998752400000058e+02
-3.378005829499999777e+02
-3.377992652699999780e+02
-3.377960105500000054e+02
-3.377909695000000170e+02
-3.377843458099999907e+02
-3.377763858100000220e+02
-3.377673751500000208e+02
-3.375706327999999985e+02
-3.375788784700000065e+02
-3.375868085899999755e+02
-3.375943631399999845e+02
-3.376015087700000095e+02
-3.376082415199999787e+02
-3.376145863099999929e+02
-3.376205920599999786e+02
-3.376263343499999792e+02
-3.376319038699999737e+02
-3.359785837200000174e+02
-3.359898663600000077e+02
-3.360079548200000090e+02
-3.360325894299999732e+02
-3.360634775199999922e+02
-3.361002752300000225e+02
-3.361425782300000265e+02
-3.361899124799999754e+02
-3.362417141000000242e+02
-3.362973318499999777e+02
-3.380641143999999940e+02
-3.380612907400000040e+02
-3.380556958199999826e+02
-3.380474926800000048e+02
-3.380369265799999994e+02
-3.380243086899999980e+02
-3.380100092000000132e+02
-3.379944423300000267e+02
-3.379780532300000004e+02
-3.379613044299999842e+02
-3.379310757200000239e+02
-3.379319339300000138e+02
-3.379306923400000073e+02
-3.379274928799999884e+02
-3.379225398799999880e+02
-3.379161068399999976e+02
-3.379085176899999965e+02
-3.379001385099999766e+02
-3.378913630700000112e+02
-3.378826030000000173e+02
-3.374657771299999922e+02
-3.374678514999999948e+02
-3.374715804599999842e+02
-3.374770314699999858e+02
-3.374843077900000026e+02
-3.374935547700000029e+02
-3.375049384899999723e+02
-3.375186128799999778e+02
-3.375347007699999722e+02
-3.375532755099999918e+02
-3.385297002300000031e+02
-3.385260698600000069e+02
-3.385176978800000143e+02
-3.385048162200000093e+02
-3.384877592099999788e+02
-3.384669558699999925e+02
-3.384429103699999928e+02
-3.384161812099999906e+02
-3.383873601099999746e+02
-3.383570559500000172e+02
-3.372172668499999872e+02
-3.372105099099999848e+02
-3.372055945999999835e+02
-3.372026337099999864e+02
-3.372017280700000015e+02
-3.372029693900000211e+02
-3.372064316099999814e+02
-3.372121735299999727e+02
-3.372202318899999796e+02
-3.372306190799999968e+02
-3.381321052000000122e+02
-3.381304451500000141e+02
-3.381235218499999746e+02
-3.381115448099999981e+02
-3.380948671699999863e+02
-3.380739645599999790e+02
-3.380494187699999884e+02
-3.380218916700000023e+02
-3.379920960499999865e+02
-3.379607751199999939e+02
-3.368075196600000254e+02
-3.368219656399999735e+02
-3.368408320500000173e+02
-3.368638460500000065e+02
-3.368907180499999754e+02
-3.369211358399999767e+02
-3.369547540899999944e+02
-3.369911988599999972e+02
-3.370300644800000214e+02
-3.370709082399999943e+02
-3.378305515700000115e+02
-3.378314932499999941e+02
-3.378324973300000238e+02
-3.378335318100000109e+02
-3.378346143800000050e+02
-3.378358161300000120e+02
-3.378372491100000161e+02
-3.378390488399999754e+02
-3.378413773099999844e+02
-3.378443908099999931e+02
-3.381320383699999752e+02
-3.381323245699999802e+02
-3.381293474400000036e+02
-3.381231967300000179e+02
-3.381140489599999910e+02
-3.381021509199999855e+02
-3.380878142999999909e+02
-3.380714054399999782e+02
-3.380533278899999914e+02
-3.380340090600000167e+02
-3.383109788300000105e+02
-3.383085366299999919e+02
-3.383009290900000110e+02
-3.382883302000000185e+02
-3.382710287400000198e+02
-3.382494225699999788e+02
-3.382240084700000011e+02
-3.381953389399999992e+02
-3.381640165200000183e+02
-3.381306645799999728e+02
-3.375821545900000160e+02
-3.375947407300000123e+02
-3.376057933100000241e+02
-3.376151054900000190e+02
-3.376225482300000067e+02
-3.376280798199999822e+02
-3.376317360799999960e+02
-3.376336256299999832e+02
-3.376339211000000091e+02
-3.376328377300000056e+02
-3.375759155100000157e+02
-3.375769304400000124e+02
-3.375741205200000081e+02
-3.375677697799999919e+02
-3.375583210199999940e+02
-3.375463471400000230e+02
-3.375325223199999982e+02
-3.375175903100000028e+02
-3.375023245500000257e+02
-3.374874964100000057e+02
-3.378106584399999974e+02
-3.378045912499999872e+02
-3.377953703800000085e+02
-3.377832079099999874e+02
-3.377683906799999818e+02
-3.377512682500000096e+02
-3.377322417899999891e+02
-3.377117510400000242e+02
-3.376902503599999932e+02
-3.376682045499999845e+02
-3.374179049300000202e+02
-3.374240224499999954e+02
-3.374315826800000195e+02
-3.374405667699999753e+02
-3.374509793500000114e+02
-3.374628435299999865e+02
-3.374761856900000225e+02
-3.374910341699999776e+02
-3.375074057699999912e+02
-3.375252992599999970e+02
-3.379176885800000036e+02
-3.379181911900000159e+02
-3.379131625100000065e+02
-3.379027453699999910e+02
-3.378872481000000221e+02
-3.378671276200000193e+02
-3.378429563299999927e+02
-3.378154062899999985e+02
-3.377852137500000254e+02
-3.377531554099999767e+02
-3.379085446099999785e+02
-3.378971334500000125e+02
-3.378825931999999739e+02
-3.378652398699999821e+02
-3.378454901200000222e+02
-3.378238324999999804e+02
-3.378008129599999734e+02
-3.377770210699999893e+02
-3.377530686299999729e+02
-3.377295756199999914e+02
-3.365124437100000137e+02
-3.365176635099999771e+02
-3.365286004000000162e+02
-3.365451109100000053e+02
-3.365670456700000273e+02
-3.365942369399999734e+02
-3.366264842499999759e+02
-3.366635389099999998e+02
-3.367050811299999964e+02
-3.367507003000000054e+02
-3.360539962199999877e+02
-3.360685116600000129e+02
-3.360934212199999820e+02
-3.361282652300000109e+02
-3.361724103999999897e+02
-3.362250527699999907e+02
-3.362852122699999882e+02
-3.363517445800000019e+02
-3.364233571600000232e+02
-3.364986491700000215e+02
-3.382665903299999854e+02
-3.382661090899999863e+02
-3.382615091200000279e+02
-3.382529172600000038e+02
-3.382405648899999733e+02
-3.382247826999999916e+02
-3.382059793600000148e+02
-3.381846262600000159e+02
-3.381612356499999805e+02
-3.381363330799999858e+02
-3.363947473299999729e+02
-3.364005179000000112e+02
-3.364143248999999969e+02
-3.364360109099999931e+02
-3.364653910700000097e+02
-3.365022342199999912e+02
-3.365462324900000226e+02
-3.365969853700000272e+02
-3.366539570300000150e+02
-3.367164607199999864e+02
-3.373683813299999770e+02
-3.373794058999999947e+02
-3.373926187299999810e+02
-3.374079699999999775e+02
-3.374254494799999975e+02
-3.374450752999999850e+02
-3.374668758199999843e+02
-3.374908695099999818e+02
-3.375170483200000149e+02
-3.375453534000000104e+02
-3.383207220400000210e+02
-3.383153207600000201e+02
-3.383061450899999727e+02
-3.382934550900000090e+02
-3.382775945099999717e+02
-3.382589802499999792e+02
-3.382380791799999997e+02
-3.382153918600000111e+02
-3.381914294800000107e+02
-3.381666991999999823e+02
-3.382195499700000028e+02
-3.382182504699999868e+02
-3.382115656799999783e+02
-3.381996824899999865e+02
-3.381829253899999799e+02
-3.381617310500000144e+02
-3.381366418100000146e+02
-3.381082684300000096e+02
-3.380772715800000014e+02
-3.380443365799999924e+02
-3.375271197899999720e+02
-3.375220502299999907e+02
-3.375170791699999882e+02
-3.375123666800000137e+02
-3.375081087699999784e+02
-3.375045364299999733e+02
-3.375019150699999955e+02
-3.375005305500000077e+02
-3.375006853500000261e+02
-3.375026894000000084e+02
-3.378262656200000151e+02
-3.378278147699999749e+02
-3.378252371099999891e+02
-3.378187238900000011e+02
-3.378086028000000169e+02
-3.377953272600000219e+02
-3.377794558699999925e+02
-3.377616252400000008e+02
-3.377425310899999999e+02
-3.377228984600000103e+02
-3.378516473799999744e+02
-3.378501646600000186e+02
-3.378448143200000118e+02
-3.378358883899999796e+02
-3.378238146900000061e+02
-3.378091361599999800e+02
-3.377924773099999811e+02
-3.377745235300000104e+02
-3.377559884400000101e+02
-3.377375796399999786e+02
-3.361239644699999758e+02
-3.361281328100000110e+02
-3.361416918200000055e+02
-3.361644630299999790e+02
-3.361961615899999742e+02
-3.362363871700000004e+02
-3.362846169300000270e+02
-3.363401836699999876e+02
-3.364022760999999946e+02
-3.364699279199999751e+02
-3.373235651200000120e+02
-3.373397392599999876e+02
-3.373551284999999780e+02
-3.373695759099999805e+02
-3.373829956800000218e+02
-3.373953791499999966e+02
-3.374067973800000004e+02
-3.374173974099999782e+02
-3.374273923000000082e+02
-3.374370533300000261e+02
-3.378205170900000098e+02
-3.378174708299999907e+02
-3.378108571099999722e+02
-3.378008603100000187e+02
-3.377877675799999793e+02
-3.377719615199999907e+02
-3.377538980400000241e+02
-3.377340836299999864e+02
-3.377130712100000096e+02
-3.376914284000000066e+02
-3.377028620899999964e+02
-3.377000814099999957e+02
-3.376939470199999960e+02
-3.376846717199999830e+02
-3.376725572700000271e+02
-3.376579869000000258e+02
-3.376414058700000282e+02
-3.376233044100000029e+02
-3.376041983900000218e+02
-3.375846142799999825e+02
-3.378735776999999985e+02
-3.378763727699999890e+02
-3.378770680999999740e+02
-3.378757498200000100e+02
-3.378725723900000162e+02
-3.378677455999999779e+02
-3.378615312100000097e+02
-3.378542271599999935e+02
-3.378461617699999806e+02
-3.378376719500000149e+02
-3.381103759100000161e+02
-3.381073678000000200e+02
-3.380998948800000221e+02
-3.380881005100000039e+02
-3.380722675200000253e+02
-3.380528108999999972e+02
-3.380302462299999888e+02
-3.380051829799999723e+02
-3.379782940399999802e+02
-3.379502922199999944e+02
-3.380868477700000199e+02
-3.380905493099999717e+02
-3.380898722399999770e+02
-3.380848219499999914e+02
-3.380755434299999820e+02
-3.380623161799999821e+02
-3.380455315099999893e+02
-3.380256801099999961e+02
-3.380033119899999861e+02
-3.379790237400000024e+02
-3.376122909000000050e+02
-3.376197983199999726e+02
-3.376266786499999739e+02
-3.376329298599999902e+02
-3.376386104900000191e+02
-3.376438406099999838e+02
-3.376487779400000022e+02
-3.376536171899999772e+02
-3.376585724799999753e+02
-3.376638517900000238e+02
-3.382955170000000180e+02
-3.382990378800000144e+02
-3.382989511499999935e+02
-3.382952439499999855e+02
-3.382879966400000171e+02
-3.382773739400000181e+02
-3.382636167000000000e+02
-3.382470383300000094e+02
-3.382280060100000014e+02
-3.382069280499999877e+02
