9.999999999999999547e-07 3.624000000000000051e-03 5.494999999999999885e-03 -1.999999999999999909e-06 3.618999999999999821e-03 5.494999999999999885e-03 9.999999999999999547e-07 3.621999999999999786e-03 5.496000000000000017e-03 -3.000000000000000076e-06 3.621000000000000087e-03 5.497000000000000150e-03 1.999999999999999909e-06 3.618999999999999821e-03 5.493999999999999752e-03 -9.999999999999999547e-07 3.625000000000000184e-03 5.492999999999999619e-03 9.999999999999999547e-07 3.621999999999999786e-03 5.494999999999999885e-03 9.999999999999999547e-07 3.621000000000000087e-03 5.493999999999999752e-03 -9.999999999999999547e-07 3.621999999999999786e-03 5.494999999999999885e-03 9.999999999999999547e-07 -3.242999999999999789e-03 9.952000000000000776e-03 -9.999999999999999547e-07 -3.240999999999999957e-03 9.948999999999999511e-03 -9.999999999999999547e-07 -3.243999999999999922e-03 9.948999999999999511e-03 -9.999999999999999547e-07 -3.242999999999999789e-03 9.946999999999999245e-03 0.000000000000000000e+00 -3.242999999999999789e-03 9.946999999999999245e-03 3.000000000000000076e-06 -3.240999999999999957e-03 9.945000000000000714e-03 -9.999999999999999547e-07 -3.246000000000000187e-03 9.948999999999999511e-03 1.999999999999999909e-06 -3.242999999999999789e-03 9.948999999999999511e-03 -9.999999999999999547e-07 -3.239000000000000126e-03 9.948999999999999511e-03 0.000000000000000000e+00 -3.243999999999999922e-03 -9.698999999999999289e-03 -3.000000000000000076e-06 -3.242999999999999789e-03 -9.698000000000000023e-03 0.000000000000000000e+00 -3.243999999999999922e-03 -9.700000000000000289e-03 9.999999999999999547e-07 -3.242999999999999789e-03 -9.700000000000000289e-03 1.999999999999999909e-06 -3.246000000000000187e-03 -9.698999999999999289e-03 -9.999999999999999547e-07 -3.239999999999999825e-03 -9.700000000000000289e-03 1.999999999999999909e-06 -3.242999999999999789e-03 -9.700000000000000289e-03 9.999999999999999547e-07 -3.242000000000000090e-03 -9.700000000000000289e-03 9.999999999999999547e-07 -3.242999999999999789e-03 -9.700000000000000289e-03 9.999999999999999547e-07 3.621999999999999786e-03 -5.588000000000000085e-03 -3.000000000000000076e-06 3.621000000000000087e-03 -5.586999999999999952e-03 -1.999999999999999909e-06 3.621000000000000087e-03 -5.586999999999999952e-03 0.000000000000000000e+00 3.624000000000000051e-03 -5.584999999999999687e-03 -9.999999999999999547e-07 3.621000000000000087e-03 -5.586999999999999952e-03 3.999999999999999819e-06 3.621000000000000087e-03 -5.585999999999999820e-03 9.999999999999999547e-07 3.621000000000000087e-03 -5.585999999999999820e-03 0.000000000000000000e+00 3.622999999999999918e-03 -5.588000000000000085e-03 0.000000000000000000e+00 3.621999999999999786e-03 -5.588000000000000085e-03 3.999999999999999819e-06 -3.119999999999999944e-04 2.739999999999999923e-04 -3.000000000000000076e-06 -3.130000000000000187e-04 2.709999999999999735e-04 0.000000000000000000e+00 -3.130000000000000187e-04 2.709999999999999735e-04 -1.999999999999999909e-06 -3.139999999999999888e-04 2.719999999999999979e-04 -3.000000000000000076e-06 -3.119999999999999944e-04 2.689999999999999791e-04 9.999999999999999547e-07 -3.119999999999999944e-04 2.680000000000000090e-04 -3.000000000000000076e-06 -3.119999999999999944e-04 2.730000000000000222e-04 -9.999999999999999547e-07 -3.130000000000000187e-04 2.709999999999999735e-04 3.999999999999999819e-06 -3.150000000000000131e-04 2.730000000000000222e-04 -3.000000000000000076e-06 -3.119999999999999944e-04 -4.319999999999999838e-04 3.999999999999999819e-06 -3.110000000000000243e-04 -4.339999999999999782e-04 -9.999999999999999547e-07 -3.159999999999999832e-04 -4.279999999999999950e-04 3.000000000000000076e-06 -3.170000000000000075e-04 -4.299999999999999894e-04 -5.000000000000000409e-06 -3.119999999999999944e-04 -4.279999999999999950e-04 0.000000000000000000e+00 -3.179999999999999776e-04 -4.260000000000000006e-04 -3.000000000000000076e-06 -3.179999999999999776e-04 -4.290000000000000193e-04 1.999999999999999909e-06 -3.119999999999999944e-04 -4.299999999999999894e-04 -1.999999999999999909e-06 -3.130000000000000187e-04 -4.290000000000000193e-04
-1.984299999999999953e-02 1.989799999999999902e-02 -1.931499999999999884e-02 -2.151000000000000134e-03 -1.672000000000000092e-03 -1.238700000000000044e-02 -2.404200000000000087e-02 -5.405000000000000082e-03 9.015000000000000444e-03 -1.816900000000000112e-02 -1.865899999999999850e-02 1.731699999999999906e-02 1.268900000000000063e-02 1.165000000000000020e-03 1.757299999999999834e-02 1.315999999999999896e-03 4.889999999999999599e-04 1.453899999999999984e-02 1.467899999999999934e-02 1.307799999999999935e-02 -2.713000000000000134e-03 5.591999999999999749e-03 2.805300000000000155e-02 2.807700000000000126e-02 2.579199999999999895e-02 -1.487600000000000033e-02 -3.436000000000000165e-02 2.065200000000000022e-02 3.542300000000000310e-02 -3.940599999999999659e-02 -8.434000000000000524e-03 -2.289899999999999922e-02 2.714199999999999946e-02 -1.713999999999999899e-02 -6.154999999999999881e-03 9.380000000000000317e-04 3.690999999999999837e-03 4.149599999999999816e-02 -1.840000000000000001e-04 3.959999999999999762e-04 -1.962999999999999901e-03 -1.594599999999999837e-02 2.346900000000000028e-02 -9.086000000000000326e-03 -1.323599999999999950e-02 -4.141999999999999849e-03 2.322400000000000159e-02 -4.044899999999999884e-02 2.860499999999999848e-02 -2.166200000000000070e-02 -7.765000000000000201e-03 2.508799999999999919e-02 -1.725499999999999950e-02 2.277399999999999911e-02 5.904000000000000394e-03 -2.917300000000000101e-02 -3.274000000000000000e-03 2.117300000000000085e-02 8.127000000000000543e-03 -1.588999999999999918e-03 2.821999999999999856e-03 -1.583400000000000085e-02 -2.279899999999999982e-02 1.318399999999999954e-02 1.234299999999999981e-02 -3.648599999999999760e-02 -6.225999999999999764e-03 8.495000000000000814e-03 -1.844200000000000006e-02 3.706899999999999779e-02 -1.806999999999999926e-02 -2.533099999999999935e-02 1.746899999999999842e-02 -2.764000000000000137e-02 -3.552099999999999702e-02 -4.797000000000000049e-03 4.571999999999999675e-03 -6.291999999999999850e-03 -1.042099999999999971e-02 1.011500000000000073e-02 -4.115100000000000008e-02 5.025199999999999806e-02 1.870499999999999940e-02 -1.775000000000000102e-03 9.681999999999999634e-03 -2.434400000000000105e-02 -2.120100000000000109e-02 -8.167999999999999913e-03 3.968800000000000106e-02 -1.217500000000000006e-02 -1.173100000000000011e-02 -1.200000000000000025e-02 3.729999999999999809e-03 1.506799999999999980e-02 2.465200000000000030e-02 -2.479800000000000060e-02 1.392400000000000061e-02 -1.010999999999999963e-03 -1.720599999999999907e-02 2.362500000000000017e-02 -1.370299999999999990e-02 1.181399999999999985e-02 -6.647000000000000131e-03 8.184999999999999568e-03 3.288900000000000157e-02 3.185099999999999737e-02 -9.091000000000000122e-03 3.086799999999999961e-02 3.710000000000000190e-03 -1.196499999999999994e-02 5.129500000000000032e-02 -1.638900000000000079e-02 -1.471699999999999918e-02 -1.681399999999999909e-02 -2.153300000000000006e-02 2.890099999999999961e-02 -1.316499999999999962e-02 -5.141999999999999869e-03 2.177300000000000069e-02 -2.104500000000000121e-02 4.046500000000000097e-02 1.469900000000000026e-02 1.835499999999999979e-02 -1.541999999999999968e-02 8.829000000000000042e-03 2.950799999999999951e-02 -3.366500000000000048e-02 1.838599999999999957e-02 7.890500000000000291e-02 -3.209100000000000147e-02 6.599999999999999964e-04 2.659500000000000058e-02 9.246000000000000746e-03 -4.090799999999999992e-02 -1.259500000000000029e-02 -6.341000000000000282e-03 -6.896900000000000253e-02 1.926399999999999987e-02 -2.483600000000000044e-02 6.731299999999999784e-02 3.382600000000000190e-02 -4.425000000000000114e-03 -1.593200000000000172e-02 -6.158899999999999791e-02 -1.137900000000000023e-02 4.074000000000000364e-03 7.441799999999999804e-02 -4.908599999999999769e-02 -4.307400000000000118e-02 2.524300000000000155e-02 3.613600000000000145e-02 5.625999999999999925e-03 2.502700000000000063e-02 -5.882500000000000229e-02 -2.426700000000000038e-02 -2.485999999999999929e-03 -1.764100000000000043e-02 -1.415300000000000065e-02 -4.907099999999999657e-02 -5.532000000000000112e-02 3.765600000000000197e-02 3.157900000000000290e-02
-3.963400000000000256e-02 3.611899999999999833e-02 -4.437499999999999778e-02 -4.270999999999999623e-03 -6.974000000000000164e-03 -3.032400000000000026e-02 -4.810400000000000093e-02 -1.426799999999999943e-02 1.239499999999999977e-02 -3.640000000000000180e-02 -4.070800000000000113e-02 2.863800000000000026e-02 2.520400000000000071e-02 -1.356000000000000000e-03 2.937800000000000133e-02 2.739000000000000115e-03 -2.556000000000000112e-03 2.356700000000000114e-02 2.921599999999999892e-02 2.242800000000000002e-02 -1.096500000000000079e-02 1.123200000000000066e-02 5.218199999999999922e-02 5.016400000000000026e-02 5.179000000000000270e-02 -3.354399999999999743e-02 -7.458199999999999552e-02 4.129000000000000031e-02 7.472299999999999776e-02 -8.937900000000000011e-02 -1.659800000000000164e-02 -4.228699999999999820e-02 4.388600000000000140e-02 -3.418600000000000111e-02 -9.091000000000000122e-03 -8.264000000000000512e-03 7.087000000000000417e-03 8.636199999999999433e-02 -1.067399999999999946e-02 6.579999999999999478e-04 -7.069999999999999462e-04 -4.172100000000000114e-02 4.696399999999999880e-02 -1.525899999999999999e-02 -3.676399999999999807e-02 -8.387000000000000358e-03 5.009399999999999964e-02 -9.146300000000000263e-02 5.736499999999999932e-02 -4.020800000000000068e-02 -2.601600000000000093e-02 4.990399999999999697e-02 -3.122799999999999881e-02 3.513100000000000250e-02 1.194800000000000029e-02 -5.498299999999999715e-02 3.371999999999999997e-03 4.215300000000000297e-02 1.940100000000000158e-02 6.764000000000000047e-03 5.701000000000000338e-03 -2.826199999999999893e-02 -3.572600000000000081e-02 2.610900000000000026e-02 2.765499999999999903e-02 -6.266900000000000248e-02 -1.234599999999999934e-02 2.023700000000000152e-02 -2.696799999999999892e-02 7.376599999999999824e-02 -3.291299999999999781e-02 -4.023899999999999699e-02 3.483800000000000091e-02 -5.159600000000000297e-02 -6.070199999999999901e-02 -9.596000000000000363e-03 1.244100000000000067e-02 -2.713999999999999833e-03 -2.078599999999999892e-02 2.313099999999999878e-02 -7.231500000000000428e-02 9.984300000000000119e-02 3.343299999999999744e-02 2.748000000000000009e-03 1.936699999999999880e-02 -5.162300000000000222e-02 -3.611600000000000227e-02 -1.622799999999999937e-02 7.540700000000000180e-02 -1.814699999999999994e-02 -2.341000000000000025e-02 -2.741800000000000140e-02 1.312999999999999931e-02 2.971599999999999936e-02 4.517600000000000088e-02 -4.352199999999999819e-02 2.758899999999999894e-02 -5.702999999999999736e-03 -2.833300000000000055e-02 4.731599999999999695e-02 -3.097199999999999953e-02 2.955699999999999994e-02 -1.341499999999999984e-02 1.275100000000000018e-02 7.158799999999999886e-02 6.425500000000000655e-02 -2.206699999999999981e-02 6.804699999999999638e-02 7.540999999999999960e-03 -2.360299999999999898e-02 1.020110000000000045e-01 -3.272800000000000015e-02 -2.907300000000000162e-02 -3.396699999999999720e-02 -4.289400000000000157e-02 5.795700000000000157e-02 -2.646899999999999947e-02 -1.035299999999999936e-02 4.358200000000000268e-02 -4.209100000000000341e-02 8.059600000000000097e-02 2.960099999999999884e-02 3.645500000000000129e-02 -3.059800000000000020e-02 1.788999999999999965e-02 5.831999999999999684e-02 -6.744400000000000395e-02 3.719900000000000290e-02 1.566839999999999899e-01 -6.354200000000000126e-02 1.740999999999999926e-03 5.249999999999999806e-02 1.833200000000000107e-02 -8.100400000000000655e-02 -2.514200000000000115e-02 -1.260999999999999968e-02 -1.377770000000000106e-01 3.956099999999999894e-02 -4.940499999999999753e-02 1.340540000000000065e-01 6.760800000000000143e-02 -8.765999999999999487e-03 -3.135299999999999893e-02 -1.224129999999999940e-01 -2.290100000000000122e-02 8.423999999999999197e-03 1.491129999999999955e-01 -9.736699999999999522e-02 -8.532599999999999907e-02 5.023500000000000187e-02 7.194899999999999907e-02 1.142499999999999939e-02 5.015100000000000113e-02 -1.176729999999999998e-01 -4.809800000000000186e-02 -4.689999999999999725e-03 -3.522800000000000237e-02 -2.782000000000000098e-02 -9.754599999999999382e-02 -1.103689999999999949e-01 7.546799999999999342e-02 6.338499999999999690e-02
-5.921599999999999780e-02 5.216400000000000203e-02 -6.941500000000000448e-02 -6.372000000000000060e-03 -1.216800000000000000e-02 -4.810799999999999799e-02 -7.191400000000000570e-02 -2.291400000000000034e-02 1.557900000000000083e-02 -5.440299999999999997e-02 -6.235700000000000270e-02 3.951899999999999857e-02 3.751800000000000274e-02 -3.795999999999999895e-03 4.103899999999999909e-02 4.107999999999999673e-03 -5.564000000000000369e-03 3.259100000000000191e-02 4.333100000000000146e-02 3.178000000000000269e-02 -1.908899999999999833e-02 1.679500000000000090e-02 7.577699999999999714e-02 7.175199999999999634e-02 7.783400000000000041e-02 -5.241799999999999932e-02 -1.147460000000000008e-01 6.156799999999999773e-02 1.141810000000000047e-01 -1.396860000000000046e-01 -2.444800000000000098e-02 -6.123100000000000070e-02 6.009799999999999864e-02 -5.099299999999999666e-02 -1.205600000000000074e-02 -1.744499999999999870e-02 1.019399999999999994e-02 1.308310000000000028e-01 -2.179000000000000034e-02 8.779999999999999827e-04 7.450000000000000025e-04 -6.740899999999999670e-02 7.042900000000000549e-02 -2.163100000000000092e-02 -6.022600000000000176e-02 -1.258100000000000017e-02 7.686500000000000277e-02 -1.425480000000000080e-01 8.591500000000000525e-02 -5.850299999999999945e-02 -4.468099999999999850e-02 7.409499999999999420e-02 -4.506199999999999789e-02 4.723800000000000221e-02 1.816200000000000106e-02 -8.037500000000000200e-02 1.030400000000000066e-02 6.274699999999999722e-02 3.052099999999999952e-02 1.518199999999999932e-02 8.710000000000000728e-03 -4.048800000000000315e-02 -4.829200000000000159e-02 3.874400000000000066e-02 4.258399999999999685e-02 -8.808599999999999763e-02 -1.825500000000000039e-02 3.191100000000000186e-02 -3.527700000000000280e-02 1.095730000000000037e-01 -4.774500000000000272e-02 -5.414499999999999869e-02 5.185800000000000132e-02 -7.461900000000000477e-02 -8.490300000000000624e-02 -1.440600000000000040e-02 2.028200000000000142e-02 8.450000000000000479e-04 -3.086600000000000107e-02 3.543999999999999928e-02 -1.026859999999999995e-01 1.482549999999999979e-01 4.758500000000000230e-02 8.257999999999999716e-03 2.894700000000000051e-02 -7.801199999999999801e-02 -5.041600000000000248e-02 -2.411299999999999902e-02 1.104920000000000069e-01 -2.351500000000000118e-02 -3.489899999999999947e-02 -4.259899999999999798e-02 2.300699999999999967e-02 4.402500000000000163e-02 6.524900000000000144e-02 -6.121299999999999658e-02 4.107399999999999940e-02 -1.032600000000000011e-02 -3.883299999999999946e-02 7.094100000000000406e-02 -4.830700000000000272e-02 4.731099999999999889e-02 -2.044699999999999990e-02 1.746599999999999889e-02 1.099220000000000058e-01 9.676899999999999391e-02 -3.523899999999999949e-02 1.055149999999999977e-01 1.151300000000000066e-02 -3.513000000000000150e-02 1.516440000000000010e-01 -4.885400000000000159e-02 -4.300600000000000256e-02 -5.111700000000000271e-02 -6.377700000000000036e-02 8.641999999999999682e-02 -3.952100000000000057e-02 -1.548700000000000077e-02 6.494600000000000373e-02 -6.271699999999999497e-02 1.201200000000000045e-01 4.430900000000000116e-02 5.416699999999999987e-02 -4.544000000000000122e-02 2.675900000000000153e-02 8.625800000000000134e-02 -1.011169999999999985e-01 5.585699999999999693e-02 2.325510000000000077e-01 -9.416900000000000270e-02 2.985999999999999939e-03 7.759299999999999531e-02 2.720300000000000148e-02 -1.203280000000000044e-01 -3.727099999999999858e-02 -1.897899999999999934e-02 -2.062120000000000064e-01 6.019999999999999657e-02 -7.368700000000000250e-02 1.991529999999999967e-01 1.005780000000000007e-01 -1.293599999999999958e-02 -4.634499999999999731e-02 -1.820189999999999864e-01 -3.427600000000000091e-02 1.240699999999999963e-02 2.227500000000000036e-01 -1.444400000000000128e-01 -1.266559999999999908e-01 7.422800000000000231e-02 1.069819999999999938e-01 1.727300000000000016e-02 7.467000000000000026e-02 -1.758889999999999898e-01 -7.155100000000000349e-02 -6.961000000000000174e-03 -5.227899999999999908e-02 -4.122200000000000170e-02 -1.451949999999999907e-01 -1.645139999999999936e-01 1.130130000000000023e-01 9.458800000000000541e-02
-7.852699999999999958e-02 6.805300000000000238e-02 -9.421699999999999520e-02 -8.566999999999999962e-03 -1.726899999999999963e-02 -6.575300000000000589e-02 -9.598099999999999687e-02 -3.121799999999999922e-02 1.854700000000000099e-02 -7.253500000000000225e-02 -8.365200000000000413e-02 4.975500000000000062e-02 4.949699999999999933e-02 -6.363999999999999865e-03 5.247600000000000181e-02 5.735999999999999779e-03 -8.439999999999999586e-03 4.182600000000000207e-02 5.702900000000000330e-02 4.087199999999999861e-02 -2.699400000000000063e-02 2.251299999999999829e-02 9.895099999999999729e-02 9.275600000000000511e-02 1.038530000000000009e-01 -7.129800000000000026e-02 -1.545819999999999972e-01 8.141199999999999826e-02 1.540749999999999897e-01 -1.900739999999999930e-01 -3.172900000000000026e-02 -7.972100000000000020e-02 7.581200000000000438e-02 -6.748800000000000632e-02 -1.490900000000000038e-02 -2.670700000000000157e-02 1.274100000000000059e-02 1.752869999999999984e-01 -3.285099999999999826e-02 9.770000000000000039e-04 1.913999999999999903e-03 -9.280800000000000161e-02 9.344399999999999928e-02 -2.828800000000000064e-02 -8.384500000000000286e-02 -1.681099999999999955e-02 1.040859999999999980e-01 -1.939619999999999955e-01 1.141279999999999933e-01 -7.695200000000000651e-02 -6.368999999999999662e-02 9.783100000000000129e-02 -5.884099999999999747e-02 5.887699999999999878e-02 2.456200000000000050e-02 -1.055240000000000067e-01 1.745800000000000129e-02 8.294600000000000584e-02 4.147499999999999798e-02 2.371799999999999950e-02 1.196700000000000021e-02 -5.250799999999999912e-02 -6.040899999999999742e-02 5.116799999999999821e-02 5.716700000000000254e-02 -1.125369999999999981e-01 -2.405200000000000046e-02 4.367700000000000055e-02 -4.310900000000000148e-02 1.448260000000000103e-01 -6.248000000000000081e-02 -6.711599999999999511e-02 6.871800000000000130e-02 -9.710199999999999387e-02 -1.082120000000000026e-01 -1.913300000000000070e-02 2.824300000000000074e-02 4.767000000000000404e-03 -4.105899999999999828e-02 4.716299999999999659e-02 -1.327149999999999996e-01 1.957679999999999976e-01 6.112499999999999878e-02 1.437599999999999989e-02 3.842199999999999782e-02 -1.032560000000000006e-01 -6.400000000000000133e-02 -3.197500000000000342e-02 1.447110000000000063e-01 -2.825599999999999987e-02 -4.630499999999999894e-02 -5.735400000000000220e-02 3.295499999999999818e-02 5.787699999999999789e-02 8.460700000000000165e-02 -7.817399999999999349e-02 5.427499999999999686e-02 -1.512499999999999956e-02 -4.850999999999999757e-02 9.431799999999999906e-02 -6.562900000000000678e-02 6.502299999999999747e-02 -2.756000000000000116e-02 2.197500000000000148e-02 1.478460000000000052e-01 1.295109999999999872e-01 -4.840799999999999964e-02 1.440009999999999901e-01 1.553299999999999993e-02 -4.650100000000000067e-02 2.001600000000000046e-01 -6.480299999999999949e-02 -5.669300000000000034e-02 -6.815899999999999737e-02 -8.424800000000000344e-02 1.144509999999999972e-01 -5.225099999999999884e-02 -2.074900000000000008e-02 8.572100000000000553e-02 -8.286999999999999922e-02 1.587179999999999980e-01 5.872200000000000336e-02 7.170500000000000485e-02 -5.982900000000000024e-02 3.541899999999999910e-02 1.133440000000000003e-01 -1.344460000000000099e-01 7.435500000000000442e-02 3.062429999999999874e-01 -1.236880000000000063e-01 4.364999999999999956e-03 1.018980000000000025e-01 3.575099999999999806e-02 -1.587159999999999960e-01 -4.900700000000000195e-02 -2.545400000000000093e-02 -2.738720000000000043e-01 8.104699999999999405e-02 -9.747300000000000408e-02 2.624569999999999959e-01 1.325860000000000094e-01 -1.694599999999999926e-02 -6.095099999999999824e-02 -2.405750000000000111e-01 -4.568799999999999945e-02 1.629299999999999846e-02 2.950659999999999950e-01 -1.900759999999999950e-01 -1.669150000000000078e-01 9.715500000000000524e-02 1.412390000000000034e-01 2.297300000000000036e-02 9.830999999999999461e-02 -2.332789999999999864e-01 -9.443300000000000305e-02 -9.528999999999999276e-03 -6.934200000000000086e-02 -5.437100000000000266e-02 -1.919869999999999910e-01 -2.177010000000000056e-01 1.497380000000000100e-01 1.252189999999999970e-01
-9.737899999999999334e-02 8.361799999999999788e-02 -1.184780000000000000e-01 -1.080399999999999937e-02 -2.218499999999999986e-02 -8.305899999999999395e-02 -1.199419999999999931e-01 -3.910600000000000187e-02 2.130200000000000149e-02 -9.045200000000000462e-02 -1.044059999999999988e-01 5.938399999999999929e-02 6.111300000000000066e-02 -8.892000000000000598e-03 6.377900000000000236e-02 7.448999999999999892e-03 -1.119999999999999989e-02 5.121099999999999958e-02 7.003399999999999903e-02 4.977700000000000180e-02 -3.452999999999999819e-02 2.821399999999999950e-02 1.214039999999999980e-01 1.131029999999999952e-01 1.295999999999999930e-01 -9.011500000000000066e-02 -1.935959999999999903e-01 1.004690000000000027e-01 1.937889999999999890e-01 -2.400049999999999961e-01 -3.838300000000000045e-02 -9.755400000000000182e-02 9.091200000000000669e-02 -8.350499999999999590e-02 -1.764100000000000043e-02 -3.586099999999999705e-02 1.471699999999999918e-02 2.190519999999999967e-01 -4.413799999999999668e-02 1.018999999999999941e-03 3.026000000000000044e-03 -1.177190000000000042e-01 1.159160000000000051e-01 -3.511999999999999844e-02 -1.071860000000000035e-01 -2.087900000000000172e-02 1.311529999999999918e-01 -2.450980000000000103e-01 1.415800000000000114e-01 -9.503300000000000636e-02 -8.290500000000000647e-02 1.207280000000000020e-01 -7.240599999999999814e-02 7.029299999999999438e-02 3.116500000000000173e-02 -1.301130000000000064e-01 2.477999999999999994e-02 1.024980000000000058e-01 5.216799999999999909e-02 3.218100000000000127e-02 1.549000000000000030e-02 -6.424299999999999455e-02 -7.198799999999999644e-02 6.328400000000000691e-02 7.128900000000000514e-02 -1.358840000000000048e-01 -2.960199999999999984e-02 5.538099999999999967e-02 -5.050400000000000028e-02 1.789139999999999897e-01 -7.703999999999999737e-02 -7.889200000000000379e-02 8.515100000000000446e-02 -1.185220000000000024e-01 -1.303040000000000032e-01 -2.379699999999999871e-02 3.621499999999999719e-02 8.850000000000000228e-03 -5.104700000000000210e-02 5.799599999999999894e-02 -1.618229999999999946e-01 2.418079999999999952e-01 7.386600000000000110e-02 2.124300000000000146e-02 4.768100000000000116e-02 -1.272030000000000105e-01 -7.687499999999999889e-02 -3.971399999999999930e-02 1.777380000000000071e-01 -3.233300000000000063e-02 -5.747200000000000225e-02 -7.160999999999999310e-02 4.334500000000000158e-02 7.131600000000000439e-02 1.032590000000000036e-01 -9.399899999999999922e-02 6.720299999999999885e-02 -1.997399999999999870e-02 -5.719199999999999978e-02 1.173069999999999946e-01 -8.294600000000000584e-02 8.244400000000000339e-02 -3.488200000000000328e-02 2.644799999999999929e-02 1.848360000000000003e-01 1.619889999999999941e-01 -6.153900000000000342e-02 1.828299999999999925e-01 1.961900000000000102e-02 -5.755199999999999899e-02 2.467600000000000071e-01 -8.032400000000000651e-02 -6.979000000000000481e-02 -8.495099999999999874e-02 -1.039989999999999942e-01 1.415859999999999896e-01 -6.451500000000000290e-02 -2.597700000000000009e-02 1.057420000000000027e-01 -1.023609999999999937e-01 1.960800000000000043e-01 7.269899999999999973e-02 8.864099999999999757e-02 -7.367999999999999550e-02 4.373099999999999904e-02 1.390919999999999934e-01 -1.671020000000000005e-01 9.244099999999999540e-02 3.766740000000000088e-01 -1.519220000000000015e-01 5.906999999999999924e-03 1.249870000000000009e-01 4.393699999999999689e-02 -1.958390000000000131e-01 -6.028100000000000125e-02 -3.210799999999999765e-02 -3.400619999999999754e-01 1.017580000000000012e-01 -1.205490000000000034e-01 3.231789999999999941e-01 1.632570000000000132e-01 -2.074600000000000055e-02 -7.492500000000000548e-02 -2.970749999999999780e-01 -5.684399999999999870e-02 1.983400000000000094e-02 3.650349999999999984e-01 -2.338999999999999968e-01 -2.056330000000000102e-01 1.186730000000000007e-01 1.743260000000000087e-01 2.861700000000000008e-02 1.208199999999999968e-01 -2.890519999999999756e-01 -1.165589999999999959e-01 -1.227699999999999972e-02 -8.590499999999999525e-02 -6.710299999999999598e-02 -2.371870000000000089e-01 -2.692629999999999746e-01 1.855060000000000042e-01 1.548180000000000112e-01
-1.156630000000000019e-01 9.879699999999999593e-02 -1.419620000000000049e-01 -1.313899999999999964e-02 -2.687700000000000158e-02 -9.995500000000000218e-02 -1.439410000000000134e-01 -4.648599999999999954e-02 2.383000000000000049e-02 -1.082110000000000016e-01 -1.245880000000000043e-01 6.832399999999999585e-02 7.228700000000000403e-02 -1.142199999999999986e-02 7.495000000000000273e-02 9.355000000000000468e-03 -1.380400000000000030e-02 6.083999999999999825e-02 8.223099999999999854e-02 5.838900000000000340e-02 -4.156900000000000178e-02 3.395100000000000201e-02 1.430960000000000010e-01 1.327520000000000089e-01 1.549329999999999874e-01 -1.087370000000000003e-01 -2.314269999999999938e-01 1.185579999999999967e-01 2.332170000000000076e-01 -2.891050000000000009e-01 -4.426299999999999679e-02 -1.146670000000000050e-01 1.053889999999999966e-01 -9.891600000000000392e-02 -2.016899999999999943e-02 -4.487200000000000216e-02 1.597200000000000009e-02 2.620339999999999892e-01 -5.535099999999999743e-02 1.007000000000000083e-03 3.893999999999999892e-03 -1.419819999999999971e-01 1.375470000000000026e-01 -4.210099999999999953e-02 -1.301920000000000022e-01 -2.473699999999999857e-02 1.581239999999999868e-01 -2.958470000000000266e-01 1.680169999999999997e-01 -1.127480000000000010e-01 -1.022119999999999973e-01 1.427339999999999998e-01 -8.576300000000000590e-02 8.144500000000000350e-02 3.798200000000000187e-02 -1.541190000000000060e-01 3.221399999999999958e-02 1.213049999999999962e-01 6.256299999999999362e-02 4.050800000000000234e-02 1.936399999999999927e-02 -7.566799999999999915e-02 -8.295199999999999796e-02 7.512599999999999834e-02 8.493199999999999361e-02 -1.579929999999999946e-01 -3.490900000000000253e-02 6.706600000000000061e-02 -5.734999999999999820e-02 2.118079999999999963e-01 -9.135200000000000264e-02 -8.943199999999999761e-02 1.011549999999999949e-01 -1.388959999999999917e-01 -1.511260000000000103e-01 -2.834800000000000167e-02 4.423300000000000148e-02 1.320499999999999972e-02 -6.092199999999999699e-02 6.787999999999999590e-02 -1.900650000000000117e-01 2.863220000000000209e-01 8.574500000000000177e-02 2.868800000000000169e-02 5.665699999999999903e-02 -1.496919999999999917e-01 -8.900500000000000078e-02 -4.735400000000000026e-02 2.093220000000000081e-01 -3.573400000000000187e-02 -6.840499999999999359e-02 -8.525800000000000045e-02 5.407499999999999807e-02 8.433000000000000218e-02 1.210709999999999981e-01 -1.086939999999999990e-01 7.979600000000000581e-02 -2.495299999999999949e-02 -6.470399999999999763e-02 1.397609999999999963e-01 -1.002119999999999955e-01 9.944200000000000261e-02 -4.235699999999999882e-02 3.077500000000000027e-02 2.206510000000000138e-01 1.940359999999999863e-01 -7.451099999999999390e-02 2.221849999999999936e-01 2.371099999999999944e-02 -6.820600000000000274e-02 2.911150000000000126e-01 -9.535200000000000620e-02 -8.227800000000000391e-02 -1.013850000000000029e-01 -1.229350000000000026e-01 1.677359999999999962e-01 -7.620499999999999496e-02 -3.120500000000000010e-02 1.248640000000000028e-01 -1.210930000000000062e-01 2.319080000000000030e-01 8.614499999999999935e-02 1.049039999999999973e-01 -8.690100000000000602e-02 5.164699999999999847e-02 1.633419999999999872e-01 -1.988179999999999947e-01 1.100060000000000066e-01 4.432940000000000214e-01 -1.786629999999999885e-01 7.609999999999999577e-03 1.467189999999999883e-01 5.170500000000000096e-02 -2.314910000000000023e-01 -7.109200000000000241e-02 -3.894199999999999745e-02 -4.042459999999999942e-01 1.220679999999999960e-01 -1.427509999999999890e-01 3.809580000000000188e-01 1.923799999999999955e-01 -2.430999999999999828e-02 -8.819000000000000450e-02 -3.511880000000000002e-01 -6.773800000000000654e-02 2.307899999999999882e-02 4.320820000000000216e-01 -2.756339999999999901e-01 -2.425700000000000078e-01 1.386340000000000072e-01 2.060649999999999982e-01 3.410900000000000043e-02 1.419489999999999919e-01 -3.428129999999999789e-01 -1.377289999999999903e-01 -1.528200000000000044e-02 -1.020699999999999941e-01 -7.937299999999999911e-02 -2.804749999999999743e-01 -3.188980000000000148e-01 2.199230000000000074e-01 1.832070000000000087e-01