2.854574821895101144e-01 -3.616590424293805804e-05 1.808295212146902902e-05 -3.616590424293805804e-05 -2.677777799003498327e+00 -1.808295212146902902e-05 1.808295212146902902e-05 -1.808295212146902902e-05 -5.914571979890089759e-01
3.600496596905698454e-01 -1.255499365793594779e-01 2.177187435424871031e-01 -1.255499365793594779e-01 -2.578520474808754681e+00 -1.074489015057689678e-01 2.177187435424871031e-01 -1.074489015057689678e-01 -3.688379744216038203e-01
4.482763830912172565e-01 -2.503765550738601964e-01 4.344429247182934328e-01 -2.503765550738601964e-01 -2.465556272905937707e+00 -2.173570845000577234e-01 4.344429247182934328e-01 -2.173570845000577234e-01 -1.246277060211645471e-01
5.486006014611273240e-01 -3.741543623453156830e-01 6.487439903098228822e-01 -3.741543623453156830e-01 -2.340476493081736553e+00 -3.289650649937645999e-01 6.487439903098228822e-01 -3.289650649937645999e-01 1.360380488098115181e-01
6.606606557578710293e-01 -4.954548051761299421e-01 8.623759866728579748e-01 -4.954548051761299421e-01 -2.204131034085860197e+00 -4.431589076408415373e-01 8.623759866728579748e-01 -4.431589076408415373e-01 4.132858707361746764e-01
7.823046746789931172e-01 -6.139162245238736215e-01 1.073602950403737655e+00 -6.139162245238736215e-01 -2.058599435412277412e+00 -5.587993864576359382e-01 1.073602950403737655e+00 -5.587993864576359382e-01 7.022695285893711947e-01
9.123030174802340131e-01 -7.285259750697442582e-01 1.282895038257620302e+00 -7.285259750697442582e-01 -1.905491079799798815e+00 -6.759407503005123719e-01 1.282895038257620302e+00 -6.759407503005123719e-01 1.000511657928759846e+00
1.048630393523988902e+00 -8.384522410161545647e-01 1.490396913851477434e+00 -8.384522410161545647e-01 -1.746975921503001405e+00 -7.942936719355270236e-01 1.490396913851477434e+00 -7.942936719355270236e-01 1.304251004713075313e+00
1.189568922358718472e+00 -9.429536213261240363e-01 1.696126660137430520e+00 -9.429536213261240363e-01 -1.585133500015853514e+00 -9.136411559372226154e-01 1.696126660137430520e+00 -9.136411559372226154e-01 1.610431550033788906e+00
1.332930566777725145e+00 -1.041415295627522886e+00 1.900500185014273757e+00 -1.041415295627522886e+00 -1.422206101401417788e+00 -1.033711958023777022e+00 1.900500185014273757e+00 -1.033711958023777022e+00 1.915093127376298776e+00
-3.063452591175861883e+01 7.496013858182124068e+00 -1.992238640226174695e+01 7.496013858182124068e+00 -3.541497630866003021e+01 -1.299961299992708064e+01 -1.992238640226174695e+01 -1.299961299992708064e+01 7.358299783372774794e-01
-3.038824399451251779e+01 7.398197903522926389e+00 -2.000074031615286785e+01 7.398197903522926389e+00 -3.529543180030403704e+01 -1.295362713843946523e+01 -2.000074031615286785e+01 -1.295362713843946523e+01 1.244933737755572034e+00
-3.013608038255883415e+01 7.289461477479907359e+00 -2.004170613247605104e+01 7.289461477479907359e+00 -3.516071476738390089e+01 -1.287963766679951227e+01 -2.004170613247605104e+01 -1.287963766679951227e+01 1.765238941234800851e+00
-2.988032032033810026e+01 7.170272867848257903e+00 -2.004502161006599437e+01 7.170272867848257903e+00 -3.501202402665531110e+01 -1.277800048373156727e+01 -2.004502161006599437e+01 -1.277800048373156727e+01 2.290901357090998847e+00
-2.962317412624360458e+01 7.041081630911358857e+00 -2.001044323926919333e+01 7.041081630911358857e+00 -3.485037107975586679e+01 -1.264924007156624342e+01 -2.001044323926919333e+01 -1.264924007156624342e+01 2.818624239246030783e+00
-2.936688958169225216e+01 6.902580832606091121e+00 -1.993783989950300395e+01 6.902580832606091121e+00 -3.467704840100030594e+01 -1.249384344961053550e+01 -1.993783989950300395e+01 -1.249384344961053550e+01 3.344923526503686073e+00
-2.911397670926627157e+01 6.755426075845720746e+00 -1.982726778530284051e+01 6.755426075845720746e+00 -3.449361070586864741e+01 -1.231220397961240565e+01 -1.982726778530284051e+01 -1.231220397961240565e+01 3.866333889179562888e+00
-2.886692680003606171e+01 6.600385352614357437e+00 -1.967882055422774812e+01 6.600385352614357437e+00 -3.430180002495899316e+01 -1.210478994936704034e+01 -1.967882055422774812e+01 -1.210478994936704034e+01 4.379109024912143155e+00
-2.862834353414287492e+01 6.438207923384304365e+00 -1.949262932686037431e+01 6.438207923384304365e+00 -3.410371428759381018e+01 -1.187191979457517022e+01 -1.949262932686037431e+01 -1.187191979457517022e+01 4.879558825875334627e+00
-2.840073693416893974e+01 6.269811632234134180e+00 -1.926882522378337370e+01 6.269811632234134180e+00 -3.390135776553648839e+01 -1.161378083035487130e+01 -1.926882522378337370e+01 -1.161378083035487130e+01 5.363955721219427097e+00
1.700168250813481663e+01 -5.316486135525522627e+00 1.569965479208084957e+01 -5.316486135525522627e+00 4.814547175153285963e+01 1.382103459996062078e+01 1.569965479208084957e+01 1.382103459996062078e+01 5.441905912820082136e+01
1.704005386778169751e+01 -5.404818218071546276e+00 1.549544640042512711e+01 -5.404818218071546276e+00 4.793033228631633591e+01 1.362533200405506228e+01 1.549544640042512711e+01 1.362533200405506228e+01 5.417026027165522351e+01
1.702337142112709500e+01 -5.485579969165793379e+00 1.526379772268332680e+01 -5.485579969165793379e+00 4.759974959731343347e+01 1.338741225083147057e+01 1.526379772268332680e+01 1.338741225083147057e+01 5.369575466800389307e+01
1.694988550346475975e+01 -5.558095775703870700e+00 1.500536704854690839e+01 -5.558095775703870700e+00 4.715630487305119800e+01 1.310971794151341463e+01 1.500536704854690839e+01 1.310971794151341463e+01 5.299718804147546791e+01
1.681859135684457485e+01 -5.621707347994320259e+00 1.472102054866253162e+01 -5.621707347994320259e+00 4.660415573263358624e+01 1.279493420510552859e+01 1.472102054866253162e+01 1.279493420510552859e+01 5.207963615205936492e+01
1.662787790386375875e+01 -5.675912307062080941e+00 1.441184959804498078e+01 -5.675912307062080941e+00 4.594787555707492999e+01 1.244623122617457867e+01 1.441184959804498078e+01 1.244623122617457867e+01 5.094895431332697910e+01
1.637609942029366650e+01 -5.720260244170890296e+00 1.407910148242544146e+01 -5.720260244170890296e+00 4.519271334049397382e+01 1.206703904048132081e+01 1.407910148242544146e+01 1.206703904048132081e+01 4.961188133290928448e+01
1.606218185453243663e+01 -5.754629895430218411e+00 1.372416207483856354e+01 -5.754629895430218411e+00 4.434523465639237827e+01 1.166096091791584577e+01 1.372416207483856354e+01 1.166096091791584577e+01 4.807746003235740062e+01
1.568356134146597292e+01 -5.779003937427130921e+00 1.334890230388112542e+01 -5.779003937427130921e+00 4.341112158421220357e+01 1.123189462638810987e+01 1.334890230388112542e+01 1.123189462638810987e+01 4.635398832646627199e+01
1.524292301009890593e+01 -5.793624897942692087e+00 1.295463874893604483e+01 -5.793624897942692087e+00 4.240130519751425453e+01 1.078335681872353646e+01 1.295463874893604483e+01 1.078335681872353646e+01 4.445712658052745780e+01
-2.687739177462506746e+01 -8.523967983692930517e+00 -1.136559115888042193e+01 -8.523967983692930517e+00 5.958989370760977344e+00 8.538944618015623433e+00 -1.136559115888042193e+01 8.538944618015623433e+00 -2.368574956828904021e+01
-2.677001629808055583e+01 -8.526874996251882166e+00 -1.144474285526399093e+01 -8.526874996251882166e+00 6.184025260688319925e+00 8.685362377155659175e+00 -1.144474285526399093e+01 8.685362377155659175e+00 -2.322018598732906725e+01
-2.660733398766132751e+01 -8.523673602674302074e+00 -1.151276326938069339e+01 -8.523673602674302074e+00 6.432611632105890820e+00 8.814761233656271955e+00 -1.151276326938069339e+01 8.814761233656271955e+00 -2.266157960566901863e+01
-2.638940003980838611e+01 -8.514510993469510680e+00 -1.156985478818083557e+01 -8.514510993469510680e+00 6.703460568057194813e+00 8.925890068188293114e+00 -1.156985478818083557e+01 8.925890068188293114e+00 -2.201486130537092123e+01
-2.611825672283845279e+01 -8.499644752028803651e+00 -1.161616460217373259e+01 -8.499644752028803651e+00 6.993720252424274086e+00 9.017608154304538104e+00 -1.161616460217373259e+01 9.017608154304538104e+00 -2.128466758747815391e+01
-2.579524715014902370e+01 -8.479258866488823543e+00 -1.165156391966373306e+01 -8.479258866488823543e+00 7.301054035871769265e+00 9.088774765557825930e+00 -1.165156391966373306e+01 9.088774765557825930e+00 -2.047548776252479996e+01
-2.542193522090155611e+01 -8.453592521427205853e+00 -1.167577675844587581e+01 -8.453592521427205853e+00 7.623014876182336863e+00 9.138322770755628710e+00 -1.167577675844587581e+01 9.138322770755628710e+00 -1.959193993274057632e+01
-2.500008722120782068e+01 -8.422884901421586079e+00 -1.168843514224687574e+01 -8.422884901421586079e+00 7.957118933511303283e+00 9.165313830401071726e+00 -1.168843514224687574e+01 9.165313830401071726e+00 -1.863869739679621063e+01
-2.453139584192492251e+01 -8.387301595794941278e+00 -1.168891351140214496e+01 -8.387301595794941278e+00 8.300955963268656035e+00 9.168791206183614761e+00 -1.168891351140214496e+01 9.168791206183614761e+00 -1.762151898336859901e+01
-2.401891528612113191e+01 -8.347155384379567167e+00 -1.167656790743343898e+01 -8.347155384379567167e+00 8.651158982553834420e+00 9.148184534879662877e+00 -1.167656790743343898e+01 9.148184534879662877e+00 -1.654369808010365261e+01
-3.297577532481263063e+01 -7.949012264370868941e+00 4.277615637216848121e+00 -7.949012264370868941e+00 -2.621929611043865549e+01 7.206444208926072292e+00 4.277615637216848121e+00 7.206444208926072292e+00 -2.754590603469905119e+01
-3.288107649051138992e+01 -7.975038951727901448e+00 4.166147804495819784e+00 -7.975038951727901448e+00 -2.612106696068061851e+01 7.063560324294282822e+00 4.166147804495819784e+00 7.063560324294282822e+00 -2.728325432036801601e+01
-3.273642744815120409e+01 -7.995188039414839132e+00 4.048314136988332201e+00 -7.995188039414839132e+00 -2.597949755520827964e+01 6.909878932281330322e+00 4.048314136988332201e+00 6.909878932281330322e+00 -2.690840242064140853e+01
-3.254310512034410152e+01 -8.009384414336857105e+00 3.924189747789209370e+00 -8.009384414336857105e+00 -2.579552680770694550e+01 6.745531480803157010e+00 3.924189747789209370e+00 6.745531480803157010e+00 -2.642223291438342159e+01
-3.230283710827105637e+01 -8.017552963399129595e+00 3.793906084814396618e+00 -8.017552963399129595e+00 -2.557080720626278136e+01 6.570461635038645554e+00 3.793906084814396618e+00 6.570461635038645554e+00 -2.582806955604008792e+01
-3.201736979138678407e+01 -8.019637351780536605e+00 3.657669709074663267e+00 -8.019637351780536605e+00 -2.530699123896195601e+01 6.384613060166675957e+00 3.657669709074663267e+00 6.384613060166675957e+00 -2.512968677862638600e+01
-3.168873122325155478e+01 -8.015543688112545695e+00 3.515743516401899083e+00 -8.015543688112545695e+00 -2.500597551144880271e+01 6.188042091008367329e+00 3.515743516401899083e+00 6.188042091008367329e+00 -2.433110313271548009e+01
-3.131955036218426969e+01 -8.005271972395160418e+00 3.368352846080580942e+00 -8.005271972395160418e+00 -2.467006975138921376e+01 5.980673614468895671e+00 3.368352846080580942e+00 5.980673614468895671e+00 -2.343721974774473438e+01
-3.091221204894564067e+01 -7.988671978438727450e+00 3.215723037395184392e+00 -7.988671978438727450e+00 -2.430158368644906375e+01 5.762338626084901883e+00 3.215723037395184392e+00 5.762338626084901883e+00 -2.245297530969891753e+01
-3.046949546804420095e+01 -7.965818819338073453e+00 3.058098207903893417e+00 -7.965818819338073453e+00 -2.390295849221018543e+01 5.532905677940441080e+00 3.058098207903893417e+00 5.532905677940441080e+00 -2.138308316527834307e+01
2.551042085031807716e+01 1.555691133522933089e+00 -1.774969335651428892e+01 1.555691133522933089e+00 1.598672301058278045e+01 -6.968892467114330636e+00 -1.774969335651428892e+01 -6.968892467114330636e+00 4.117770323200563354e+01
2.522843757084108773e+01 1.604645466947230315e+00 -1.778534278325675899e+01 1.604645466947230315e+00 1.598844317002185633e+01 -7.000276600553787532e+00 -1.778534278325675899e+01 -7.000276600553787532e+00 4.081845319894895141e+01
2.488530086804022901e+01 1.649264296479164171e+00 -1.778074398965433289e+01 1.649264296479164171e+00 1.593711922920699564e+01 -7.014178297245090121e+00 -1.778074398965433289e+01 -7.014178297245090121e+00 4.030022883895649954e+01
2.448348566519010205e+01 1.689179016524647192e+00 -1.773642355512713920e+01 1.689179016524647192e+00 1.583247034578079848e+01 -7.010527346598888876e+00 -1.773642355512713920e+01 -7.010527346598888876e+00 3.962608431266500020e+01
2.402574772792268476e+01 1.723985916194916701e+00 -1.765324155939470785e+01 1.723985916194916701e+00 1.567379441384976602e+01 -6.989323748615184684e+00 -1.765324155939470785e+01 -6.989323748615184684e+00 3.879931951777390964e+01
2.351466729539659539e+01 1.753369047837897376e+00 -1.753207563482392217e+01 1.753369047837897376e+00 1.546014359045767428e+01 -6.950585055941314039e+00 -1.753207563482392217e+01 -6.950585055941314039e+00 3.782318169404067021e+01
2.295336873883790929e+01 1.777082674390864536e+00 -1.737410180878639210e+01 1.777082674390864536e+00 1.519102640147907302e+01 -6.894381479166628246e+00 -1.737410180878639210e+01 -6.894381479166628246e+00 3.670193613476828176e+01
2.234471313976263929e+01 1.794951269380443248e+00 -1.718067163512710493e+01 1.794951269380443248e+00 1.486574074102045628e+01 -6.820870992117163745e+00 -1.718067163512710493e+01 -6.820870992117163745e+00 3.543990079120177938e+01
2.169171955351283643e+01 1.806939727511957861e+00 -1.695331219416442181e+01 1.806939727511957861e+00 1.448398821407709391e+01 -6.730194015971621369e+00 -1.695331219416442181e+01 -6.730194015971621369e+00 3.404220103636372130e+01
2.099781074631930977e+01 1.813065601432746643e+00 -1.669367343474807086e+01 1.813065601432746643e+00 1.404585658388566927e+01 -6.622666498382073996e+00 -1.669367343474807086e+01 -6.622666498382073996e+00 3.251448882269676943e+01
1.120594961451412530e+01 9.075342717894166356e+00 -9.693292831337330995e+00 9.075342717894166356e+00 -8.589129667518616174e+00 -5.249712902923754143e+00 -9.693292831337330995e+00 -5.249712902923754143e+00 -1.418922329279111949e+01
1.122378032566385642e+01 9.132694547964179677e+00 -9.477711560454880058e+00 9.132694547964179677e+00 -8.498725787512517726e+00 -5.424776419608242861e+00 -9.477711560454880058e+00 -5.424776419608242861e+00 -1.404226489093714925e+01
1.126487794038701296e+01 9.180460558727073561e+00 -9.249554564432274972e+00 9.180460558727073561e+00 -8.373584637918989770e+00 -5.590616529813856594e+00 -9.249554564432274972e+00 -5.590616529813856594e+00 -1.382768025533237655e+01
1.132944178573913341e+01 9.218242096071774583e+00 -9.008332585951380977e+00 9.218242096071774583e+00 -8.213543132965321902e+00 -5.746907061995173649e+00 -9.008332585951380977e+00 -5.746907061995173649e+00 -1.354630293548176923e+01
1.141660207093242363e+01 9.245694867811447892e+00 -8.753755694749605354e+00 9.245694867811447892e+00 -8.019670390494836099e+00 -5.892923190495702457e+00 -8.753755694749605354e+00 -5.892923190495702457e+00 -1.320034364963762741e+01
1.152512659235084946e+01 9.262528943683500771e+00 -8.485479598640106147e+00 9.262528943683500771e+00 -7.793416061820526153e+00 -6.028121296073072344e+00 -8.485479598640106147e+00 -6.028121296073072344e+00 -1.279257485593603860e+01
1.165342073355012253e+01 9.268490634708156151e+00 -8.203087522870408321e+00 9.268490634708156151e+00 -7.536519728517971473e+00 -6.151885276919263568e+00 -8.203087522870408321e+00 -6.151885276919263568e+00 -1.232638511432110917e+01
1.179983551616172122e+01 9.263434975754117673e+00 -7.906035848198137650e+00 9.263434975754117673e+00 -7.250865937294052266e+00 -6.263617151867669541e+00 -7.906035848198137650e+00 -6.263617151867669541e+00 -1.180523546730259454e+01
1.196250451412017846e+01 9.247325725538559027e+00 -7.593654110891037590e+00 9.247325725538559027e+00 -6.938592923835426696e+00 -6.362809542958745901e+00 -7.593654110891037590e+00 -6.362809542958745901e+00 -1.123325742112250403e+01
1.213957942200143414e+01 9.220054160213006611e+00 -7.265253726575440218e+00 9.220054160213006611e+00 -6.601712079338861727e+00 -6.448973192874359661e+00 -7.265253726575440218e+00 -6.448973192874359661e+00 -1.061414758662894897e+01
1.126163608232952562e+01 -7.974450949316670645e+00 -1.831852430686641853e+01 -7.974450949316670645e+00 -3.696600863833861883e+00 -2.058274685624049027e+01 -1.831852430686641853e+01 -2.058274685624049027e+01 -1.027035833998248604e+00
1.120569197119779581e+01 -7.996042780868156008e+00 -1.833750276982444305e+01 -7.996042780868156008e+00 -3.724915360801629660e+00 -2.042520578813402565e+01 -1.833750276982444305e+01 -2.042520578813402565e+01 -1.157055427330822228e+00
1.115756994261476720e+01 -8.012389852001042811e+00 -1.832558941368460026e+01 -8.012389852001042811e+00 -3.737946157305573447e+00 -2.022931128301457093e+01 -1.832558941368460026e+01 -2.022931128301457093e+01 -1.272836667636956243e+00
1.111723395011708071e+01 -8.023456116251972858e+00 -1.828294644753199805e+01 -8.023456116251972858e+00 -3.735621160418977293e+00 -1.999529764289395217e+01 -1.828294644753199805e+01 -1.999529764289395217e+01 -1.374127229673144601e+00
1.108410725029101052e+01 -8.029115410999189351e+00 -1.820964596429335458e+01 -8.029115410999189351e+00 -3.718390950933817773e+00 -1.972356137886911043e+01 -1.820964596429335458e+01 -1.972356137886911043e+01 -1.461179438682893794e+00
1.105712647246749114e+01 -8.029385759474374495e+00 -1.810583214982210265e+01 -8.029385759474374495e+00 -3.687192736897404455e+00 -1.941455307173202272e+01 -1.810583214982210265e+01 -1.941455307173202272e+01 -1.535110735030303930e+00
1.103502999042899368e+01 -8.024213091982490553e+00 -1.797168523643502880e+01 -8.024213091982490553e+00 -3.643270121295591579e+00 -1.906861516288458347e+01 -1.797168523643502880e+01 -1.906861516288458347e+01 -1.597651348956562467e+00
1.101614164362936243e+01 -8.013597408523537524e+00 -1.780742150291228398e+01 -8.013597408523537524e+00 -3.588119032357738103e+00 -1.868610811696037999e+01 -1.780742150291228398e+01 -1.868610811696037999e+01 -1.650801859178042896e+00
1.099894748060756022e+01 -7.997556732329195839e+00 -1.761325722803401916e+01 -7.997556732329195839e+00 -3.523217375081525660e+00 -1.826721216627619881e+01 -1.761325722803401916e+01 -1.826721216627619881e+01 -1.696851216117982508e+00
1.098162715496400565e+01 -7.976127109862820141e+00 -1.738939066734869954e+01 -7.976127109862820141e+00 -3.450367472634857879e+00 -1.781210754314883715e+01 -1.738939066734869954e+01 -1.781210754314883715e+01 -1.738322672211446873e+00
-2.942570946660060116e+01 1.098241722634533879e+01 -1.894000089169303180e+01 1.098241722634533879e+01 -9.849909622525379049e+00 -1.945855492399703834e+01 -1.894000089169303180e+01 -1.945855492399703834e+01 -1.801434695801259522e+01
-2.929636328201537410e+01 1.100966363170781825e+01 -1.883816095557319414e+01 1.100966363170781825e+01 -9.921366475826156162e+00 -1.930704783477775521e+01 -1.883816095557319414e+01 -1.930704783477775521e+01 -1.794480180754038301e+01
-2.913266212718086479e+01 1.102543982009889767e+01 -1.870603073774248415e+01 1.102543982009889767e+01 -9.970476822276507889e+00 -1.911804909785260520e+01 -1.870603073774248415e+01 -1.911804909785260520e+01 -1.780946067136654420e+01
-2.893447608054562181e+01 1.102935602686421390e+01 -1.854271934756234330e+01 1.102935602686421390e+01 -9.996164169021513501e+00 -1.889211551987069271e+01 -1.854271934756234330e+01 -1.889211551987069271e+01 -1.760854627215072199e+01
-2.870341988139201561e+01 1.102124521000903457e+01 -1.834785558060004007e+01 1.102124521000903457e+01 -9.998224353623173855e+00 -1.863006375058402142e+01 -1.834785558060004007e+01 -1.863006375058402142e+01 -1.734300518119637857e+01
-2.844121963033225242e+01 1.100101456842517855e+01 -1.812127239486084918e+01 1.100101456842517855e+01 -9.976675936303120551e+00 -1.833287748173933096e+01 -1.812127239486084918e+01 -1.833287748173933096e+01 -1.701422941512625542e+01
-2.814987983130307825e+01 1.096866410211264409e+01 -1.786293266990148965e+01 1.096866410211264409e+01 -9.931871561272451743e+00 -1.800159608574827530e+01 -1.786293266990148965e+01 -1.800159608574827530e+01 -1.662429771876364981e+01
-2.783183187333889208e+01 1.092437941328779871e+01 -1.757287352616524601e+01 1.092437941328779871e+01 -9.864535077174990008e+00 -1.763727749524412758e+01 -1.757287352616524601e+01 -1.763727749524412758e+01 -1.617580852313767892e+01
-2.748941434436589404e+01 1.086836466438864335e+01 -1.725137336697665447e+01 1.086836466438864335e+01 -9.775408892876203737e+00 -1.724105388374672287e+01 -1.725137336697665447e+01 -1.724105388374672287e+01 -1.567162010238036984e+01
-2.712539271740793367e+01 1.080110242117772934e+01 -1.689882195699009060e+01 1.080110242117772934e+01 -9.665680862560828146e+00 -1.681398318388934854e+01 -1.689882195699009060e+01 -1.681398318388934854e+01 -1.511492481461322157e+01
-1.939826120616612215e+01 6.251236198343493866e-01 4.729465557795636599e+00 6.251236198343493866e-01 -1.970951476022203508e+01 3.315250250182143255e+00 4.729465557795636599e+00 3.315250250182143255e+00 -2.676168189796857533e+01
-1.934054949370479193e+01 6.568928969191716316e-01 4.683760108344751316e+00 6.568928969191716316e-01 -1.946862867036334421e+01 3.305674930686951285e+00 4.683760108344751316e+00 3.305674930686951285e+00 -2.635202152359676475e+01
-1.923407045637260282e+01 6.892559922672615302e-01 4.633304112787723028e+00 6.892559922672615302e-01 -1.918073815360287071e+01 3.291831542424522805e+00 4.633304112787723028e+00 3.291831542424522805e+00 -2.582289233738378798e+01
-1.907967770792299689e+01 7.218603262848040103e-01 4.577912002917281953e+00 7.218603262848040103e-01 -1.884756899426823296e+01 3.273237608055953096e+00 4.577912002917281953e+00 3.273237608055953096e+00 -2.517889643086996188e+01
-1.887831764621306263e+01 7.544832171230735351e-01 4.517583778733428979e+00 7.544832171230735351e-01 -1.847116244263941809e+01 3.249484877525245174e+00 4.517583778733428979e+00 3.249484877525245174e+00 -2.442385650912506989e+01
-1.863145626008024180e+01 7.868463124711634338e-01 4.452300883415436061e+00 7.868463124711634338e-01 -1.805402366951458148e+01 3.220127987134947745e+00 4.452300883415436061e+00 3.220127987134947745e+00 -2.356246744779308244e+01
-1.834104201570088222e+01 8.186712600181670352e-01 4.381859191935304487e+00 8.186712600181670352e-01 -1.759914032303079168e+01 3.184684459546156532e+00 4.381859191935304487e+00 3.184684459546156532e+00 -2.260050041812013077e+01
-1.800907904971350604e+01 8.496797074531775573e-01 4.306128806547945054e+00 8.496797074531775573e-01 -1.710953716496656796e+01 3.142708931061420685e+00 4.306128806547945054e+00 3.142708931061420685e+00 -2.154357813678652178e+01
-1.763781273742609912e+01 8.795933024652881072e-01 4.224794261300996112e+00 8.795933024652881072e-01 -1.658855442305279482e+01 3.093756037983289353e+00 4.224794261300996112e+00 3.093756037983289353e+00 -2.039771301370785039e+01
-1.722956268142955594e+01 9.081708063850464363e-01 4.137484419779916323e+00 9.081708063850464363e-01 -1.603932819999234738e+01 3.037343302972856929e+00 4.137484419779916323e+00 3.037343302972856929e+00 -1.916884323151678871e+01
-4.379217936281033730e+01 -8.546694974712636395e+00 -1.776802564081198810e+01 -8.546694974712636395e+00 -3.733635101416266622e+01 -1.594415399961761892e+01 -1.776802564081198810e+01 -1.594415399961761892e+01 -5.135130718561715923e+01
-4.385411790652996444e+01 -8.511183798502097275e+00 -1.761189528323656717e+01 -8.511183798502097275e+00 -3.735150985948514091e+01 -1.600218305604800761e+01 -1.761189528323656717e+01 -1.600218305604800761e+01 -5.148798592751330716e+01
-4.384794704914204999e+01 -8.474810235389520940e+00 -1.744185175030828461e+01 -8.474810235389520940e+00 -3.730267959667647659e+01 -1.604100963079304165e+01 -1.744185175030828461e+01 -1.604100963079304165e+01 -5.144365924074860885e+01
-4.377247861313713884e+01 -8.437842583522208173e+00 -1.725735844573253885e+01 -8.437842583522208173e+00 -3.718836542177314897e+01 -1.606057623139259150e+01 -1.725735844573253885e+01 -1.606057623139259150e+01 -5.121664067982576540e+01
-4.362874746279766214e+01 -8.400587469354217518e+00 -1.705828122043568129e+01 -8.400587469354217518e+00 -3.700891228953597789e+01 -1.606074870877299787e+01 -1.705828122043568129e+01 -1.606074870877299787e+01 -5.080788845241368534e+01
-4.341805676055338381e+01 -8.363255698572713115e+00 -1.684433261211703581e+01 -8.363255698572713115e+00 -3.676506760194672552e+01 -1.604131625724710375e+01 -1.684433261211703581e+01 -1.604131625724710375e+01 -5.021945312292389474e+01
-4.314224626512862670e+01 -8.326058076864857327e+00 -1.661511017355564945e+01 -8.326058076864857327e+00 -3.645803870066823293e+01 -1.600197225036084347e+01 -1.661511017355564945e+01 -1.600197225036084347e+01 -4.945453510497060989e+01
-4.280309824278761965e+01 -8.289167081611060084e+00 -1.637021145753056572e+01 -8.289167081611060084e+00 -3.608914791228363583e+01 -1.594244838996692337e+01 -1.637021145753056572e+01 -1.594244838996692337e+01 -4.851687140846265578e+01
-4.240172421442629513e+01 -8.252429399584292113e+00 -1.610946398666138890e+01 -8.252429399584292113e+00 -3.565879768401388361e+01 -1.586255303453155818e+01 -1.610946398666138890e+01 -1.586255303453155818e+01 -4.741111892267104366e+01
-4.194295354669608855e+01 -8.216439119539288072e+00 -1.583187122497242250e+01 -8.216439119539288072e+00 -3.517191320327727055e+01 -1.576178791606689877e+01 -1.583187122497242250e+01 -1.576178791606689877e+01 -4.614258611808163124e+01
-1.416608401221954594e+01 -7.682723676899385623e+00 -1.725843288066295500e+01 -7.682723676899385623e+00 3.691894063909300971e+00 -6.872478778316475356e+00 -1.725843288066295500e+01 -6.872478778316475356e+00 -5.316277956978656682e+00
-1.422061955157887780e+01 -7.702994811649567453e+00 -1.716000687719461126e+01 -7.702994811649567453e+00 3.610427394002150514e+00 -6.868602879122769345e+00 -1.716000687719461126e+01 -6.868602879122769345e+00 -5.502903412991106080e+00
-1.424744150186771741e+01 -7.718152670937630688e+00 -1.703874400289011248e+01 -7.718152670937630688e+00 3.536694325772582914e+00 -6.852535184343226504e+00 -1.703874400289011248e+01 -6.852535184343226504e+00 -5.658012167578676532e+00
-1.424651346966640908e+01 -7.728270041602891993e+00 -1.689469884787894216e+01 -7.728270041602891993e+00 3.471277153935146131e+00 -6.824512251205631763e+00 -1.689469884787894216e+01 -6.824512251205631763e+00 -5.781276679964433285e+00
-1.421887266743523526e+01 -7.733565284163307574e+00 -1.672818075622820899e+01 -7.733565284163307574e+00 3.413866534422735910e+00 -6.784734243518110830e+00 -1.672818075622820899e+01 -6.784734243518110830e+00 -5.873661375769348325e+00
-1.416604761879988672e+01 -7.734147578877855089e+00 -1.653933530161654630e+01 -7.734147578877855089e+00 3.363898369230635232e+00 -6.733383128378959803e+00 -1.653933530161654630e+01 -6.733383128378959803e+00 -5.936640188489618275e+00
-1.408980340461383385e+01 -7.730198892844829750e+00 -1.632818068075378903e+01 -7.730198892844829750e+00 3.320462822867363162e+00 -6.670531692627497122e+00 -1.632818068075378903e+01 -6.670531692627497122e+00 -5.972141969367181780e+00
-1.399206887611901351e+01 -7.721919389872358153e+00 -1.609455312325146537e+01 -7.721919389872358153e+00 3.282650059841440093e+00 -6.596216329683382895e+00 -1.609455312325146537e+01 -6.596216329683382895e+00 -5.982459503840567905e+00
-1.387513681875395832e+01 -7.709454643639078064e+00 -1.583808869491298310e+01 -7.709454643639078064e+00 3.249168113754963283e+00 -6.510382449417126516e+00 -1.583808869491298310e+01 -6.510382449417126516e+00 -5.970285904964561574e+00
-1.374124542782771208e+01 -7.692986621243284695e+00 -1.555835067470243693e+01 -7.692986621243284695e+00 3.218688624790371211e+00 -6.412939068279581711e+00 -1.555835067470243693e+01 -6.412939068279581711e+00 -5.938059531856326956e+00
-2.970874888231874067e+01 7.997569967537369706e+00 1.591605586947233419e+01 7.997569967537369706e+00 2.366374677258529680e+00 -1.166995780753478407e+01 1.591605586947233419e+01 -1.166995780753478407e+01 -2.410374880424573973e+01
-2.959387023146818763e+01 8.027235722304659760e+00 1.597265524975640716e+01 8.027235722304659760e+00 2.281826353155117726e+00 -1.153711725289544709e+01 1.597265524975640716e+01 -1.153711725289544709e+01 -2.406446521610336831e+01
-2.942844718948332527e+01 8.053781680833196788e+00 1.601099736092732329e+01 8.053781680833196788e+00 2.218212046417048722e+00 -1.138345344288741323e+01 1.601099736092732329e+01 -1.138345344288741323e+01 -2.393557517267759849e+01
-2.921196286704648770e+01 8.076894017465834352e+00 1.603071299632960489e+01 8.076894017465834352e+00 2.176565535679647390e+00 -1.120909559984009363e+01 1.603071299632960489e+01 -1.120909559984009363e+01 -2.371602643500033381e+01
-2.894574640811738320e+01 8.096240446212640052e+00 1.603134064764390843e+01 8.096240446212640052e+00 2.156886820942914174e+00 -1.101452369240560358e+01 1.603134064764390843e+01 -1.101452369240560358e+01 -2.340681586104134837e+01
-2.863127463931790118e+01 8.111673284411429208e+00 1.601243726688366920e+01 8.111673284411429208e+00 2.159268203870718050e+00 -1.080030999089992783e+01 1.601243726688366920e+01 -1.080030999089992783e+01 -2.300930951542589753e+01
-2.827059665758592288e+01 8.122878706405046501e+00 1.597343058373290248e+01 8.122878706405046501e+00 2.183451239804226507e+00 -1.056702676563905108e+01 1.597343058373290248e+01 -1.056702676563905108e+01 -2.252581493975068483e+01
-2.786585386152319188e+01 8.129745950196852533e+00 1.591378524854117416e+01 8.129745950196852533e+00 2.229140563419061305e+00 -1.031526474727172982e+01 1.591378524854117416e+01 -1.031526474727172982e+01 -2.195899042193512685e+01
-2.741970453904911764e+01 8.132127333124655522e+00 1.583279976866307948e+01 8.132127333124655522e+00 2.295782364732013026e+00 -1.004563312677949583e+01 1.583279976866307948e+01 -1.004563312677949583e+01 -2.131208498054738243e+01
-2.693482543841588139e+01 8.129967474190136656e+00 1.572992033411541257e+01 8.129967474190136656e+00 2.382841294092644002e+00 -9.758685714145556744e+00 1.572992033411541257e+01 -9.758685714145556744e+00 -2.058864299948000109e+01