 vasp.6.1.1 19Jun20 (build Dec 21 2021 08:45:49) complex                        
  
 executed on             LinuxIFC date 2023.10.07  04:21:51
 running on   40 total cores
 distrk:  each k-point on   40 cores,    1 groups
 distr:  one band on NCORE=   1 cores,   40 groups


--------------------------------------------------------------------------------------------------------


 INCAR:
 POTCAR:   PAW_PBE Te 08Apr2002                   
 POTCAR:   PAW_PBE Mo 08Apr2002                   
 -----------------------------------------------------------------------------
|                                                                             |
|           W    W    AA    RRRRR   N    N  II  N    N   GGGG   !!!           |
|           W    W   A  A   R    R  NN   N  II  NN   N  G    G  !!!           |
|           W    W  A    A  R    R  N N  N  II  N N  N  G       !!!           |
|           W WW W  AAAAAA  RRRRR   N  N N  II  N  N N  G  GGG   !            |
|           WW  WW  A    A  R   R   N   NN  II  N   NN  G    G                |
|           W    W  A    A  R    R  N    N  II  N    N   GGGG   !!!           |
|                                                                             |
|     For optimal performance we recommend to set                             |
|       NCORE = 4 - approx SQRT(number of cores).                             |
|     NCORE specifies how many cores store one orbital (NPAR=cpu/NCORE).      |
|     This setting can greatly improve the performance of VASP for DFT.       |
|     The default, NCORE=1 might be grossly inefficient on modern             |
|     multi-core architectures or massively parallel machines. Do your        |
|     own testing!!!!                                                         |
|     Unfortunately you need to use the default for GW and RPA                |
|     calculations (for HF NCORE is supported but not extensively tested      |
|     yet).                                                                   |
|                                                                             |
 -----------------------------------------------------------------------------

 POTCAR:   PAW_PBE Te 08Apr2002                   
   VRHFIN =Te: s2p4                                                                                 
   LEXCH  = PE                                                                                      
   EATOM  =   223.2721 eV,   16.4100 Ry                                                             
                                                                                                    
   TITEL  = PAW_PBE Te 08Apr2002                                                                    
   LULTRA =        F    use ultrasoft PP ?                                                          
   IUNSCR =        1    unscreen: 0-lin 1-nonlin 2-no                                               
   RPACOR =    2.200    partial core radius                                                         
   POMASS =  127.600; ZVAL   =    6.000    mass and valenz                                          
   RCORE  =    2.300    outmost cutoff radius                                                       
   RWIGS  =    2.900; RWIGS  =    1.535    wigner-seitz radius (au A)                               
   ENMAX  =  174.982; ENMIN  =  131.236 eV                                                          
   ICORE  =        3    local potential                                                             
   LCOR   =        T    correct aug charges                                                         
   LPAW   =        T    paw PP                                                                      
   EAUG   =  368.792                                                                                
   DEXC   =    -.169                                                                                
   RMAX   =    3.486    core radius for proj-oper                                                   
   RAUG   =    1.300    factor for augmentation sphere                                              
   RDEP   =    2.397    radius for radial grids                                                     
   QCUT   =   -3.586; QGAM   =    7.172    optimization parameters                                  
                                                                                                    
   Description                                                                                      
     l     E      TYP  RCUT    TYP  RCUT                                                            
     0   .000     23  2.300                                                                         
     0   .000     23  2.300                                                                         
     1   .000     23  2.300                                                                         
     1   .000     23  2.300                                                                         
     2   .000     23  2.300                                                                         
     3  -.100     23  2.300                                                                         
  local pseudopotential read in
  partial core-charges read in
  atomic valenz-charges read in
  non local Contribution for L=           0  read in
    real space projection operators read in
  non local Contribution for L=           0  read in
    real space projection operators read in
  non local Contribution for L=           1  read in
    real space projection operators read in
  non local Contribution for L=           1  read in
    real space projection operators read in
  non local Contribution for L=           2  read in
    real space projection operators read in
    PAW grid and wavefunctions read in
 
   number of l-projection  operators is LMAX  =           5
   number of lm-projection operators is LMMAX =          13
 
 POTCAR:   PAW_PBE Mo 08Apr2002                   
   VRHFIN =Mo: 4p5s4d                                                                               
   LEXCH  = PE                                                                                      
   EATOM  =   217.5180 eV,   15.9871 Ry                                                             
                                                                                                    
   TITEL  = PAW_PBE Mo 08Apr2002                                                                    
   LULTRA =        F    use ultrasoft PP ?                                                          
   IUNSCR =        1    unscreen: 0-lin 1-nonlin 2-no                                               
   RPACOR =    2.200    partial core radius                                                         
   POMASS =   95.940; ZVAL   =    6.000    mass and valenz                                          
   RCORE  =    2.750    outmost cutoff radius                                                       
   RWIGS  =    2.750; RWIGS  =    1.455    wigner-seitz radius (au A)                               
   ENMAX  =  224.584; ENMIN  =  168.438 eV                                                          
   RCLOC  =    2.111    cutoff for local pot                                                        
   LCOR   =        T    correct aug charges                                                         
   LPAW   =        T    paw PP                                                                      
   EAUG   =  345.278                                                                                
   DEXC   =    -.088                                                                                
   RMAX   =    3.077    core radius for proj-oper                                                   
   RAUG   =    1.300    factor for augmentation sphere                                              
   RDEP   =    2.815    radius for radial grids                                                     
   QCUT   =   -4.063; QGAM   =    8.126    optimization parameters                                  
                                                                                                    
   Description                                                                                      
     l     E      TYP  RCUT    TYP  RCUT                                                            
     2   .000     23  2.500                                                                         
     2   .000     23  2.500                                                                         
     0   .000     23  2.600                                                                         
     0  1.000     23  2.600                                                                         
     1   .400     23  2.750                                                                         
     1  2.000     23  2.750                                                                         
     3   .000      7   .000                                                                         
  local pseudopotential read in
  partial core-charges read in
  atomic valenz-charges read in
  non local Contribution for L=           2  read in
    real space projection operators read in
  non local Contribution for L=           2  read in
    real space projection operators read in
  non local Contribution for L=           0  read in
    real space projection operators read in
  non local Contribution for L=           0  read in
    real space projection operators read in
  non local Contribution for L=           1  read in
    real space projection operators read in
  non local Contribution for L=           1  read in
    real space projection operators read in
    PAW grid and wavefunctions read in
 
   number of l-projection  operators is LMAX  =           6
   number of lm-projection operators is LMMAX =          18
 
 -----------------------------------------------------------------------------
|                                                                             |
|               ----> ADVICE to this user running VASP <----                  |
|                                                                             |
|     You have a (more or less) 'large supercell' and for larger cells it     |
|     might be more efficient to use real-space projection operators.         |
|     Therefore, try LREAL= Auto in the INCAR file.                           |
|     Mind: If you want to do very accurate calculations, keep the            |
|     reciprocal projection scheme (i.e. LREAL=.FALSE.).                      |
|                                                                             |
 -----------------------------------------------------------------------------

 PAW_PBE Te 08Apr2002                   :
 energy of atom  1       EATOM= -223.2721
 kinetic energy error for atom=    0.0006 (will be added to EATOM!!)
 PAW_PBE Mo 08Apr2002                   :
 energy of atom  2       EATOM= -217.5180
 kinetic energy error for atom=    0.0009 (will be added to EATOM!!)
 
 
 POSCAR: Te Mo
  positions in cartesian coordinates
  No initial velocities read in
 exchange correlation table for  LEXCH =        8
   RHO(1)=    0.500       N(1)  =     2000
   RHO(2)=  100.500       N(2)  =     4000
 


--------------------------------------------------------------------------------------------------------


 ion  position               nearest neighbor table
   1  0.222  0.111  0.683-  37 2.65  41 2.70  40 2.73   5 3.51   4 3.52   9 3.52   3 3.52   2 3.52
                             7 3.53  19 3.53
   2  0.223  0.445  0.683-  38 2.65  42 2.71  41 2.73   5 3.51   6 3.52   3 3.52   1 3.52   8 3.53
                             7 3.53  20 3.54
   3  0.222  0.777  0.683-  39 2.64  40 2.70  42 2.73   8 3.51   2 3.52   4 3.52   1 3.52   9 3.52
                             6 3.53  21 3.53
   4  0.555  0.111  0.683-  40 2.64  44 2.69  43 2.73   6 3.51   1 3.52   3 3.52   5 3.52   8 3.52
                            22 3.53   7 3.53
   5  0.555  0.444  0.683-  41 2.64  45 2.70  44 2.74   1 3.51   2 3.51   9 3.52   4 3.52  23 3.52
                             6 3.53   8 3.53
   6  0.556  0.778  0.683-  42 2.65  43 2.69  45 2.74   7 3.51   4 3.51   2 3.52   9 3.53   3 3.53
                             5 3.53  24 3.54
   7  0.889  0.110  0.683-  43 2.64  38 2.70  37 2.73   6 3.51   9 3.51   1 3.53   4 3.53   2 3.53
                             8 3.53  25 3.54
   8  0.889  0.445  0.683-  44 2.64  39 2.70  38 2.73   3 3.51   9 3.52   4 3.52   2 3.53   7 3.53
                             5 3.53  26 3.53
   9  0.889  0.778  0.683-  45 2.64  37 2.70  39 2.74   7 3.51   1 3.52   5 3.52   8 3.52   3 3.52
                             6 3.53  27 3.54
  10  1.000  0.222  0.438-  52 2.64  47 2.70  46 2.73  11 3.51  18 3.52  12 3.52  14 3.53  16 3.53
                            13 3.53  28 3.53
  11  1.000  0.555  0.438-  53 2.65  48 2.71  47 2.73  16 3.51  10 3.51  15 3.52  17 3.52  14 3.52
                            12 3.53  29 3.54
  12  1.000  0.889  0.438-  54 2.65  46 2.71  48 2.74  17 3.51  18 3.52  10 3.52  15 3.53  13 3.53
                            11 3.53  30 3.54
  13  0.334  0.222  0.438-  46 2.64  50 2.69  49 2.73  16 3.51  17 3.52  15 3.53  12 3.53  31 3.53
                            14 3.53  10 3.53
  14  0.334  0.556  0.438-  47 2.65  51 2.69  50 2.74  15 3.51  18 3.51  11 3.52  10 3.53  13 3.53
                            17 3.53  32 3.53
  15  0.333  0.888  0.438-  48 2.64  49 2.71  51 2.73  14 3.51  11 3.52  12 3.53  13 3.53  18 3.53
                            33 3.53  16 3.53
  16  0.666  0.223  0.438-  49 2.65  53 2.70  52 2.74  17 3.51  11 3.51  13 3.51  34 3.53  10 3.53
                            15 3.53  18 3.53
  17  0.667  0.555  0.438-  50 2.65  54 2.69  53 2.73  12 3.51  16 3.51  13 3.52  11 3.52  18 3.52
                            14 3.53  35 3.53
  18  0.667  0.888  0.438-  51 2.64  52 2.70  54 2.73  14 3.51  10 3.52  12 3.52  17 3.52  15 3.53
                            16 3.53  36 3.53
  19  0.223  0.111  0.562-  40 2.65  41 2.69  37 2.75  23 3.51  21 3.52  22 3.52  20 3.52  27 3.52
                            25 3.53   1 3.53
  20  0.223  0.444  0.562-  41 2.65  42 2.69  38 2.75  24 3.51  25 3.52  19 3.52  23 3.52  21 3.53
                            26 3.53   2 3.54
  21  0.222  0.778  0.562-  42 2.65  40 2.69  39 2.74  22 3.52  19 3.52  26 3.52  27 3.52  24 3.52
                             3 3.53  20 3.53
  22  0.556  0.111  0.562-  43 2.65  44 2.68  40 2.74  23 3.52  21 3.52  19 3.52  26 3.52  25 3.52
                            24 3.53   4 3.53
  23  0.556  0.444  0.562-  44 2.66  45 2.69  41 2.74  19 3.51  22 3.52  20 3.52  27 3.52  24 3.52
                            26 3.52   5 3.52
  24  0.555  0.777  0.562-  45 2.66  43 2.69  42 2.74  20 3.51  23 3.52  21 3.52  27 3.52  25 3.53
                            22 3.53   6 3.54
  25  0.889  0.112  0.562-  37 2.65  38 2.68  43 2.74  26 3.52  20 3.52  22 3.52  24 3.53  27 3.53
                            19 3.53   7 3.54
  26  0.889  0.444  0.562-  38 2.65  39 2.69  44 2.74  25 3.52  22 3.52  21 3.52  27 3.52  23 3.52
                            20 3.53   8 3.53
  27  0.889  0.778  0.562-  39 2.66  37 2.68  45 2.73  23 3.52  26 3.52  19 3.52  21 3.52  24 3.52
                            25 3.53   9 3.54
  28  0.000  0.223  0.317-  46 2.66  47 2.68  52 2.74  32 3.51  29 3.52  30 3.52  36 3.52  31 3.53
                            34 3.53  10 3.53
  29  1.000  0.556  0.317-  47 2.66  48 2.69  53 2.74  28 3.52  34 3.52  33 3.52  32 3.52  30 3.53
                            35 3.53  11 3.54
  30  1.000  0.889  0.317-  48 2.65  46 2.68  54 2.74  36 3.52  28 3.52  31 3.52  35 3.52  29 3.53
                            33 3.53  12 3.54
  31  0.334  0.222  0.317-  49 2.65  50 2.68  46 2.75  34 3.51  35 3.51  33 3.51  30 3.52  32 3.52
                            28 3.53  13 3.53
  32  0.333  0.556  0.317-  50 2.65  51 2.69  47 2.74  28 3.51  36 3.52  35 3.52  29 3.52  31 3.52
                            33 3.53  14 3.53
  33  0.334  0.889  0.317-  51 2.66  49 2.68  48 2.74  34 3.51  31 3.51  29 3.52  32 3.53  15 3.53
                            36 3.53  30 3.53
  34  0.666  0.222  0.317-  52 2.65  53 2.68  49 2.73  31 3.51  33 3.51  35 3.52  29 3.52  16 3.53
                            36 3.53  28 3.53
  35  0.666  0.555  0.317-  53 2.65  54 2.68  50 2.73  31 3.51  36 3.52  34 3.52  32 3.52  30 3.52
                            29 3.53  17 3.53
  36  0.667  0.889  0.317-  54 2.65  52 2.69  51 2.74  30 3.52  35 3.52  32 3.52  28 3.52  33 3.53
                            34 3.53  18 3.53
  37  1.000  1.000  0.622-   1 2.65  25 2.65  27 2.68   9 2.70   7 2.73  19 2.75
  38  1.000  0.333  0.622-   2 2.65  26 2.65  25 2.68   7 2.70   8 2.73  20 2.75
  39  0.000  0.667  0.622-   3 2.64  27 2.66  26 2.69   8 2.70   9 2.74  21 2.74
  40  0.333  0.000  0.622-   4 2.64  19 2.65  21 2.69   3 2.70   1 2.73  22 2.74
  41  0.333  0.334  0.622-   5 2.64  20 2.65  19 2.69   1 2.70   2 2.73  23 2.74
  42  0.333  0.667  0.622-   6 2.65  21 2.65  20 2.69   2 2.71   3 2.73  24 2.74
  43  0.667  0.000  0.622-   7 2.64  22 2.65  24 2.69   6 2.69   4 2.73  25 2.74
  44  0.667  0.333  0.622-   8 2.64  23 2.66  22 2.68   4 2.69   5 2.74  26 2.74
  45  0.668  0.667  0.622-   9 2.64  24 2.66  23 2.69   5 2.70  27 2.73   6 2.74
  46  0.111  0.111  0.378-  13 2.64  28 2.66  30 2.68  12 2.71  10 2.73  31 2.75
  47  0.111  0.444  0.378-  14 2.65  29 2.66  28 2.68  10 2.70  11 2.73  32 2.74
  48  0.111  0.778  0.378-  15 2.64  30 2.65  29 2.69  11 2.71  33 2.74  12 2.74
  49  0.444  0.111  0.378-  16 2.65  31 2.65  33 2.68  15 2.71  13 2.73  34 2.73
  50  0.444  0.444  0.378-  32 2.65  17 2.65  31 2.68  13 2.69  35 2.73  14 2.74
  51  0.445  0.778  0.378-  18 2.64  33 2.66  32 2.69  14 2.69  15 2.73  36 2.74
  52  0.778  0.111  0.378-  10 2.64  34 2.65  36 2.69  18 2.70  16 2.74  28 2.74
  53  0.778  0.445  0.378-  11 2.65  35 2.65  34 2.68  16 2.70  17 2.73  29 2.74
  54  0.777  0.777  0.378-  12 2.65  36 2.65  35 2.68  17 2.69  18 2.73  30 2.74
 

IMPORTANT INFORMATION: All symmetrisations will be switched off!
NOSYMM: (Re-)initialisation of all symmetry stuff for point group C_1.


----------------------------------------------------------------------------------------

                                     Primitive cell                                     

  volume of cell :    2820.7740

  direct lattice vectors                    reciprocal lattice vectors
    10.572816299  0.000000000  0.000000000     0.094582179  0.054788523  0.003879709
    -5.295396414  9.141515446  0.000000000     0.000000000  0.109391053  0.000588039
    -1.106272570 -0.156885930 29.184980075     0.000000000  0.000000000  0.034264200

  length of vectors
    10.572816299 10.564493733 29.206360851     0.109373776  0.109392633  0.034264200

  position of ions in fractional coordinates (direct lattice)
     0.222456545  0.111034710  0.682733955
     0.222772031  0.444623480  0.682888764
     0.221546640  0.777215993  0.682611396
     0.555190951  0.110871902  0.682659923
     0.554981812  0.444237697  0.682599527
     0.555561826  0.778377292  0.682731342
     0.888592523  0.110348692  0.682894340
     0.889231468  0.444701629  0.682890930
     0.888663748  0.777721149  0.682858609
     0.999890921  0.222130452  0.438147398
     0.999844667  0.554724792  0.438269572
     0.999642872  0.888508955  0.438387264
     0.334037079  0.222279955  0.437966711
     0.333748779  0.556472313  0.438196805
     0.332698740  0.887860531  0.438121205
     0.666478191  0.222684958  0.438147232
     0.667381157  0.555486401  0.438231682
     0.666548630  0.888384918  0.438125119
     0.222885383  0.111280909  0.561717481
     0.222699883  0.444263467  0.561800050
     0.222297091  0.777995587  0.561840606
     0.555590576  0.111180257  0.561905732
     0.555517521  0.444081543  0.561960771
     0.555248002  0.777283663  0.561694527
     0.888961157  0.111614259  0.561795300
     0.888905114  0.444477798  0.561887719
     0.888800810  0.777651300  0.561706717
     0.000269189  0.222684608  0.317116461
     0.999973087  0.555504715  0.317126977
     0.999656341  0.889360836  0.317254204
     0.333991293  0.222270835  0.317067368
     0.333319589  0.555554532  0.317208606
     0.333576892  0.889479585  0.317345593
     0.665993874  0.222319862  0.317365142
     0.665980084  0.555295494  0.317210669
     0.666736609  0.888547243  0.317179552
     0.999565538  0.999886342  0.622151619
     0.999845641  0.333239388  0.622373831
     0.000027645  0.666622449  0.622409648
     0.333433342  0.000361788  0.622325961
     0.333168437  0.333593543  0.622245364
     0.333376321  0.667352557  0.622206590
     0.666692982  0.000044168  0.622333768
     0.667093809  0.333100906  0.622460536
     0.667708702  0.667075612  0.622316176
     0.111398599  0.111372067  0.377753987
     0.111017922  0.444234535  0.377699332
     0.111105819  0.778208936  0.377529884
     0.444411614  0.111038731  0.377598545
     0.444316856  0.443996091  0.377556356
     0.444704440  0.778001665  0.377763801
     0.777842240  0.111312475  0.377629536
     0.777690214  0.444675551  0.377580551
     0.776986285  0.776987306  0.377743375

  ion indices of the primitive-cell ions
   primitive index   ion index
                 1           1
                 2           2
                 3           3
                 4           4
                 5           5
                 6           6
                 7           7
                 8           8
                 9           9
                10          10
                11          11
                12          12
                13          13
                14          14
                15          15
                16          16
                17          17
                18          18
                19          19
                20          20
                21          21
                22          22
                23          23
                24          24
                25          25
                26          26
                27          27
                28          28
                29          29
                30          30
                31          31
                32          32
                33          33
                34          34
                35          35
                36          36
                37          37
                38          38
                39          39
                40          40
                41          41
                42          42
                43          43
                44          44
                45          45
                46          46
                47          47
                48          48
                49          49
                50          50
                51          51
                52          52
                53          53
                54          54

----------------------------------------------------------------------------------------

 
 

Automatic generation of k-mesh.
 generate k-points for:    3    3    1
Space group operators:
 irot       det(A)        alpha          n_x          n_y          n_z        tau_x        tau_y        tau_z
    1     1.000000     0.000000     1.000000     0.000000     0.000000     0.000000     0.000000     0.000000
 
 Subroutine IBZKPT returns following result:
 ===========================================
 
 Found      5 irreducible k-points:
 
 Following reciprocal coordinates:
            Coordinates               Weight
  0.000000  0.000000  0.000000      1.000000
  0.333333 -0.000000 -0.000000      2.000000
  0.000000  0.333333 -0.000000      2.000000
  0.333333  0.333333  0.000000      2.000000
 -0.333333  0.333333  0.000000      2.000000
 
 Following cartesian coordinates:
            Coordinates               Weight
  0.000000  0.000000  0.000000      1.000000
  0.031527  0.018263  0.001293      2.000000
  0.000000  0.036464  0.000196      2.000000
  0.031527  0.054727  0.001489      2.000000
 -0.031527  0.018201 -0.001097      2.000000
 


--------------------------------------------------------------------------------------------------------




 Dimension of arrays:
   k-points           NKPTS =      5   k-points in BZ     NKDIM =      5   number of bands    NBANDS=    200
   number of dos      NEDOS =    301   number of ions     NIONS =     54
   non local maximal  LDIM  =      6   non local SUM 2l+1 LMDIM =     18
   total plane-waves  NPLWV = ******
   max r-space proj   IRMAX =      1   max aug-charges    IRDMAX=  36170
   dimension x,y,z NGX =    84 NGY =   84 NGZ =  224
   dimension x,y,z NGXF=   168 NGYF=  168 NGZF=  448
   support grid    NGXF=   168 NGYF=  168 NGZF=  448
   ions per type =              36  18
   NGX,Y,Z   is equivalent  to a cutoff of  13.21, 13.22, 12.75 a.u.
   NGXF,Y,Z  is equivalent  to a cutoff of  26.42, 26.44, 25.50 a.u.

 SYSTEM =  dpgen_md                                
 POSCAR =  Te Mo                                   

 Startparameter for this run:
   NWRITE =      2    write-flag & timer
   PREC   = a         normal or accurate (medium, high low for compatibility)
   ISTART =      0    job   : 0-new  1-cont  2-samecut
   ICHARG =      2    charge: 1-file 2-atom 10-const
   ISPIN  =      1    spin polarized calculation?
   LNONCOLLINEAR =      F non collinear calculations
   LSORBIT =      F    spin-orbit coupling
   INIWAV =      1    electr: 0-lowe 1-rand  2-diag
   LASPH  =      F    aspherical Exc in radial PAW
   METAGGA=      F    non-selfconsistent MetaGGA calc.

 Electronic Relaxation 1
   ENCUT  =  550.0 eV  40.42 Ry    6.36 a.u.  20.22 20.20 55.85*2*pi/ulx,y,z
   ENINI  =  550.0     initial cutoff
   ENAUG  =  368.8 eV  augmentation charge cutoff
   NELM   =    100;   NELMIN=  6; NELMDL= -5     # of ELM steps 
   EDIFF  = 0.1E-05   stopping-criterion for ELM
   LREAL  =      F    real-space projection
   NLSPLINE    = F    spline interpolate recip. space projectors
   LCOMPAT=      F    compatible to vasp.4.4
   GGA_COMPAT  = T    GGA compatible to vasp.4.4-vasp.4.6
   LMAXPAW     = -100 max onsite density
   LMAXMIX     =    2 max onsite mixed and CHGCAR
   VOSKOWN=      0    Vosko Wilk Nusair interpolation
   ROPT   =    0.00000   0.00000
 Ionic relaxation
   EDIFFG = 0.1E-04   stopping-criterion for IOM
   NSW    =     10    number of steps for IOM
   NBLOCK =      1;   KBLOCK =      1    inner block; outer block 
   IBRION =      0    ionic relax: 0-MD 1-quasi-New 2-CG
   NFREE  =      0    steps in history (QN), initial steepest desc. (CG)
   ISIF   =      2    stress and relaxation
   IWAVPR =     11    prediction:  0-non 1-charg 2-wave 3-comb
   ISYM   =      0    0-nonsym 1-usesym 2-fastsym
   LCORR  =      T    Harris-Foulkes like correction to forces

   POTIM  = 2.0000    time-step for ionic-motion
   TEIN   =  100.0    initial temperature
   TEBEG  =  100.0;   TEEND  = 100.0 temperature during run
   SMASS  =   0.04    Nose mass-parameter (am)
   estimated Nose-frequenzy (Omega)   =  0.79E+14 period in steps = 0.40E+02 mass=   0.327E-28a.u.
   SCALEE = 1.0000    scale energy and forces
   NPACO  =    256;   APACO  = 16.0  distance and # of slots for P.C.
   PSTRESS=    0.0 pullay stress

  Mass of Ions in am
   POMASS = 127.60 95.94
  Ionic Valenz
   ZVAL   =   6.00  6.00
  Atomic Wigner-Seitz radii
   RWIGS  =  -1.00 -1.00
  virtual crystal weights 
   VCA    =   1.00  1.00
   NELECT =     324.0000    total number of electrons
   NUPDOWN=      -1.0000    fix difference up-down

 DOS related values:
   EMIN   =  10.00;   EMAX   =-10.00  energy-range for DOS
   EFERMI =   0.00
   ISMEAR =     0;   SIGMA  =   0.10  broadening in eV -4-tet -1-fermi 0-gaus

 Electronic relaxation 2 (details)
   IALGO  =     68    algorithm
   LDIAG  =      T    sub-space diagonalisation (order eigenvalues)
   LSUBROT=      F    optimize rotation matrix (better conditioning)
   TURBO    =      0    0=normal 1=particle mesh
   IRESTART =      0    0=no restart 2=restart with 2 vectors
   NREBOOT  =      0    no. of reboots
   NMIN     =      0    reboot dimension
   EREF     =   0.00    reference energy to select bands
   IMIX   =      4    mixing-type and parameters
     AMIX     =   0.40;   BMIX     =  1.00
     AMIX_MAG =   1.60;   BMIX_MAG =  1.00
     AMIN     =   0.10
     WC   =   100.;   INIMIX=   1;  MIXPRE=   1;  MAXMIX= -45

 Intra band minimization:
   WEIMIN = 0.0010     energy-eigenvalue tresh-hold
   EBREAK =  0.13E-08  absolut break condition
   DEPER  =   0.30     relativ break condition  

   TIME   =   0.40     timestep for ELM

  volume/ion in A,a.u.               =      52.24       352.51
  Fermi-wavevector in a.u.,A,eV,Ry     =   0.795794  1.503832  8.616397  0.633287
  Thomas-Fermi vector in A             =   1.902191
 
 Write flags
   LWAVE        =      F    write WAVECAR
   LDOWNSAMPLE  =      F    k-point downsampling of WAVECAR
   LCHARG       =      F    write CHGCAR
   LVTOT        =      F    write LOCPOT, total local potential
   LVHAR        =      F    write LOCPOT, Hartree potential only
   LELF         =      F    write electronic localiz. function (ELF)
   LORBIT       =      0    0 simple, 1 ext, 2 COOP (PROOUT), +10 PAW based schemes


 Dipole corrections
   LMONO  =      F    monopole corrections only (constant potential shift)
   LDIPOL =      F    correct potential (dipole corrections)
   IDIPOL =      0    1-x, 2-y, 3-z, 4-all directions 
   EPSILON=  1.0000000 bulk dielectric constant

 Exchange correlation treatment:
   GGA     =    --    GGA type
   LEXCH   =     8    internal setting for exchange type
   VOSKOWN=      0    Vosko Wilk Nusair interpolation
   LHFCALC =     F    Hartree Fock is set to
   LHFONE  =     F    Hartree Fock one center treatment
   AEXX    =    0.0000 exact exchange contribution

 Linear response parameters
   LEPSILON=     F    determine dielectric tensor
   LRPA    =     F    only Hartree local field effects (RPA)
   LNABLA  =     F    use nabla operator in PAW spheres
   LVEL    =     F    velocity operator in full k-point grid
   LINTERFAST=   F  fast interpolation
   KINTER  =     0    interpolate to denser k-point grid
   CSHIFT  =0.1000    complex shift for real part using Kramers Kronig
   OMEGAMAX=  -1.0    maximum frequency
   DEG_THRESHOLD= 0.2000000E-02 threshold for treating states as degnerate
   RTIME   =   -0.100 relaxation time in fs
  (WPLASMAI=    0.000 imaginary part of plasma frequency in eV, 0.658/RTIME)
   DFIELD  = 0.0000000 0.0000000 0.0000000 field for delta impulse in time
 
 Orbital magnetization related:
   ORBITALMAG=     F  switch on orbital magnetization
   LCHIMAG   =     F  perturbation theory with respect to B field
   DQ        =  0.001000  dq finite difference perturbation B field
   LLRAUG    =     F  two centre corrections for induced B field



--------------------------------------------------------------------------------------------------------


 molecular dynamics for ions
   using nose mass (canonical ensemble)
 charge density and potential will be updated during run
 non-spin polarized calculation
 RMM-DIIS sequential band-by-band and
  variant of blocked Davidson during initial phase
 perform sub-space diagonalisation
    before iterative eigenvector-optimisation
 modified Broyden-mixing scheme, WC =      100.0
 initial mixing is a Kerker type mixing with AMIX =  0.4000 and BMIX =      1.0000
 Hartree-type preconditioning will be used
 using additional bands           38
 reciprocal scheme for non local part
 use partial core corrections
 calculate Harris-corrections to forces 
   (improved forces if not selfconsistent)
 use gradient corrections 
 use of overlap-Matrix (Vanderbilt PP)
 Gauss-broadening in eV      SIGMA  =   0.10


--------------------------------------------------------------------------------------------------------


  energy-cutoff  :      550.00
  volume of cell :     2820.77
      direct lattice vectors                 reciprocal lattice vectors
    10.572816299  0.000000000  0.000000000     0.094582179  0.054788523  0.003879709
    -5.295396414  9.141515446  0.000000000     0.000000000  0.109391053  0.000588039
    -1.106272570 -0.156885930 29.184980075     0.000000000  0.000000000  0.034264200

  length of vectors
    10.572816299 10.564493733 29.206360851     0.109373776  0.109392633  0.034264200


 
 k-points in units of 2pi/SCALE and weight: read from INCAR                         
   0.00000000  0.00000000  0.00000000       0.111
   0.03152739  0.01826284  0.00129324       0.222
   0.00000000  0.03646368  0.00019601       0.222
   0.03152739  0.05472653  0.00148925       0.222
  -0.03152739  0.01820084 -0.00109722       0.222
 
 k-points in reciprocal lattice and weights: read from INCAR                         
   0.00000000  0.00000000  0.00000000       0.111
   0.33333333 -0.00000000 -0.00000000       0.222
   0.00000000  0.33333333 -0.00000000       0.222
   0.33333333  0.33333333  0.00000000       0.222
  -0.33333333  0.33333333  0.00000000       0.222
 
 position of ions in fractional coordinates (direct lattice) 
   0.22245655  0.11103471  0.68273395
   0.22277203  0.44462348  0.68288876
   0.22154664  0.77721599  0.68261140
   0.55519095  0.11087190  0.68265992
   0.55498181  0.44423770  0.68259953
   0.55556183  0.77837729  0.68273134
   0.88859252  0.11034869  0.68289434
   0.88923147  0.44470163  0.68289093
   0.88866375  0.77772115  0.68285861
   0.99989092  0.22213045  0.43814740
   0.99984467  0.55472479  0.43826957
   0.99964287  0.88850896  0.43838726
   0.33403708  0.22227995  0.43796671
   0.33374878  0.55647231  0.43819681
   0.33269874  0.88786053  0.43812121
   0.66647819  0.22268496  0.43814723
   0.66738116  0.55548640  0.43823168
   0.66654863  0.88838492  0.43812512
   0.22288538  0.11128091  0.56171748
   0.22269988  0.44426347  0.56180005
   0.22229709  0.77799559  0.56184061
   0.55559058  0.11118026  0.56190573
   0.55551752  0.44408154  0.56196077
   0.55524800  0.77728366  0.56169453
   0.88896116  0.11161426  0.56179530
   0.88890511  0.44447780  0.56188772
   0.88880081  0.77765130  0.56170672
   0.00026919  0.22268461  0.31711646
   0.99997309  0.55550471  0.31712698
   0.99965634  0.88936084  0.31725420
   0.33399129  0.22227083  0.31706737
   0.33331959  0.55555453  0.31720861
   0.33357689  0.88947958  0.31734559
   0.66599387  0.22231986  0.31736514
   0.66598008  0.55529549  0.31721067
   0.66673661  0.88854724  0.31717955
   0.99956554  0.99988634  0.62215162
   0.99984564  0.33323939  0.62237383
   0.00002764  0.66662245  0.62240965
   0.33343334  0.00036179  0.62232596
   0.33316844  0.33359354  0.62224536
   0.33337632  0.66735256  0.62220659
   0.66669298  0.00004417  0.62233377
   0.66709381  0.33310091  0.62246054
   0.66770870  0.66707561  0.62231618
   0.11139860  0.11137207  0.37775399
   0.11101792  0.44423454  0.37769933
   0.11110582  0.77820894  0.37752988
   0.44441161  0.11103873  0.37759855
   0.44431686  0.44399609  0.37755636
   0.44470444  0.77800166  0.37776380
   0.77784224  0.11131247  0.37762954
   0.77769021  0.44467555  0.37758055
   0.77698629  0.77698731  0.37774338
 
 position of ions in cartesian coordinates  (Angst):
   1.00872954  0.90791416 19.92557687
  -0.75459093  3.95739677 19.93009497
  -2.52844912  6.99783988 19.92199998
   4.52761332  0.90643747 19.92341625
   2.76016491  3.95391551 19.92165360
   0.99674986  7.00843710 19.92550060
   8.05511817  0.90161776 19.93025769
   6.29134604  3.95811084 19.93015818
   4.52190903  7.00241899 19.92921490
   8.91068378  1.96186979 12.78732307
   7.14884071  5.00226693 12.79088872
   5.37905751  8.05354155 12.79432357
   1.87014164  1.96326483 12.78204972
   0.09715793  5.01825333 12.78876503
  -1.66869229  8.04765570 12.78655864
   5.38263609  1.96693885 12.78731824
   3.62977399  5.00923513 12.78978290
   1.85826011  8.05244878 12.78667287
   1.14583704  0.92915058 16.39371350
  -0.61949020  3.97310282 16.39612326
  -2.39103758  7.02391379 16.39730689
   4.66379267  0.92820093 16.39920759
   2.90011511  3.97141454 16.40081392
   1.13312275  7.01742864 16.39304358
   8.18628253  0.93218569 16.39598463
   6.42294337  3.97504838 16.39868189
   4.65775505  7.02078749 16.39339935
  -1.52717443  1.98592367  9.25503759
   7.28008520  5.02840217  9.25534451
   5.50869505  8.08033310  9.25905763
   2.00345347  1.98214886  9.25360483
   0.23132613  5.02884477  9.25772686
  -1.53437053  8.08140430  9.26172481
   5.51306673  1.98255032  9.26229535
   3.74985386  5.02647644  9.25778704
   1.99318677  8.07290734  9.25687889
   4.58515899  9.04286961 18.15748261
   8.11803454  2.94867131 18.16396786
  -4.21829256  5.99629210 18.16501317
   2.83495152 -0.09432689 18.16257078
   1.06764565  2.95192898 18.16021854
  -0.69749982  6.00299825 18.15908693
   6.36011776 -0.09723165 18.16279863
   4.60054793  2.94739178 18.16649835
   2.83868033  6.00044936 18.16228518
   0.17013881  0.95884519 11.02474258
  -1.59646428  4.00172116 11.02314748
  -3.36387435  7.05477988 11.01820213
   3.69296135  0.95582237 11.02020602
   1.92886495  3.99956385 11.01897472
   0.16404140  7.05284841 11.02502901
   7.21677823  0.95831995 11.02111049
   5.44993544  4.00577134 11.01968086
   3.68259033  7.04357884 11.02443288
 


--------------------------------------------------------------------------------------------------------


 k-point   1 :   0.0000 0.0000 0.0000  plane waves:   82569
 k-point   2 :   0.3333-0.0000-0.0000  plane waves:   82645
 k-point   3 :   0.0000 0.3333-0.0000  plane waves:   82643
 k-point   4 :   0.3333 0.3333 0.0000  plane waves:   82587
 k-point   5 :  -0.3333 0.3333 0.0000  plane waves:   82638

 maximum and minimum number of plane-waves per node :     82645    82569

 maximum number of plane-waves:     82645
 maximum index in each direction: 
   IXMAX=   20   IYMAX=   20   IZMAX=   55
   IXMIN=  -20   IYMIN=  -20   IZMIN=  -55


 serial   3D FFT for wavefunctions
 parallel 3D FFT for charge:
    minimum data exchange during FFTs selected (reduces bandwidth)


 total amount of memory used by VASP MPI-rank0   357817. kBytes
=======================================================================

   base      :      30000. kBytes
   nonl-proj :     190494. kBytes
   fftplans  :      18617. kBytes
   grid      :      84475. kBytes
   one-center:        839. kBytes
   wavefun   :      33392. kBytes
 
     INWAV:  cpu time    0.0001: real time    0.0001
 Broyden mixing: mesh for mixing (old mesh)
   NGX = 41   NGY = 41   NGZ =111
  (NGX  =168   NGY  =168   NGZ  =448)
  gives a total of 186591 points

 initial charge density was supplied:
 charge density of overlapping atoms calculated
 number of electron     324.0000000 magnetization 
 keeping initial charge density in first step


--------------------------------------------------------------------------------------------------------


 Maximum index for augmentation-charges         2180 (set IRDMAX)


--------------------------------------------------------------------------------------------------------


 First call to EWALD:  gamma=   0.125
 Maximum number of real-space cells 4x 4x 2
 Maximum number of reciprocal cells 2x 2x 5

    FEWALD:  cpu time    0.0023: real time    0.0023


--------------------------------------- Iteration      1(   1)  ---------------------------------------


    POTLOK:  cpu time    0.3336: real time    0.3347
    SETDIJ:  cpu time    0.0120: real time    0.0122
     EDDAV:  cpu time   49.9749: real time   50.1031
       DOS:  cpu time    0.0008: real time    0.0010
    --------------------------------------------
      LOOP:  cpu time   50.3214: real time   50.4510

 eigenvalue-minimisations  :  2000
 total energy-change (2. order) : 0.2130117E+04  (-0.1162425E+05)
 number of electron     324.0000000 magnetization 
 augmentation part      324.0000000 magnetization 

 Free energy of the ion-electron system (eV)
  ---------------------------------------------------
  alpha Z        PSCENC =       254.42172613
  Ewald energy   TEWEN  =     57834.16900038
  -Hartree energ DENC   =    -69546.39072742
  -exchange      EXHF   =         0.00000000
  -V(xc)+E(xc)   XCENC  =     -2097.80635510
  PAW double counting   =      7476.04436201    -4809.59211051
  entropy T*S    EENTRO =        -0.12623234
  eigenvalues    EBANDS =      1066.31493203
  atomic energy  EATOM  =     11953.08265402
  Solvation  Ediel_sol  =         0.00000000
  ---------------------------------------------------
  free energy    TOTEN  =      2130.11724921 eV

  energy without entropy =     2130.24348155  energy(sigma->0) =     2130.18036538


--------------------------------------------------------------------------------------------------------




--------------------------------------- Iteration      1(   2)  ---------------------------------------


     EDDAV:  cpu time   68.3148: real time   68.4681
       DOS:  cpu time    0.0006: real time    0.0006
    --------------------------------------------
      LOOP:  cpu time   68.3154: real time   68.4687

 eigenvalue-minimisations  :  2960
 total energy-change (2. order) :-0.2222538E+04  (-0.2145995E+04)
 number of electron     324.0000000 magnetization 
 augmentation part      324.0000000 magnetization 

 Free energy of the ion-electron system (eV)
  ---------------------------------------------------
  alpha Z        PSCENC =       254.42172613
  Ewald energy   TEWEN  =     57834.16900038
  -Hartree energ DENC   =    -69546.39072742
  -exchange      EXHF   =         0.00000000
  -V(xc)+E(xc)   XCENC  =     -2097.80635510
  PAW double counting   =      7476.04436201    -4809.59211051
  entropy T*S    EENTRO =        -0.03122265
  eigenvalues    EBANDS =     -1156.31803533
  atomic energy  EATOM  =     11953.08265402
  Solvation  Ediel_sol  =         0.00000000
  ---------------------------------------------------
  free energy    TOTEN  =       -92.42070846 eV

  energy without entropy =      -92.38948582  energy(sigma->0) =      -92.40509714


--------------------------------------------------------------------------------------------------------




--------------------------------------- Iteration      1(   3)  ---------------------------------------


     EDDAV:  cpu time   60.6626: real time   60.8486
       DOS:  cpu time    0.0004: real time    0.0004
    --------------------------------------------
      LOOP:  cpu time   60.6630: real time   60.8489

 eigenvalue-minimisations  :  2560
 total energy-change (2. order) :-0.2314305E+03  (-0.2277801E+03)
 number of electron     324.0000000 magnetization 
 augmentation part      324.0000000 magnetization 

 Free energy of the ion-electron system (eV)
  ---------------------------------------------------
  alpha Z        PSCENC =       254.42172613
  Ewald energy   TEWEN  =     57834.16900038
  -Hartree energ DENC   =    -69546.39072742
  -exchange      EXHF   =         0.00000000
  -V(xc)+E(xc)   XCENC  =     -2097.80635510
  PAW double counting   =      7476.04436201    -4809.59211051
  entropy T*S    EENTRO =        -0.00000000
  eigenvalues    EBANDS =     -1387.77979703
  atomic energy  EATOM  =     11953.08265402
  Solvation  Ediel_sol  =         0.00000000
  ---------------------------------------------------
  free energy    TOTEN  =      -323.85124752 eV

  energy without entropy =     -323.85124752  energy(sigma->0) =     -323.85124752


--------------------------------------------------------------------------------------------------------




--------------------------------------- Iteration      1(   4)  ---------------------------------------


     EDDAV:  cpu time   69.8760: real time   70.0601
       DOS:  cpu time    0.0004: real time    0.0004
    --------------------------------------------
      LOOP:  cpu time   69.8764: real time   70.0604

 eigenvalue-minimisations  :  3040
 total energy-change (2. order) :-0.1035259E+02  (-0.1026959E+02)
 number of electron     324.0000000 magnetization 
 augmentation part      324.0000000 magnetization 

 Free energy of the ion-electron system (eV)
  ---------------------------------------------------
  alpha Z        PSCENC =       254.42172613
  Ewald energy   TEWEN  =     57834.16900038
  -Hartree energ DENC   =    -69546.39072742
  -exchange      EXHF   =         0.00000000
  -V(xc)+E(xc)   XCENC  =     -2097.80635510
  PAW double counting   =      7476.04436201    -4809.59211051
  entropy T*S    EENTRO =        -0.00000000
  eigenvalues    EBANDS =     -1398.13239142
  atomic energy  EATOM  =     11953.08265402
  Solvation  Ediel_sol  =         0.00000000
  ---------------------------------------------------
  free energy    TOTEN  =      -334.20384190 eV

  energy without entropy =     -334.20384190  energy(sigma->0) =     -334.20384190


--------------------------------------------------------------------------------------------------------




--------------------------------------- Iteration      1(   5)  ---------------------------------------


     EDDAV:  cpu time   69.1101: real time   69.2621
       DOS:  cpu time    0.0004: real time    0.0004
    CHARGE:  cpu time    1.1604: real time    1.1658
    MIXING:  cpu time    0.0071: real time    0.0075
    --------------------------------------------
      LOOP:  cpu time   70.2779: real time   70.4358

 eigenvalue-minimisations  :  3000
 total energy-change (2. order) :-0.3241927E+00  (-0.3234907E+00)
 number of electron     323.9999988 magnetization 
 augmentation part      -25.2365358 magnetization 

 Broyden mixing:
  rms(total) = 0.18602E+01    rms(broyden)= 0.18602E+01
  rms(prec ) = 0.19706E+01
  weight for this iteration     100.00

 Free energy of the ion-electron system (eV)
  ---------------------------------------------------
  alpha Z        PSCENC =       254.42172613
  Ewald energy   TEWEN  =     57834.16900038
  -Hartree energ DENC   =    -69546.39072742
  -exchange      EXHF   =         0.00000000
  -V(xc)+E(xc)   XCENC  =     -2097.80635510
  PAW double counting   =      7476.04436201    -4809.59211051
  entropy T*S    EENTRO =        -0.00000000
  eigenvalues    EBANDS =     -1398.45658413
  atomic energy  EATOM  =     11953.08265402
  Solvation  Ediel_sol  =         0.00000000
  ---------------------------------------------------
  free energy    TOTEN  =      -334.52803461 eV

  energy without entropy =     -334.52803461  energy(sigma->0) =     -334.52803461


--------------------------------------------------------------------------------------------------------




--------------------------------------- Iteration      1(   6)  ---------------------------------------


    POTLOK:  cpu time    0.2915: real time    0.2918
    SETDIJ:  cpu time    0.0117: real time    0.0117
    EDDIAG:  cpu time    2.5134: real time    2.5206
  RMM-DIIS:  cpu time   43.1418: real time   43.2841
    ORTHCH:  cpu time    0.2252: real time    0.2256
       DOS:  cpu time    0.0006: real time    0.0006
    CHARGE:  cpu time    1.1549: real time    1.1600
    MIXING:  cpu time    0.0091: real time    0.0091
    --------------------------------------------
      LOOP:  cpu time   47.3481: real time   47.5034

 eigenvalue-minimisations  :  2131
 total energy-change (2. order) : 0.8528582E+01  (-0.4540895E+01)
 number of electron     323.9999988 magnetization 
 augmentation part      -20.2309452 magnetization 

 Broyden mixing:
  rms(total) = 0.69802E+00    rms(broyden)= 0.69802E+00
  rms(prec ) = 0.79699E+00
  weight for this iteration     100.00

 eigenvalues of (default mixing * dielectric matrix)
  average eigenvalue GAMMA=   1.1071
  1.1071

 Free energy of the ion-electron system (eV)
  ---------------------------------------------------
  alpha Z        PSCENC =       254.42172613
  Ewald energy   TEWEN  =     57834.16900038
  -Hartree energ DENC   =    -69530.56027728
  -exchange      EXHF   =         0.00000000
  -V(xc)+E(xc)   XCENC  =     -2091.25839417
  PAW double counting   =      7745.80027936    -5091.49186802
  entropy T*S    EENTRO =        -0.00000028
  eigenvalues    EBANDS =     -1400.16257294
  atomic energy  EATOM  =     11953.08265402
  Solvation  Ediel_sol  =         0.00000000
  ---------------------------------------------------
  free energy    TOTEN  =      -325.99945278 eV

  energy without entropy =     -325.99945250  energy(sigma->0) =     -325.99945264


--------------------------------------------------------------------------------------------------------




--------------------------------------- Iteration      1(   7)  ---------------------------------------


    POTLOK:  cpu time    0.2964: real time    0.2967
    SETDIJ:  cpu time    0.0117: real time    0.0117
    EDDIAG:  cpu time    2.5071: real time    2.5140
  RMM-DIIS:  cpu time   39.7249: real time   39.8358
    ORTHCH:  cpu time    0.2131: real time    0.2134
       DOS:  cpu time    0.0004: real time    0.0004
    CHARGE:  cpu time    1.1599: real time    1.1609
    MIXING:  cpu time    0.0069: real time    0.0069
    --------------------------------------------
      LOOP:  cpu time   43.9206: real time   44.0398

 eigenvalue-minimisations  :  2014
 total energy-change (2. order) : 0.2841537E+01  (-0.9257887E+00)
 number of electron     323.9999988 magnetization 
 augmentation part      -21.6839447 magnetization 

 Broyden mixing:
  rms(total) = 0.45281E+00    rms(broyden)= 0.45281E+00
  rms(prec ) = 0.47999E+00
  weight for this iteration     100.00

 eigenvalues of (default mixing * dielectric matrix)
  average eigenvalue GAMMA=   1.5065
  0.7623  2.2507

 Free energy of the ion-electron system (eV)
  ---------------------------------------------------
  alpha Z        PSCENC =       254.42172613
  Ewald energy   TEWEN  =     57834.16900038
  -Hartree energ DENC   =    -69614.05251421
  -exchange      EXHF   =         0.00000000
  -V(xc)+E(xc)   XCENC  =     -2089.46361270
  PAW double counting   =      8075.64522465    -5427.29026259
  entropy T*S    EENTRO =        -0.00000000
  eigenvalues    EBANDS =     -1309.67013151
  atomic energy  EATOM  =     11953.08265402
  Solvation  Ediel_sol  =         0.00000000
  ---------------------------------------------------
  free energy    TOTEN  =      -323.15791583 eV

  energy without entropy =     -323.15791583  energy(sigma->0) =     -323.15791583


--------------------------------------------------------------------------------------------------------




--------------------------------------- Iteration      1(   8)  ---------------------------------------


    POTLOK:  cpu time    0.2961: real time    0.2965
    SETDIJ:  cpu time    0.0118: real time    0.0119
    EDDIAG:  cpu time    2.5057: real time    2.5127
  RMM-DIIS:  cpu time   39.6153: real time   39.7156
    ORTHCH:  cpu time    0.2175: real time    0.2178
       DOS:  cpu time    0.0038: real time    0.0037
    CHARGE:  cpu time    1.1578: real time    1.1671
    MIXING:  cpu time    0.0071: real time    0.0071
    --------------------------------------------
      LOOP:  cpu time   43.8151: real time   43.9324

 eigenvalue-minimisations  :  2004
 total energy-change (2. order) : 0.4214719E+00  (-0.6415888E+00)
 number of electron     323.9999988 magnetization 
 augmentation part      -21.4420349 magnetization 

 Broyden mixing:
  rms(total) = 0.12231E+00    rms(broyden)= 0.12231E+00
  rms(prec ) = 0.14207E+00
  weight for this iteration     100.00

 eigenvalues of (default mixing * dielectric matrix)
  average eigenvalue GAMMA=   1.2724
  2.1945  0.8114  0.8114

 Free energy of the ion-electron system (eV)
  ---------------------------------------------------
  alpha Z        PSCENC =       254.42172613
  Ewald energy   TEWEN  =     57834.16900038
  -Hartree energ DENC   =    -69672.94402665
  -exchange      EXHF   =         0.00000000
  -V(xc)+E(xc)   XCENC  =     -2085.47316025
  PAW double counting   =      8421.39384795    -5779.87043911
  entropy T*S    EENTRO =        -0.00000000
  eigenvalues    EBANDS =     -1247.51604643
  atomic energy  EATOM  =     11953.08265402
  Solvation  Ediel_sol  =         0.00000000
  ---------------------------------------------------
  free energy    TOTEN  =      -322.73644394 eV

  energy without entropy =     -322.73644394  energy(sigma->0) =     -322.73644394


--------------------------------------------------------------------------------------------------------




--------------------------------------- Iteration      1(   9)  ---------------------------------------


    POTLOK:  cpu time    0.3029: real time    0.3032
    SETDIJ:  cpu time    0.0117: real time    0.0117
    EDDIAG:  cpu time    2.5217: real time    2.5242
  RMM-DIIS:  cpu time   45.1986: real time   45.3243
    ORTHCH:  cpu time    0.2124: real time    0.2136
       DOS:  cpu time    0.0005: real time    0.0004
    CHARGE:  cpu time    1.1607: real time    1.1619
    MIXING:  cpu time    0.0072: real time    0.0072
    --------------------------------------------
      LOOP:  cpu time   49.4156: real time   49.5466

 eigenvalue-minimisations  :  2252
 total energy-change (2. order) :-0.3663867E-01  (-0.1154095E+00)
 number of electron     323.9999988 magnetization 
 augmentation part      -21.1559923 magnetization 

 Broyden mixing:
  rms(total) = 0.95354E-01    rms(broyden)= 0.95353E-01
  rms(prec ) = 0.10675E+00
  weight for this iteration     100.00

 eigenvalues of (default mixing * dielectric matrix)
  average eigenvalue GAMMA=   1.1944
  1.9779  1.6092  0.7662  0.4243

 Free energy of the ion-electron system (eV)
  ---------------------------------------------------
  alpha Z        PSCENC =       254.42172613
  Ewald energy   TEWEN  =     57834.16900038
  -Hartree energ DENC   =    -69670.83839325
  -exchange      EXHF   =         0.00000000
  -V(xc)+E(xc)   XCENC  =     -2085.21792492
  PAW double counting   =      8419.58695039    -5778.10854023
  entropy T*S    EENTRO =        -0.00000000
  eigenvalues    EBANDS =     -1249.86855513
  atomic energy  EATOM  =     11953.08265402
  Solvation  Ediel_sol  =         0.00000000
  ---------------------------------------------------
  free energy    TOTEN  =      -322.77308261 eV

  energy without entropy =     -322.77308261  energy(sigma->0) =     -322.77308261


--------------------------------------------------------------------------------------------------------




--------------------------------------- Iteration      1(  10)  ---------------------------------------


    POTLOK:  cpu time    0.2908: real time    0.2948
    SETDIJ:  cpu time    0.0119: real time    0.0119
    EDDIAG:  cpu time    2.5113: real time    2.5182
  RMM-DIIS:  cpu time   44.3066: real time   44.4369
    ORTHCH:  cpu time    0.2059: real time    0.2061
       DOS:  cpu time    0.0005: real time    0.0004
    CHARGE:  cpu time    1.1645: real time    1.1657
    MIXING:  cpu time    0.0110: real time    0.0110
    --------------------------------------------
      LOOP:  cpu time   48.5023: real time   48.6449

 eigenvalue-minimisations  :  2247
 total energy-change (2. order) : 0.2091754E-02  (-0.3658336E-01)
 number of electron     323.9999988 magnetization 
 augmentation part      -20.9669388 magnetization 

 Broyden mixing:
  rms(total) = 0.65195E-01    rms(broyden)= 0.65195E-01
  rms(prec ) = 0.73880E-01
  weight for this iteration     100.00

 eigenvalues of (default mixing * dielectric matrix)
  average eigenvalue GAMMA=   1.2978
  2.3806  1.8441  0.9348  0.9348  0.3947

 Free energy of the ion-electron system (eV)
  ---------------------------------------------------
  alpha Z        PSCENC =       254.42172613
  Ewald energy   TEWEN  =     57834.16900038
  -Hartree energ DENC   =    -69672.19630302
  -exchange      EXHF   =         0.00000000
  -V(xc)+E(xc)   XCENC  =     -2085.00116755
  PAW double counting   =      8429.96030063    -5788.42433180
  entropy T*S    EENTRO =        -0.00000000
  eigenvalues    EBANDS =     -1248.78286965
  atomic energy  EATOM  =     11953.08265402
  Solvation  Ediel_sol  =         0.00000000
  ---------------------------------------------------
  free energy    TOTEN  =      -322.77099086 eV

  energy without entropy =     -322.77099086  energy(sigma->0) =     -322.77099086


--------------------------------------------------------------------------------------------------------




--------------------------------------- Iteration      1(  11)  ---------------------------------------


    POTLOK:  cpu time    0.2921: real time    0.2924
    SETDIJ:  cpu time    0.0121: real time    0.0121
    EDDIAG:  cpu time    2.5001: real time    2.5068
  RMM-DIIS:  cpu time   42.3818: real time   42.4875
    ORTHCH:  cpu time    0.2084: real time    0.2127
       DOS:  cpu time    0.0004: real time    0.0004
    CHARGE:  cpu time    1.1606: real time    1.1658
    MIXING:  cpu time    0.0073: real time    0.0073
    --------------------------------------------
      LOOP:  cpu time   46.5628: real time   46.6850

 eigenvalue-minimisations  :  2127
 total energy-change (2. order) : 0.1116549E-01  (-0.1322185E-01)
 number of electron     323.9999988 magnetization 
 augmentation part      -21.2141446 magnetization 

 Broyden mixing:
  rms(total) = 0.33347E-01    rms(broyden)= 0.33347E-01
  rms(prec ) = 0.38642E-01
  weight for this iteration     100.00

 eigenvalues of (default mixing * dielectric matrix)
  average eigenvalue GAMMA=   1.2094
  2.5548  1.7421  1.2501  0.8164  0.5071  0.3859

 Free energy of the ion-electron system (eV)
  ---------------------------------------------------
  alpha Z        PSCENC =       254.42172613
  Ewald energy   TEWEN  =     57834.16900038
  -Hartree energ DENC   =    -69687.92445652
  -exchange      EXHF   =         0.00000000
  -V(xc)+E(xc)   XCENC  =     -2084.73669415
  PAW double counting   =      8476.55232008    -5835.30019349
  entropy T*S    EENTRO =        -0.00000000
  eigenvalues    EBANDS =     -1233.02418182
  atomic energy  EATOM  =     11953.08265402
  Solvation  Ediel_sol  =         0.00000000
  ---------------------------------------------------
  free energy    TOTEN  =      -322.75982536 eV

  energy without entropy =     -322.75982536  energy(sigma->0) =     -322.75982536


--------------------------------------------------------------------------------------------------------




--------------------------------------- Iteration      1(  12)  ---------------------------------------


    POTLOK:  cpu time    0.2984: real time    0.2987
    SETDIJ:  cpu time    0.0117: real time    0.0117
    EDDIAG:  cpu time    2.5330: real time    2.5437
  RMM-DIIS:  cpu time   50.1316: real time   50.2633
    ORTHCH:  cpu time    0.2115: real time    0.2117
       DOS:  cpu time    0.0005: real time    0.0005
    CHARGE:  cpu time    1.1607: real time    1.1619
    MIXING:  cpu time    0.0074: real time    0.0074
    --------------------------------------------
      LOOP:  cpu time   54.3548: real time   54.4988

 eigenvalue-minimisations  :  2557
 total energy-change (2. order) :-0.9884451E-03  (-0.3876704E-02)
 number of electron     323.9999988 magnetization 
 augmentation part      -21.2482224 magnetization 

 Broyden mixing:
  rms(total) = 0.24248E-01    rms(broyden)= 0.24248E-01
  rms(prec ) = 0.28113E-01
  weight for this iteration     100.00

 eigenvalues of (default mixing * dielectric matrix)
  average eigenvalue GAMMA=   1.2118
  2.4570  1.7890  1.7890  0.8315  0.8315  0.4125  0.3718

 Free energy of the ion-electron system (eV)
  ---------------------------------------------------
  alpha Z        PSCENC =       254.42172613
  Ewald energy   TEWEN  =     57834.16900038
  -Hartree energ DENC   =    -69691.82550212
  -exchange      EXHF   =         0.00000000
  -V(xc)+E(xc)   XCENC  =     -2084.64991543
  PAW double counting   =      8482.99210212    -5841.77937557
  entropy T*S    EENTRO =        -0.00000000
  eigenvalues    EBANDS =     -1229.17150336
  atomic energy  EATOM  =     11953.08265402
  Solvation  Ediel_sol  =         0.00000000
  ---------------------------------------------------
  free energy    TOTEN  =      -322.76081381 eV

  energy without entropy =     -322.76081381  energy(sigma->0) =     -322.76081381


--------------------------------------------------------------------------------------------------------




--------------------------------------- Iteration      1(  13)  ---------------------------------------


    POTLOK:  cpu time    0.3067: real time    0.3071
    SETDIJ:  cpu time    0.0118: real time    0.0118
    EDDIAG:  cpu time    2.5315: real time    2.5340
  RMM-DIIS:  cpu time   45.8828: real time   46.0122
    ORTHCH:  cpu time    0.2022: real time    0.2025
       DOS:  cpu time    0.0004: real time    0.0004
    CHARGE:  cpu time    1.1654: real time    1.1666
    MIXING:  cpu time    0.0075: real time    0.0075
    --------------------------------------------
      LOOP:  cpu time   50.1083: real time   50.2421

 eigenvalue-minimisations  :  2317
 total energy-change (2. order) : 0.1305633E-02  (-0.2195125E-02)
 number of electron     323.9999988 magnetization 
 augmentation part      -21.1398035 magnetization 

 Broyden mixing:
  rms(total) = 0.99962E-02    rms(broyden)= 0.99961E-02
  rms(prec ) = 0.12942E-01
  weight for this iteration     100.00

 eigenvalues of (default mixing * dielectric matrix)
  average eigenvalue GAMMA=   1.3837
  2.9870  2.6225  1.6446  1.3895  0.8192  0.8192  0.4163  0.3719

 Free energy of the ion-electron system (eV)
  ---------------------------------------------------
  alpha Z        PSCENC =       254.42172613
  Ewald energy   TEWEN  =     57834.16900038
  -Hartree energ DENC   =    -69693.93690841
  -exchange      EXHF   =         0.00000000
  -V(xc)+E(xc)   XCENC  =     -2084.58341862
  PAW double counting   =      8477.02383913    -5835.75349070
  entropy T*S    EENTRO =        -0.00000000
  eigenvalues    EBANDS =     -1227.18291012
  atomic energy  EATOM  =     11953.08265402
  Solvation  Ediel_sol  =         0.00000000
  ---------------------------------------------------
  free energy    TOTEN  =      -322.75950818 eV

  energy without entropy =     -322.75950818  energy(sigma->0) =     -322.75950818


--------------------------------------------------------------------------------------------------------




--------------------------------------- Iteration      1(  14)  ---------------------------------------


    POTLOK:  cpu time    0.2938: real time    0.2982
    SETDIJ:  cpu time    0.0120: real time    0.0120
    EDDIAG:  cpu time    2.5090: real time    2.5119
  RMM-DIIS:  cpu time   43.9751: real time   44.0737
    ORTHCH:  cpu time    0.2115: real time    0.2118
       DOS:  cpu time    0.0004: real time    0.0004
    CHARGE:  cpu time    1.1598: real time    1.1652
    MIXING:  cpu time    0.0112: real time    0.0112
    --------------------------------------------
      LOOP:  cpu time   48.1728: real time   48.2844

 eigenvalue-minimisations  :  2195
 total energy-change (2. order) :-0.4113908E-03  (-0.4925755E-03)
 number of electron     323.9999988 magnetization 
 augmentation part      -21.1593376 magnetization 

 Broyden mixing:
  rms(total) = 0.44995E-02    rms(broyden)= 0.44995E-02
  rms(prec ) = 0.59848E-02
  weight for this iteration     100.00

 eigenvalues of (default mixing * dielectric matrix)
  average eigenvalue GAMMA=   1.3314
  3.2274  2.4954  1.5884  1.5884  0.8138  0.8138  0.6672  0.4160  0.3720

 Free energy of the ion-electron system (eV)
  ---------------------------------------------------
  alpha Z        PSCENC =       254.42172613
  Ewald energy   TEWEN  =     57834.16900038
  -Hartree energ DENC   =    -69703.09140373
  -exchange      EXHF   =         0.00000000
  -V(xc)+E(xc)   XCENC  =     -2084.54442926
  PAW double counting   =      8476.45743925    -5835.09452741
  entropy T*S    EENTRO =        -0.00000000
  eigenvalues    EBANDS =     -1218.16037896
  atomic energy  EATOM  =     11953.08265402
  Solvation  Ediel_sol  =         0.00000000
  ---------------------------------------------------
  free energy    TOTEN  =      -322.75991957 eV

  energy without entropy =     -322.75991957  energy(sigma->0) =     -322.75991957


--------------------------------------------------------------------------------------------------------




--------------------------------------- Iteration      1(  15)  ---------------------------------------


    POTLOK:  cpu time    0.2968: real time    0.2971
    SETDIJ:  cpu time    0.0119: real time    0.0119
    EDDIAG:  cpu time    2.5306: real time    2.5374
  RMM-DIIS:  cpu time   54.8457: real time   55.0212
    ORTHCH:  cpu time    0.2163: real time    0.2166
       DOS:  cpu time    0.0004: real time    0.0004
    CHARGE:  cpu time    1.1578: real time    1.1590
    MIXING:  cpu time    0.0078: real time    0.0078
    --------------------------------------------
      LOOP:  cpu time   59.0672: real time   59.2513

 eigenvalue-minimisations  :  2750
 total energy-change (2. order) :-0.6735774E-03  (-0.2050835E-03)
 number of electron     323.9999988 magnetization 
 augmentation part      -21.1588373 magnetization 

 Broyden mixing:
  rms(total) = 0.35890E-02    rms(broyden)= 0.35890E-02
  rms(prec ) = 0.47747E-02
  weight for this iteration     100.00

 eigenvalues of (default mixing * dielectric matrix)
  average eigenvalue GAMMA=   1.3060
  3.3577  2.4133  1.7687  1.7687  0.9170  0.8168  0.8168  0.3722  0.4223  0.4060

 Free energy of the ion-electron system (eV)
  ---------------------------------------------------
  alpha Z        PSCENC =       254.42172613
  Ewald energy   TEWEN  =     57834.16900038
  -Hartree energ DENC   =    -69704.65918491
  -exchange      EXHF   =         0.00000000
  -V(xc)+E(xc)   XCENC  =     -2084.53205054
  PAW double counting   =      8476.55729627    -5835.20064749
  entropy T*S    EENTRO =        -0.00000000
  eigenvalues    EBANDS =     -1216.59938701
  atomic energy  EATOM  =     11953.08265402
  Solvation  Ediel_sol  =         0.00000000
  ---------------------------------------------------
  free energy    TOTEN  =      -322.76059315 eV

  energy without entropy =     -322.76059315  energy(sigma->0) =     -322.76059315


--------------------------------------------------------------------------------------------------------




--------------------------------------- Iteration      1(  16)  ---------------------------------------


    POTLOK:  cpu time    0.3041: real time    0.3044
    SETDIJ:  cpu time    0.0119: real time    0.0119
    EDDIAG:  cpu time    2.5115: real time    2.5142
  RMM-DIIS:  cpu time   47.4247: real time   47.5419
    ORTHCH:  cpu time    0.2115: real time    0.2117
       DOS:  cpu time    0.0005: real time    0.0004
    CHARGE:  cpu time    1.1610: real time    1.1663
    MIXING:  cpu time    0.0080: real time    0.0080
    --------------------------------------------
      LOOP:  cpu time   51.6331: real time   51.7588

 eigenvalue-minimisations  :  2379
 total energy-change (2. order) :-0.8922673E-03  (-0.3616952E-04)
 number of electron     323.9999988 magnetization 
 augmentation part      -21.1587673 magnetization 

 Broyden mixing:
  rms(total) = 0.22180E-02    rms(broyden)= 0.22180E-02
  rms(prec ) = 0.32327E-02
  weight for this iteration     100.00

 eigenvalues of (default mixing * dielectric matrix)
  average eigenvalue GAMMA=   1.4505
  4.3720  2.4148  2.4148  1.4947  1.4947  0.9554  0.8179  0.8179  0.4165  0.3720
  0.3850

 Free energy of the ion-electron system (eV)
  ---------------------------------------------------
  alpha Z        PSCENC =       254.42172613
  Ewald energy   TEWEN  =     57834.16900038
  -Hartree energ DENC   =    -69706.52947127
  -exchange      EXHF   =         0.00000000
  -V(xc)+E(xc)   XCENC  =     -2084.51900090
  PAW double counting   =      8476.22666855    -5834.88100317
  entropy T*S    EENTRO =        -0.00000000
  eigenvalues    EBANDS =     -1214.73205915
  atomic energy  EATOM  =     11953.08265402
  Solvation  Ediel_sol  =         0.00000000
  ---------------------------------------------------
  free energy    TOTEN  =      -322.76148541 eV

  energy without entropy =     -322.76148541  energy(sigma->0) =     -322.76148541


--------------------------------------------------------------------------------------------------------




--------------------------------------- Iteration      1(  17)  ---------------------------------------


    POTLOK:  cpu time    0.3055: real time    0.3058
    SETDIJ:  cpu time    0.0121: real time    0.0121
    EDDIAG:  cpu time    2.5197: real time    2.5225
  RMM-DIIS:  cpu time   40.5187: real time   40.6731
    ORTHCH:  cpu time    0.2082: real time    0.2084
       DOS:  cpu time    0.0004: real time    0.0004
    CHARGE:  cpu time    1.1612: real time    1.1624
    MIXING:  cpu time    0.0117: real time    0.0117
    --------------------------------------------
      LOOP:  cpu time   44.7376: real time   44.8965

 eigenvalue-minimisations  :  2056
 total energy-change (2. order) :-0.1427834E-02  (-0.3799633E-04)
 number of electron     323.9999988 magnetization 
 augmentation part      -21.1598757 magnetization 

 Broyden mixing:
  rms(total) = 0.15143E-02    rms(broyden)= 0.15143E-02
  rms(prec ) = 0.18664E-02
  weight for this iteration     100.00

 eigenvalues of (default mixing * dielectric matrix)
  average eigenvalue GAMMA=   1.4543
  4.8397  2.7203  2.3441  1.6006  1.6006  0.9557  0.8211  0.8211  0.5800  0.4160
  0.3716  0.3805

 Free energy of the ion-electron system (eV)
  ---------------------------------------------------
  alpha Z        PSCENC =       254.42172613
  Ewald energy   TEWEN  =     57834.16900038
  -Hartree energ DENC   =    -69710.28722722
  -exchange      EXHF   =         0.00000000
  -V(xc)+E(xc)   XCENC  =     -2084.50419943
  PAW double counting   =      8474.91982225    -5833.57119130
  entropy T*S    EENTRO =        -0.00000000
  eigenvalues    EBANDS =     -1210.99349808
  atomic energy  EATOM  =     11953.08265402
  Solvation  Ediel_sol  =         0.00000000
  ---------------------------------------------------
  free energy    TOTEN  =      -322.76291325 eV

  energy without entropy =     -322.76291325  energy(sigma->0) =     -322.76291325


--------------------------------------------------------------------------------------------------------




--------------------------------------- Iteration      1(  18)  ---------------------------------------


    POTLOK:  cpu time    0.2986: real time    0.2990
    SETDIJ:  cpu time    0.0119: real time    0.0119
    EDDIAG:  cpu time    2.5270: real time    2.5338
  RMM-DIIS:  cpu time   47.5698: real time   47.7051
    ORTHCH:  cpu time    0.2057: real time    0.2059
       DOS:  cpu time    0.0005: real time    0.0004
    CHARGE:  cpu time    1.1586: real time    1.1635
    MIXING:  cpu time    0.0083: real time    0.0083
    --------------------------------------------
      LOOP:  cpu time   51.7804: real time   51.9279

 eigenvalue-minimisations  :  2350
 total energy-change (2. order) :-0.3555211E-03  (-0.1084754E-04)
 number of electron     323.9999988 magnetization 
 augmentation part      -21.1600599 magnetization 

 Broyden mixing:
  rms(total) = 0.12712E-02    rms(broyden)= 0.12712E-02
  rms(prec ) = 0.15611E-02
  weight for this iteration     100.00

 eigenvalues of (default mixing * dielectric matrix)
  average eigenvalue GAMMA=   1.4385
  5.0698  2.8445  2.3290  1.7392  1.7392  0.8349  0.8349  0.8639  0.8639  0.4137
  0.4137  0.3722  0.3810

 Free energy of the ion-electron system (eV)
  ---------------------------------------------------
  alpha Z        PSCENC =       254.42172613
  Ewald energy   TEWEN  =     57834.16900038
  -Hartree energ DENC   =    -69711.00260108
  -exchange      EXHF   =         0.00000000
  -V(xc)+E(xc)   XCENC  =     -2084.50253368
  PAW double counting   =      8474.85122071    -5833.50069383
  entropy T*S    EENTRO =        -0.00000000
  eigenvalues    EBANDS =     -1210.28204143
  atomic energy  EATOM  =     11953.08265402
  Solvation  Ediel_sol  =         0.00000000
  ---------------------------------------------------
  free energy    TOTEN  =      -322.76326877 eV

  energy without entropy =     -322.76326877  energy(sigma->0) =     -322.76326877


--------------------------------------------------------------------------------------------------------




--------------------------------------- Iteration      1(  19)  ---------------------------------------


    POTLOK:  cpu time    0.3059: real time    0.3073
    SETDIJ:  cpu time    0.0119: real time    0.0119
    EDDIAG:  cpu time    2.5032: real time    2.5061
  RMM-DIIS:  cpu time   42.6638: real time   42.7651
    ORTHCH:  cpu time    0.2080: real time    0.2082
       DOS:  cpu time    0.0005: real time    0.0005
    CHARGE:  cpu time    1.1610: real time    1.1662
    MIXING:  cpu time    0.0117: real time    0.0117
    --------------------------------------------
      LOOP:  cpu time   46.8659: real time   46.9770

 eigenvalue-minimisations  :  2137
 total energy-change (2. order) :-0.2793182E-03  (-0.3576721E-05)
 number of electron     323.9999988 magnetization 
 augmentation part      -21.1590235 magnetization 

 Broyden mixing:
  rms(total) = 0.71113E-03    rms(broyden)= 0.71113E-03
  rms(prec ) = 0.91440E-03
  weight for this iteration     100.00

 eigenvalues of (default mixing * dielectric matrix)
  average eigenvalue GAMMA=   1.5600
  6.4059  3.0976  2.4276  1.8537  1.8537  1.1299  1.1299  0.8195  0.8195  0.7534
  0.4161  0.3879  0.3723  0.3723

 Free energy of the ion-electron system (eV)
  ---------------------------------------------------
  alpha Z        PSCENC =       254.42172613
  Ewald energy   TEWEN  =     57834.16900038
  -Hartree energ DENC   =    -69711.36030317
  -exchange      EXHF   =         0.00000000
  -V(xc)+E(xc)   XCENC  =     -2084.50224733
  PAW double counting   =      8475.01626027    -5833.66444249
  entropy T*S    EENTRO =        -0.00000000
  eigenvalues    EBANDS =     -1209.92619591
  atomic energy  EATOM  =     11953.08265402
  Solvation  Ediel_sol  =         0.00000000
  ---------------------------------------------------
  free energy    TOTEN  =      -322.76354809 eV

  energy without entropy =     -322.76354809  energy(sigma->0) =     -322.76354809


--------------------------------------------------------------------------------------------------------




--------------------------------------- Iteration      1(  20)  ---------------------------------------


    POTLOK:  cpu time    0.2996: real time    0.2999
    SETDIJ:  cpu time    0.0117: real time    0.0117
    EDDIAG:  cpu time    2.5151: real time    2.5221
  RMM-DIIS:  cpu time   42.6638: real time   42.7555
    ORTHCH:  cpu time    0.2147: real time    0.2150
       DOS:  cpu time    0.0005: real time    0.0005
    CHARGE:  cpu time    1.1651: real time    1.1662
    MIXING:  cpu time    0.0086: real time    0.0086
    --------------------------------------------
      LOOP:  cpu time   46.8792: real time   46.9794

 eigenvalue-minimisations  :  2150
 total energy-change (2. order) :-0.3327061E-03  (-0.4841959E-05)
 number of electron     323.9999988 magnetization 
 augmentation part      -21.1574503 magnetization 

 Broyden mixing:
  rms(total) = 0.41056E-03    rms(broyden)= 0.41056E-03
  rms(prec ) = 0.51741E-03
  weight for this iteration     100.00

 eigenvalues of (default mixing * dielectric matrix)
  average eigenvalue GAMMA=   1.5685
  6.7537  3.1760  2.4637  1.8485  1.8485  1.3749  1.2340  0.8149  0.8149  0.8434
  0.8053  0.4162  0.3908  0.3724  0.3705

 Free energy of the ion-electron system (eV)
  ---------------------------------------------------
  alpha Z        PSCENC =       254.42172613
  Ewald energy   TEWEN  =     57834.16900038
  -Hartree energ DENC   =    -69711.86643214
  -exchange      EXHF   =         0.00000000
  -V(xc)+E(xc)   XCENC  =     -2084.50179863
  PAW double counting   =      8475.29468176    -5833.94351552
  entropy T*S    EENTRO =        -0.00000000
  eigenvalues    EBANDS =     -1209.42019680
  atomic energy  EATOM  =     11953.08265402
  Solvation  Ediel_sol  =         0.00000000
  ---------------------------------------------------
  free energy    TOTEN  =      -322.76388079 eV

  energy without entropy =     -322.76388079  energy(sigma->0) =     -322.76388079


--------------------------------------------------------------------------------------------------------




--------------------------------------- Iteration      1(  21)  ---------------------------------------


    POTLOK:  cpu time    0.3082: real time    0.3085
    SETDIJ:  cpu time    0.0116: real time    0.0116
    EDDIAG:  cpu time    2.5285: real time    2.5314
  RMM-DIIS:  cpu time   34.8517: real time   34.9169
    ORTHCH:  cpu time    0.2127: real time    0.2130
       DOS:  cpu time    0.0004: real time    0.0004
    CHARGE:  cpu time    1.1562: real time    1.1575
    MIXING:  cpu time    0.0087: real time    0.0087
    --------------------------------------------
      LOOP:  cpu time   39.0780: real time   39.1479

 eigenvalue-minimisations  :  1717
 total energy-change (2. order) :-0.7415755E-04  (-0.7450518E-06)
 number of electron     323.9999988 magnetization 
 augmentation part      -21.1582114 magnetization 

 Broyden mixing:
  rms(total) = 0.24724E-03    rms(broyden)= 0.24724E-03
  rms(prec ) = 0.32683E-03
  weight for this iteration     100.00

 eigenvalues of (default mixing * dielectric matrix)
  average eigenvalue GAMMA=   1.5485
  6.9087  3.2170  2.4673  1.9852  1.9852  1.7092  1.0235  1.0235  0.8149  0.8149
  0.7887  0.4881  0.4163  0.3913  0.3706  0.3724

 Free energy of the ion-electron system (eV)
  ---------------------------------------------------
  alpha Z        PSCENC =       254.42172613
  Ewald energy   TEWEN  =     57834.16900038
  -Hartree energ DENC   =    -69712.05860802
  -exchange      EXHF   =         0.00000000
  -V(xc)+E(xc)   XCENC  =     -2084.50230166
  PAW double counting   =      8475.34919357    -5833.99910371
  entropy T*S    EENTRO =        -0.00000000
  eigenvalues    EBANDS =     -1209.22651566
  atomic energy  EATOM  =     11953.08265402
  Solvation  Ediel_sol  =         0.00000000
  ---------------------------------------------------
  free energy    TOTEN  =      -322.76395495 eV

  energy without entropy =     -322.76395495  energy(sigma->0) =     -322.76395495


--------------------------------------------------------------------------------------------------------




--------------------------------------- Iteration      1(  22)  ---------------------------------------


    POTLOK:  cpu time    0.2960: real time    0.2963
    SETDIJ:  cpu time    0.0148: real time    0.0148
    EDDIAG:  cpu time    2.5127: real time    2.5220
  RMM-DIIS:  cpu time   26.2909: real time   26.3869
    ORTHCH:  cpu time    0.2159: real time    0.2161
       DOS:  cpu time    0.0004: real time    0.0004
    CHARGE:  cpu time    1.1579: real time    1.1631
    MIXING:  cpu time    0.0123: real time    0.0123
    --------------------------------------------
      LOOP:  cpu time   30.5010: real time   30.6119

 eigenvalue-minimisations  :  1304
 total energy-change (2. order) :-0.4807541E-04  (-0.2877074E-06)
 number of electron     323.9999988 magnetization 
 augmentation part      -21.1586050 magnetization 

 Broyden mixing:
  rms(total) = 0.14712E-03    rms(broyden)= 0.14712E-03
  rms(prec ) = 0.21993E-03
  weight for this iteration     100.00

 eigenvalues of (default mixing * dielectric matrix)
  average eigenvalue GAMMA=   1.6125
  7.2033  3.5053  2.8965  2.5111  1.7960  1.7960  1.1996  1.1996  0.9506  0.8157
  0.8157  0.7604  0.3723  0.3705  0.3900  0.4159  0.4137

[...]
 -0.000  -0.000   0.000   0.000  -0.000   0.011  -0.000   0.000
 -0.000   0.000   0.000   0.000  -0.000  -0.000   0.011   0.000
  0.000   0.000  -0.000  -0.000   0.000   0.000   0.000   0.011
 -0.000   0.000  -0.001  -0.000   0.001   0.000   0.000   0.000
 -0.000  -0.000  -0.017   0.001  -0.000  -0.000  -0.000   0.000
 -0.009  -0.000  -0.000  -0.021   0.000   0.000  -0.000  -0.000
 -0.000   0.000  -0.000  -0.001  -0.016   0.000   0.000  -0.000
  0.000  -0.000  -0.000   0.000  -0.001   0.000  -0.000   0.000
 total augmentation occupancy for first ion, spin component:           1
  1.930   0.245   0.001   0.199  -0.004  -0.004   0.048   0.005   0.001  -0.001   0.005   0.002  -0.000
  0.245   1.377   0.009  -0.967   0.000  -0.013   0.397   0.004   0.002  -0.002  -0.018  -0.001  -0.001
  0.001   0.009   1.349  -0.006   0.008  -0.501   0.006  -0.007  -0.001  -0.123   0.001  -0.003  -0.048
  0.199  -0.967  -0.006   1.514   0.011   0.006  -0.552  -0.005  -0.004   0.004  -0.038  -0.003   0.001
 -0.004   0.000   0.008   0.011   1.336  -0.007  -0.005  -0.498  -0.045  -0.003  -0.002  -0.121   0.000
 -0.004  -0.013  -0.501   0.006  -0.007   0.314  -0.002   0.003   0.001   0.043   0.001   0.000   0.010
  0.048   0.397   0.006  -0.552  -0.005  -0.002   0.309  -0.001  -0.000  -0.002   0.050   0.001  -0.000
  0.005   0.004  -0.007  -0.005  -0.498   0.003  -0.001   0.312   0.006   0.000  -0.001   0.043   0.001
  0.001   0.002  -0.001  -0.004  -0.045   0.001  -0.000   0.006   0.021   0.000  -0.001  -0.001  -0.000
 -0.001  -0.002  -0.123   0.004  -0.003   0.043  -0.002   0.000   0.000   0.020  -0.000   0.000  -0.000
  0.005  -0.018   0.001  -0.038  -0.002   0.001   0.050  -0.001  -0.001  -0.000   0.021   0.001   0.000
  0.002  -0.001  -0.003  -0.003  -0.121   0.000   0.001   0.043  -0.001   0.000   0.001   0.020   0.000
 -0.000  -0.001  -0.048   0.001   0.000   0.010  -0.000   0.001  -0.000  -0.000   0.000   0.000   0.021


------------------------ aborting loop because EDIFF is reached ----------------------------------------


    CHARGE:  cpu time    1.1608: real time    1.1619
    FORLOC:  cpu time    0.0798: real time    0.0799
    FORNL :  cpu time   13.3794: real time   13.4193
    STRESS:  cpu time   74.1226: real time   74.3531
    FORCOR:  cpu time    0.3357: real time    0.3360
    FORHAR:  cpu time    0.1355: real time    0.1356
    MIXING:  cpu time    0.0108: real time    0.0108
    OFIELD:  cpu time    0.0000: real time    0.0000

  Number of pair interactions contributing to vdW energy:  277000
  Edisp (eV):  -19.37879
    FORVDW:  cpu time    0.0301: real time    0.0301

  FORCE on cell =-STRESS in cart. coord.  units (eV):
  Direction    XX          YY          ZZ          XY          YZ          ZX
  --------------------------------------------------------------------------------------
  Alpha Z   254.42173   254.42173   254.42173
  Ewald   66903.75684 66929.00389-76107.89954    11.46953    -5.25975    57.47035
  Hartree 69231.21400 69238.59126-68860.75490     4.51061    -3.34085     3.31416
  E(xc)   -1361.12876 -1361.33926 -1380.98571     0.10932    -0.41320    -2.84861
  Local  ************************139888.51062   -15.40653     7.58701   -59.21030
  n-local  3572.82063  3574.18145  3760.82604    -0.62588     3.51853    20.73972
  augment  -760.24112  -760.29027  -801.57695     0.19655    -0.83217    -3.55755
  Kinetic  3294.52361  3296.23208  3297.16841     1.10181    -1.50360     8.32100
  Fock        0.00000     0.00000     0.00000     0.00000     0.00000     0.00000
  vdW       -13.51394   -13.34472    -9.88660     0.22684    -0.90406    -1.47983
  -------------------------------------------------------------------------------------
  Total      13.12838    16.48427    39.82311     1.58226    -1.14810    22.74893
  in kB       7.45681     9.36294    22.61921     0.89871    -0.65211    12.92121
  external pressure =       13.15 kB  Pullay stress =        0.00 kB

  kinetic pressure (ideal gas correction) =      0.29 kB
  total pressure  =     13.44 kB
  Total+kin.     7.719       9.601      22.986       0.968      -0.606      13.093

 VOLUME and BASIS-vectors are now :
 -----------------------------------------------------------------------------
  energy-cutoff  :      550.00
  volume of cell :     2820.77
      direct lattice vectors                 reciprocal lattice vectors
    10.572816299  0.000000000  0.000000000     0.094582179  0.054788523  0.003879709
    -5.295396414  9.141515446  0.000000000     0.000000000  0.109391053  0.000588039
    -1.106272570 -0.156885930 29.184980075     0.000000000  0.000000000  0.034264200

  length of vectors
    10.572816299 10.564493733 29.206360851     0.109373776  0.109392633  0.034264200


 FORCES acting on ions
    electron-ion (+dipol)            ewald-force                    non-local-force                 convergence-correction
 -----------------------------------------------------------------------------------------------
   -.153E+01 0.248E+01 -.827E+03   0.143E+01 -.245E+01 0.832E+03   0.393E+00 -.276E+00 -.486E+01   -.188E-02 0.177E-02 0.105E-02
   -.391E+00 -.359E-01 -.825E+03   0.265E+00 -.585E-02 0.831E+03   0.417E+00 -.131E+00 -.501E+01   0.984E-03 -.823E-03 -.116E-03
   -.401E+01 -.302E+01 -.825E+03   0.389E+01 0.303E+01 0.830E+03   0.780E+00 0.298E+00 -.484E+01   0.195E-03 -.137E-02 0.236E-02
   -.416E-01 0.394E+01 -.824E+03   -.632E-01 -.394E+01 0.830E+03   0.390E+00 -.258E+00 -.494E+01   0.169E-02 0.338E-03 0.202E-02
   0.147E+00 -.798E-01 -.823E+03   -.234E+00 0.688E-01 0.829E+03   0.318E+00 -.177E-01 -.530E+01   -.136E-02 0.729E-03 -.258E-03
   0.820E+00 -.210E+01 -.822E+03   -.914E+00 0.209E+01 0.827E+03   0.414E+00 0.296E+00 -.497E+01   0.122E-02 -.250E-03 -.674E-04
   -.151E+01 -.344E+00 -.828E+03   0.142E+01 0.313E+00 0.833E+03   0.596E+00 0.203E+00 -.490E+01   0.274E-03 -.334E-03 -.143E-05
   -.259E+01 0.546E+00 -.823E+03   0.251E+01 -.603E+00 0.829E+03   0.680E+00 -.768E-02 -.496E+01   0.454E-03 -.192E-03 0.105E-02
   -.114E+01 -.180E+01 -.825E+03   0.100E+01 0.183E+01 0.831E+03   0.523E+00 0.259E+00 -.512E+01   -.130E-02 0.143E-03 0.271E-03
   -.375E+01 -.221E+01 0.104E+03   0.373E+01 0.224E+01 -.984E+02   0.742E+00 0.305E+00 -.444E+01   0.133E-03 0.588E-03 0.324E-03
   -.375E+00 -.332E+01 0.107E+03   0.328E+00 0.339E+01 -.102E+03   0.374E+00 0.161E+00 -.550E+01   0.750E-03 0.200E-03 -.514E-03
   -.587E+01 -.266E+00 0.105E+03   0.589E+01 0.291E+00 -.992E+02   0.711E+00 0.147E+00 -.525E+01   0.842E-03 0.274E-03 0.888E-04
   -.180E+00 0.167E+01 0.104E+03   0.109E+00 -.166E+01 -.988E+02   0.447E+00 0.806E-01 -.515E+01   0.445E-03 -.170E-02 0.449E-03
   -.101E+01 0.217E+01 0.103E+03   0.966E+00 -.218E+01 -.973E+02   0.643E+00 -.886E-01 -.485E+01   -.173E-02 0.167E-03 0.111E-02
   0.350E+01 -.128E+01 0.106E+03   -.366E+01 0.132E+01 -.100E+03   0.350E+00 0.220E+00 -.513E+01   -.394E-03 0.525E-03 -.973E-03
   -.121E+01 -.526E-01 0.104E+03   0.108E+01 0.141E+00 -.983E+02   0.639E+00 -.168E+00 -.484E+01   -.517E-03 -.584E-03 -.156E-03
   -.288E+01 0.589E-01 0.103E+03   0.280E+01 -.637E-01 -.971E+02   0.564E+00 -.631E-01 -.476E+01   0.102E-02 0.251E-03 0.178E-02
   -.221E+01 -.544E+00 0.102E+03   0.216E+01 0.595E+00 -.970E+02   0.672E+00 0.646E-02 -.515E+01   -.448E-03 0.441E-03 0.116E-02
   0.366E+01 0.105E+01 -.104E+03   -.361E+01 -.105E+01 0.985E+02   -.869E+00 -.118E+00 0.464E+01   -.200E-02 0.182E-02 -.923E-03
   0.102E+01 0.295E+01 -.102E+03   -.927E+00 -.307E+01 0.968E+02   -.600E+00 -.456E+00 0.489E+01   0.876E-03 -.828E-03 0.320E-03
   0.188E+01 -.354E+00 -.104E+03   -.191E+01 0.270E+00 0.987E+02   -.375E+00 0.118E+00 0.500E+01   0.263E-03 -.143E-02 -.223E-02
   0.671E+00 0.166E+01 -.103E+03   -.601E+00 -.168E+01 0.976E+02   -.340E+00 -.730E-01 0.533E+01   0.164E-02 0.190E-03 -.183E-02
   0.263E+01 -.161E+01 -.108E+03   -.251E+01 0.156E+01 0.103E+03   -.795E+00 0.121E+00 0.497E+01   -.141E-02 0.740E-03 0.563E-03
   -.141E+00 -.169E+00 -.104E+03   0.313E+00 0.120E+00 0.989E+02   -.475E+00 0.402E-01 0.515E+01   0.105E-02 -.173E-03 0.320E-03
   -.324E+00 0.183E+01 -.102E+03   0.444E+00 -.185E+01 0.964E+02   -.424E+00 -.255E+00 0.490E+01   0.176E-03 -.244E-03 0.231E-03
   0.129E+01 -.179E+01 -.107E+03   -.124E+01 0.173E+01 0.101E+03   -.400E+00 0.158E+00 0.511E+01   0.487E-03 -.332E-03 -.802E-03
   0.147E+01 0.437E+00 -.105E+03   -.142E+01 -.494E+00 0.998E+02   -.542E+00 0.936E-01 0.514E+01   -.135E-02 0.132E-03 0.250E-04
   0.248E+00 -.104E+01 0.826E+03   -.877E-01 0.108E+01 -.832E+03   -.529E+00 0.285E-01 0.447E+01   -.265E-05 0.508E-03 -.167E-03
   0.916E+00 -.177E+01 0.823E+03   -.752E+00 0.183E+01 -.829E+03   -.657E+00 -.737E-01 0.522E+01   0.549E-03 0.291E-03 0.316E-03
   -.163E+01 0.444E+00 0.824E+03   0.181E+01 -.422E+00 -.830E+03   -.463E+00 -.682E-01 0.501E+01   0.962E-03 0.133E-03 -.293E-03
   0.202E+01 0.116E+01 0.824E+03   -.194E+01 -.114E+01 -.829E+03   -.528E+00 0.282E-01 0.509E+01   0.663E-03 -.186E-02 -.496E-03
   0.243E+01 0.517E+00 0.824E+03   -.233E+01 -.494E+00 -.830E+03   -.506E+00 -.120E+00 0.488E+01   -.176E-02 0.284E-03 -.102E-02
   0.156E+01 0.922E+00 0.823E+03   -.148E+01 -.897E+00 -.828E+03   -.392E+00 -.124E+00 0.495E+01   -.637E-03 0.634E-03 0.707E-03
   0.350E+00 0.230E+01 0.827E+03   -.314E+00 -.227E+01 -.832E+03   -.381E+00 -.356E+00 0.468E+01   -.673E-03 -.463E-03 -.129E-03
   0.523E+00 0.412E+00 0.828E+03   -.445E+00 -.417E+00 -.834E+03   -.564E+00 -.173E+00 0.496E+01   0.110E-02 0.137E-03 -.189E-02
   0.318E+01 -.812E+00 0.826E+03   -.313E+01 0.806E+00 -.831E+03   -.555E+00 0.303E-01 0.502E+01   -.407E-03 0.407E-03 -.110E-02
   0.207E+00 0.224E+01 -.465E+03   -.246E+00 -.227E+01 0.465E+03   0.201E+00 -.145E+00 0.111E+00   -.144E-02 0.545E-03 -.165E-03
   -.516E+00 -.114E+01 -.465E+03   0.618E+00 0.112E+01 0.465E+03   -.105E+00 0.240E+00 0.197E+00   0.985E-03 -.651E-03 -.171E-03
   0.198E+01 0.109E+00 -.467E+03   -.210E+01 -.164E+00 0.467E+03   -.344E+00 -.278E+00 -.240E+00   -.971E-03 -.685E-03 -.159E-03
   -.296E+01 0.204E+01 -.468E+03   0.310E+01 -.211E+01 0.468E+03   0.263E+00 -.211E+00 0.123E+00   -.383E-03 0.597E-03 -.134E-03
   -.648E+00 -.317E+01 -.465E+03   0.642E+00 0.330E+01 0.465E+03   0.300E+00 0.510E+00 0.124E+00   -.856E-03 0.115E-02 -.175E-03
   -.119E+00 -.293E+01 -.461E+03   0.108E+00 0.301E+01 0.461E+03   -.403E-01 0.246E+00 0.320E+00   0.161E-02 -.137E-02 -.900E-04
   0.252E+01 0.203E+01 -.465E+03   -.254E+01 -.205E+01 0.465E+03   -.383E+00 -.207E+00 -.142E+00   0.177E-02 -.531E-03 -.128E-03
   0.402E+00 -.313E+00 -.465E+03   -.355E+00 0.219E+00 0.465E+03   -.634E-01 0.752E-01 -.300E-01   -.119E-03 0.934E-03 -.126E-03
   -.348E+00 0.356E+00 -.462E+03   0.398E+00 -.339E+00 0.462E+03   0.688E-01 -.331E+00 0.758E-01   -.677E-03 0.161E-03 -.125E-03
   -.637E+01 0.203E+01 0.464E+03   0.659E+01 -.213E+01 -.464E+03   0.183E+00 -.213E+00 0.697E-01   0.434E-03 -.466E-03 0.224E-03
   0.167E+01 -.419E+01 0.464E+03   -.169E+01 0.428E+01 -.464E+03   -.109E+00 0.136E+00 -.243E-01   -.750E-03 0.310E-03 0.262E-03
   0.154E+01 0.703E+00 0.466E+03   -.160E+01 -.754E+00 -.466E+03   -.784E-01 -.173E+00 0.304E+00   0.704E-03 0.313E-03 0.157E-03
   0.352E+01 0.269E+01 0.464E+03   -.360E+01 -.272E+01 -.464E+03   -.898E-01 -.185E+00 0.971E-01   -.114E-03 -.994E-03 0.115E-03
   0.102E+01 0.219E+01 0.462E+03   -.102E+01 -.224E+01 -.462E+03   -.136E+00 -.468E-01 -.232E+00   -.300E-03 -.884E-03 0.164E-03
   0.124E+01 -.147E+01 0.463E+03   -.121E+01 0.149E+01 -.463E+03   -.681E-01 0.288E+00 -.248E+00   -.155E-02 0.786E-03 0.170E-03
   0.392E+01 0.291E+01 0.467E+03   -.417E+01 -.310E+01 -.467E+03   -.376E+00 -.226E-01 -.363E-02   -.382E-03 0.534E-03 0.260E-03
   -.269E+01 -.538E+01 0.468E+03   0.268E+01 0.558E+01 -.468E+03   0.447E+00 0.536E+00 0.218E+00   0.111E-02 -.380E-03 0.192E-03
   -.185E+01 -.845E+00 0.464E+03   0.180E+01 0.853E+00 -.464E+03   0.660E-01 0.191E+00 -.598E-02   0.849E-03 0.702E-03 0.193E-03
 -----------------------------------------------------------------------------------------------
   0.689E-02 -.174E+00 -.162E+00   0.109E-13 -.977E-14 -.244E-11   -.695E-02 0.176E+00 0.164E+00   -.172E-03 0.193E-03 0.161E-02
 
 
 POSITION                                       TOTAL-FORCE (eV/Angst)
 -----------------------------------------------------------------------------------
      1.00850      0.92377     19.94108         0.275224     -0.233887      0.637816
     -0.74364      3.97694     19.93879         0.280050     -0.165183      0.471031
     -2.51048      6.99114     19.93213         0.639493      0.296119      0.672242
      4.55417      0.93166     19.93128         0.279358     -0.244318      0.600620
      2.78023      3.96151     19.93992         0.219214     -0.026869      0.324333
      1.01313      6.98277     19.91724         0.310179      0.272632      0.553254
      8.05848      0.90131     19.95721         0.488209      0.166844      0.494623
      6.29280      3.96357     19.92723         0.574312     -0.062966      0.650734
      4.53352      6.98333     19.95459         0.364494      0.286972      0.372755
      8.90002      1.94729     12.75988         0.715529      0.353558      1.210586
      7.14346      5.00228     12.79674         0.332616      0.244379      0.189733
      5.35620      8.06507     12.80121         0.721532      0.199331      0.394609
      1.88227      1.96941     12.79805         0.386673      0.114036      0.499080
      0.08951      5.01638     12.79765         0.593689     -0.068126      0.753464
     -1.63851      8.05118     12.79495         0.211722      0.278446      0.522483
      5.39938      1.98922     12.78644         0.518388     -0.047649      0.722332
      3.63189      5.03515     12.78979         0.488156     -0.039474      0.795118
      1.84770      8.07178     12.81596         0.621003      0.089588      0.406003
      1.14760      0.91206     16.40963        -0.813411     -0.139408     -0.970759
     -0.61910      3.99465     16.38253        -0.512347     -0.590443     -0.726202
     -2.40749      7.01099     16.38839        -0.421860      0.006014     -0.620076
      4.64228      0.91419     16.36232        -0.280458     -0.122089     -0.255512
      2.90386      3.94389     16.41906        -0.670914      0.048462     -0.790916
      1.12059      7.02155     16.37239        -0.313805     -0.032835     -0.466576
      8.17512      0.94210     16.37534        -0.311941     -0.296390     -0.612724
      6.41062      3.95369     16.40647        -0.352183      0.064105     -0.594441
      4.66627      7.00314     16.38923        -0.488242      0.008811     -0.480855
      9.03035      1.97583      9.27451        -0.359268      0.063198     -1.131852
      7.27888      5.02675      9.24248        -0.475065     -0.018093     -0.406203
      5.48493      8.08757      9.24579        -0.289282     -0.041371     -0.545852
      1.99868      1.98567      9.24756        -0.427420      0.049061     -0.434154
      0.22801      5.02523      9.26331        -0.382071     -0.096327     -0.643427
     -1.53212      8.08312      9.26526        -0.298665     -0.093053     -0.668151
      5.51723      1.99368      9.25286        -0.331073     -0.317739     -0.876703
      3.74500      5.04638      9.22186        -0.471443     -0.170584     -0.483510
      1.98095      8.05961      9.24332        -0.483451      0.020257     -0.474012
      9.86532     -0.09753     18.16067         0.181982     -0.196573      0.168298
     -2.43962      2.93038     18.15360        -0.024041      0.246717      0.353385
     -4.19704      6.00854     18.18108        -0.484314     -0.351668     -0.355990
      2.82412     -0.09036     18.16030         0.418991     -0.286590      0.345473
      1.04795      2.91293     18.16228         0.322215      0.670631      0.199784
     -0.68964      5.97993     18.13112        -0.042248      0.339743      0.475388
      6.38131     -0.08368     18.16058        -0.441315     -0.244441     -0.178167
      4.60061      2.93471     18.16462        -0.022858      0.008762     -0.002155
      2.82992      6.00769     18.15302         0.119082     -0.345229      0.052530
      0.15339      0.97511     11.01956         0.422682     -0.323711      0.137635
     -1.59358      3.99116     11.02636        -0.153753      0.248129     -0.074306
     -3.36368      7.07290     11.00604        -0.133081     -0.244448      0.383592
      3.71421      0.97037     11.02086        -0.189777     -0.236182      0.096794
      1.93987      4.01965     11.03842        -0.156118     -0.126011     -0.320414
      0.16793      7.03198     11.04591        -0.044221      0.331385     -0.414662
      7.23287      0.95690     11.01797        -0.641210     -0.226517     -0.166200
      5.41587      3.98035     11.00041         0.495612      0.767697      0.258328
      3.67560      7.04243     11.02179         0.035195      0.215339     -0.044891
 -----------------------------------------------------------------------------------
    total drift:                               -0.000234      0.002039      0.003312


--------------------------------------------------------------------------------------------------------



  FREE ENERGIE OF THE ION-ELECTRON SYSTEM (eV)
  ---------------------------------------------------
  free  energy   TOTEN  =      -342.24994048 eV

  energy  without entropy=     -342.24994048  energy(sigma->0) =     -342.24994048
 
 d Force = 0.2364018E-01[ 0.209E-01, 0.264E-01]  d Energy = 0.2358055E-01 0.596E-04
 d Force = 0.2299220E+02[ 0.230E+02, 0.230E+02]  d Ewald  = 0.2299220E+02-0.204E-06


--------------------------------------------------------------------------------------------------------


    POTLOK:  cpu time    0.3080: real time    0.3125


--------------------------------------------------------------------------------------------------------


           RANDOM_SEED =         197151365              324                0
   IONSTEP:  cpu time    0.0001: real time    0.0001

  ENERGY OF THE ELECTRON-ION-THERMOSTAT SYSTEM (eV)
  ---------------------------------------------------
% ion-electron   TOTEN  =      -342.249940  see above
  kinetic energy EKIN   =         0.771443
  kin. lattice  EKIN_LAT=         0.000000  (temperature  112.61 K)
  nose potential ES     =         0.013667
  nose kinetic   EPS    =         0.001207
  ---------------------------------------------------
  total energy   ETOTAL =      -341.463623 eV

  maximum distance moved by ions :      0.55E-03


 mean value of Nose-termostat <S>:     1.016 mean value of <T> :   112.606
 mean temperature <T/S>/<1/S>  :   112.606

    WAVPRE:  cpu time    0.1037: real time    0.1064
    FEWALD:  cpu time    0.0018: real time    0.0018
    ORTHCH:  cpu time    8.2992: real time    8.3364
    POTLOK:  cpu time    0.3098: real time    0.3101
    EDDIAG:  cpu time    2.5318: real time    2.5386
     LOOP+:  cpu time  478.9047: real time  480.2635
    4ORBIT:  cpu time    0.0000: real time    0.0000

 total amount of memory used by VASP MPI-rank0   357817. kBytes
=======================================================================

   base      :      30000. kBytes
   nonl-proj :     190494. kBytes
   fftplans  :      18617. kBytes
   grid      :      84475. kBytes
   one-center:        839. kBytes
   wavefun   :      33392. kBytes
 
  
  
 General timing and accounting informations for this job:
 ========================================================
  
                  Total CPU time used (sec):     5747.292
                            User time (sec):     5735.858
                          System time (sec):       11.433
                         Elapsed time (sec):     5762.934
  
                   Maximum memory used (kb):      796920.
                   Average memory used (kb):           0.
  
                          Minor page faults:       395477
                          Major page faults:            0
                 Voluntary context switches:          987
