 vasp.6.1.1 19Jun20 (build Dec 21 2021 08:45:49) complex                        
  
 executed on             LinuxIFC date 2023.10.07  05:09:41
 running on   40 total cores
 distrk:  each k-point on   40 cores,    1 groups
 distr:  one band on NCORE=   1 cores,   40 groups


--------------------------------------------------------------------------------------------------------


 INCAR:
 POTCAR:   PAW_PBE Te 08Apr2002                   
 POTCAR:   PAW_PBE Mo 08Apr2002                   
 -----------------------------------------------------------------------------
|                                                                             |
|           W    W    AA    RRRRR   N    N  II  N    N   GGGG   !!!           |
|           W    W   A  A   R    R  NN   N  II  NN   N  G    G  !!!           |
|           W    W  A    A  R    R  N N  N  II  N N  N  G       !!!           |
|           W WW W  AAAAAA  RRRRR   N  N N  II  N  N N  G  GGG   !            |
|           WW  WW  A    A  R   R   N   NN  II  N   NN  G    G                |
|           W    W  A    A  R    R  N    N  II  N    N   GGGG   !!!           |
|                                                                             |
|     For optimal performance we recommend to set                             |
|       NCORE = 4 - approx SQRT(number of cores).                             |
|     NCORE specifies how many cores store one orbital (NPAR=cpu/NCORE).      |
|     This setting can greatly improve the performance of VASP for DFT.       |
|     The default, NCORE=1 might be grossly inefficient on modern             |
|     multi-core architectures or massively parallel machines. Do your        |
|     own testing!!!!                                                         |
|     Unfortunately you need to use the default for GW and RPA                |
|     calculations (for HF NCORE is supported but not extensively tested      |
|     yet).                                                                   |
|                                                                             |
 -----------------------------------------------------------------------------

 POTCAR:   PAW_PBE Te 08Apr2002                   
   VRHFIN =Te: s2p4                                                                                 
   LEXCH  = PE                                                                                      
   EATOM  =   223.2721 eV,   16.4100 Ry                                                             
                                                                                                    
   TITEL  = PAW_PBE Te 08Apr2002                                                                    
   LULTRA =        F    use ultrasoft PP ?                                                          
   IUNSCR =        1    unscreen: 0-lin 1-nonlin 2-no                                               
   RPACOR =    2.200    partial core radius                                                         
   POMASS =  127.600; ZVAL   =    6.000    mass and valenz                                          
   RCORE  =    2.300    outmost cutoff radius                                                       
   RWIGS  =    2.900; RWIGS  =    1.535    wigner-seitz radius (au A)                               
   ENMAX  =  174.982; ENMIN  =  131.236 eV                                                          
   ICORE  =        3    local potential                                                             
   LCOR   =        T    correct aug charges                                                         
   LPAW   =        T    paw PP                                                                      
   EAUG   =  368.792                                                                                
   DEXC   =    -.169                                                                                
   RMAX   =    3.486    core radius for proj-oper                                                   
   RAUG   =    1.300    factor for augmentation sphere                                              
   RDEP   =    2.397    radius for radial grids                                                     
   QCUT   =   -3.586; QGAM   =    7.172    optimization parameters                                  
                                                                                                    
   Description                                                                                      
     l     E      TYP  RCUT    TYP  RCUT                                                            
     0   .000     23  2.300                                                                         
     0   .000     23  2.300                                                                         
     1   .000     23  2.300                                                                         
     1   .000     23  2.300                                                                         
     2   .000     23  2.300                                                                         
     3  -.100     23  2.300                                                                         
  local pseudopotential read in
  partial core-charges read in
  atomic valenz-charges read in
  non local Contribution for L=           0  read in
    real space projection operators read in
  non local Contribution for L=           0  read in
    real space projection operators read in
  non local Contribution for L=           1  read in
    real space projection operators read in
  non local Contribution for L=           1  read in
    real space projection operators read in
  non local Contribution for L=           2  read in
    real space projection operators read in
    PAW grid and wavefunctions read in
 
   number of l-projection  operators is LMAX  =           5
   number of lm-projection operators is LMMAX =          13
 
 POTCAR:   PAW_PBE Mo 08Apr2002                   
   VRHFIN =Mo: 4p5s4d                                                                               
   LEXCH  = PE                                                                                      
   EATOM  =   217.5180 eV,   15.9871 Ry                                                             
                                                                                                    
   TITEL  = PAW_PBE Mo 08Apr2002                                                                    
   LULTRA =        F    use ultrasoft PP ?                                                          
   IUNSCR =        1    unscreen: 0-lin 1-nonlin 2-no                                               
   RPACOR =    2.200    partial core radius                                                         
   POMASS =   95.940; ZVAL   =    6.000    mass and valenz                                          
   RCORE  =    2.750    outmost cutoff radius                                                       
   RWIGS  =    2.750; RWIGS  =    1.455    wigner-seitz radius (au A)                               
   ENMAX  =  224.584; ENMIN  =  168.438 eV                                                          
   RCLOC  =    2.111    cutoff for local pot                                                        
   LCOR   =        T    correct aug charges                                                         
   LPAW   =        T    paw PP                                                                      
   EAUG   =  345.278                                                                                
   DEXC   =    -.088                                                                                
   RMAX   =    3.077    core radius for proj-oper                                                   
   RAUG   =    1.300    factor for augmentation sphere                                              
   RDEP   =    2.815    radius for radial grids                                                     
   QCUT   =   -4.063; QGAM   =    8.126    optimization parameters                                  
                                                                                                    
   Description                                                                                      
     l     E      TYP  RCUT    TYP  RCUT                                                            
     2   .000     23  2.500                                                                         
     2   .000     23  2.500                                                                         
     0   .000     23  2.600                                                                         
     0  1.000     23  2.600                                                                         
     1   .400     23  2.750                                                                         
     1  2.000     23  2.750                                                                         
     3   .000      7   .000                                                                         
  local pseudopotential read in
  partial core-charges read in
  atomic valenz-charges read in
  non local Contribution for L=           2  read in
    real space projection operators read in
  non local Contribution for L=           2  read in
    real space projection operators read in
  non local Contribution for L=           0  read in
    real space projection operators read in
  non local Contribution for L=           0  read in
    real space projection operators read in
  non local Contribution for L=           1  read in
    real space projection operators read in
  non local Contribution for L=           1  read in
    real space projection operators read in
    PAW grid and wavefunctions read in
 
   number of l-projection  operators is LMAX  =           6
   number of lm-projection operators is LMMAX =          18
 
 -----------------------------------------------------------------------------
|                                                                             |
|               ----> ADVICE to this user running VASP <----                  |
|                                                                             |
|     You have a (more or less) 'large supercell' and for larger cells it     |
|     might be more efficient to use real-space projection operators.         |
|     Therefore, try LREAL= Auto in the INCAR file.                           |
|     Mind: If you want to do very accurate calculations, keep the            |
|     reciprocal projection scheme (i.e. LREAL=.FALSE.).                      |
|                                                                             |
 -----------------------------------------------------------------------------

 PAW_PBE Te 08Apr2002                   :
 energy of atom  1       EATOM= -223.2721
 kinetic energy error for atom=    0.0006 (will be added to EATOM!!)
 PAW_PBE Mo 08Apr2002                   :
 energy of atom  2       EATOM= -217.5180
 kinetic energy error for atom=    0.0009 (will be added to EATOM!!)
 
 
 POSCAR: Te Mo
  positions in cartesian coordinates
  No initial velocities read in
 exchange correlation table for  LEXCH =        8
   RHO(1)=    0.500       N(1)  =     2000
   RHO(2)=  100.500       N(2)  =     4000
 


--------------------------------------------------------------------------------------------------------


 ion  position               nearest neighbor table
   1  0.223  0.112  0.683-  37 2.71  40 2.72  41 2.78   5 3.45   4 3.46   7 3.46   9 3.47   2 3.53
                             3 3.54
   2  0.222  0.445  0.683-  38 2.71  41 2.73  42 2.78   5 3.45   8 3.45   6 3.46   7 3.47   3 3.53
                             1 3.53
   3  0.223  0.778  0.683-  39 2.70  42 2.72  40 2.78   6 3.45   9 3.46   8 3.46   4 3.46   2 3.53
                             1 3.54
   4  0.556  0.111  0.683-  40 2.70  43 2.72  44 2.78   7 3.45   1 3.46   8 3.46   3 3.46   5 3.53
                             6 3.53
   5  0.555  0.444  0.683-  41 2.70  44 2.72  45 2.77   1 3.45   2 3.45   8 3.46   9 3.47   4 3.53
                             6 3.54
   6  0.556  0.778  0.683-  42 2.70  45 2.72  43 2.77   3 3.45   7 3.45   9 3.45   2 3.46   4 3.53
                             5 3.54
   7  0.888  0.111  0.683-  43 2.70  37 2.72  38 2.78   4 3.45   6 3.45   1 3.46   2 3.47   8 3.53
                             9 3.54
   8  0.889  0.444  0.683-  44 2.71  38 2.72  39 2.77   2 3.45   4 3.46   5 3.46   3 3.46   7 3.53
                             9 3.54
   9  0.889  0.778  0.683-  45 2.70  39 2.71  37 2.77   6 3.45   3 3.46   1 3.47   5 3.47   7 3.54
                             8 3.54
  10  0.000  0.111  0.438-  52 2.70  46 2.71  47 2.78  13 3.45  16 3.46  14 3.46  18 3.46  11 3.53
                            12 3.53
  11  0.001  0.444  0.438-  53 2.70  47 2.71  48 2.78  14 3.44  16 3.46  15 3.46  17 3.46  10 3.53
                            12 3.54
  12  1.000  0.778  0.438-  54 2.70  48 2.73  46 2.78  18 3.45  13 3.46  17 3.46  15 3.46  10 3.53
                            11 3.54
  13  0.333  0.110  0.438-  46 2.69  49 2.71  50 2.77  10 3.45  16 3.45  12 3.46  17 3.46  15 3.53
                            14 3.55
  14  0.333  0.445  0.438-  47 2.70  50 2.72  51 2.78  11 3.44  17 3.46  18 3.46  10 3.46  15 3.53
                            13 3.55
  15  0.334  0.778  0.438-  48 2.70  51 2.72  49 2.78  18 3.45  16 3.46  11 3.46  12 3.46  14 3.53
                            13 3.53
  16  0.667  0.111  0.438-  49 2.70  52 2.72  53 2.78  13 3.45  15 3.46  10 3.46  11 3.46  17 3.54
                            18 3.54
  17  0.666  0.444  0.438-  50 2.69  53 2.71  54 2.77  14 3.46  12 3.46  13 3.46  11 3.46  18 3.54
                            16 3.54
  18  0.667  0.778  0.438-  51 2.70  54 2.72  52 2.78  15 3.45  12 3.45  14 3.46  10 3.46  17 3.54
                            16 3.54
  19  0.222  0.111  0.562-  41 2.71  37 2.72  40 2.77  22 3.45  27 3.46  23 3.46  25 3.46  21 3.53
                            20 3.53
  20  0.223  0.444  0.562-  42 2.71  38 2.72  41 2.76  23 3.44  24 3.45  26 3.46  25 3.46  19 3.53
                            21 3.55
  21  0.223  0.779  0.562-  40 2.71  39 2.73  42 2.77  22 3.45  24 3.45  27 3.46  26 3.46  19 3.53
                            20 3.55
  22  0.555  0.111  0.562-  44 2.71  40 2.72  43 2.77  21 3.45  19 3.45  25 3.45  26 3.47  24 3.54
                            23 3.54
  23  0.555  0.445  0.562-  45 2.70  41 2.71  44 2.76  20 3.44  19 3.46  26 3.46  27 3.47  24 3.53
                            22 3.54
  24  0.555  0.777  0.562-  43 2.71  42 2.72  45 2.76  20 3.45  27 3.45  21 3.45  25 3.47  23 3.53
                            22 3.54
  25  0.889  0.111  0.562-  38 2.70  43 2.73  37 2.77  22 3.45  19 3.46  20 3.46  24 3.47  27 3.53
                            26 3.54
  26  0.889  0.445  0.562-  39 2.71  44 2.72  38 2.77  20 3.46  23 3.46  21 3.46  22 3.47  27 3.54
                            25 3.54
  27  0.889  0.778  0.562-  37 2.70  45 2.73  39 2.76  24 3.45  19 3.46  21 3.46  23 3.47  25 3.53
                            26 3.54
  28  0.000  0.112  0.317-  47 2.70  52 2.71  46 2.77  34 3.45  31 3.46  32 3.46  36 3.47  29 3.53
                            30 3.55
  29  0.000  0.444  0.317-  48 2.71  53 2.72  47 2.76  32 3.45  35 3.46  33 3.46  34 3.46  28 3.53
                            30 3.53
  30  1.000  0.777  0.317-  54 2.71  46 2.72  48 2.76  35 3.45  33 3.45  36 3.46  31 3.47  29 3.53
                            28 3.55
  31  0.333  0.111  0.317-  50 2.71  46 2.72  49 2.76  28 3.46  34 3.46  35 3.46  30 3.47  32 3.54
                            33 3.54
  32  0.333  0.445  0.317-  51 2.71  47 2.71  50 2.77  29 3.45  36 3.46  35 3.46  28 3.46  33 3.53
                            31 3.54
  33  0.333  0.778  0.317-  49 2.71  48 2.71  51 2.76  36 3.45  30 3.45  29 3.46  34 3.46  32 3.53
                            31 3.54
  34  0.667  0.111  0.317-  53 2.71  49 2.71  52 2.77  28 3.45  29 3.46  31 3.46  33 3.46  35 3.54
                            36 3.54
  35  0.667  0.445  0.317-  54 2.71  50 2.72  53 2.76  30 3.45  29 3.46  32 3.46  31 3.46  36 3.53
                            34 3.54
  36  0.666  0.777  0.317-  51 2.71  52 2.72  54 2.76  33 3.45  32 3.46  30 3.46  28 3.47  35 3.53
                            34 3.54
  37  1.000  0.000  0.622-  27 2.70   1 2.71  19 2.72   7 2.72  25 2.77   9 2.77  43 3.46  41 3.46
                            40 3.46  45 3.47
  38  1.000  0.333  0.622-  25 2.70   2 2.71   8 2.72  20 2.72  26 2.77   7 2.78  44 3.46  43 3.46
                            41 3.46  42 3.46
  39  1.000  0.667  0.622-   3 2.70  26 2.71   9 2.71  21 2.73  27 2.76   8 2.77  42 3.46  45 3.46
                            44 3.46  40 3.46
  40  0.334  1.000  0.622-   4 2.70  21 2.71  22 2.72   1 2.72  19 2.77   3 2.78  43 3.45  44 3.46
                            37 3.46  39 3.46
  41  0.334  0.333  0.622-   5 2.70  19 2.71  23 2.71   2 2.73  20 2.76   1 2.78  44 3.44  45 3.45
                            37 3.46  38 3.46
  42  0.333  0.666  0.622-   6 2.70  20 2.71  24 2.72   3 2.72  21 2.77   2 2.78  45 3.45  39 3.46
                            43 3.46  38 3.46
  43  0.666  0.999  0.622-   7 2.70  24 2.71   4 2.72  25 2.73   6 2.77  22 2.77  40 3.45  37 3.46
                            42 3.46  38 3.46
  44  0.666  0.333  0.622-   8 2.71  22 2.71   5 2.72  26 2.72  23 2.76   4 2.78  41 3.44  40 3.46
                            38 3.46  39 3.46
  45  0.666  0.666  0.622-   9 2.70  23 2.70   6 2.72  27 2.73  24 2.76   5 2.77  42 3.45  41 3.45
                            39 3.46  37 3.47
  46  0.111  1.000  0.378-  13 2.69  10 2.71  30 2.72  31 2.72  28 2.77  12 2.78  52 3.44  49 3.46
                            50 3.46  54 3.46
  47  0.111  0.333  0.378-  14 2.70  28 2.70  32 2.71  11 2.71  29 2.76  10 2.78  50 3.45  52 3.45
                            53 3.46  51 3.46
  48  0.111  0.667  0.377-  15 2.70  29 2.71  33 2.71  12 2.73  30 2.76  11 2.78  51 3.46  54 3.46
                            53 3.46  49 3.46
  49  0.445  0.001  0.377-  16 2.70  33 2.71  13 2.71  34 2.71  31 2.76  15 2.78  53 3.45  46 3.46
                            48 3.46  52 3.47
  50  0.444  0.333  0.378-  17 2.69  31 2.71  14 2.72  35 2.72  13 2.77  32 2.77  47 3.45  53 3.45
                            46 3.46  54 3.47
  51  0.445  0.667  0.378-  18 2.70  36 2.71  32 2.71  15 2.72  33 2.76  14 2.78  54 3.45  48 3.46
                            47 3.46  52 3.46
  52  0.779  0.000  0.378-  10 2.70  28 2.71  36 2.72  16 2.72  34 2.77  18 2.78  46 3.44  47 3.45
                            51 3.46  49 3.47
  53  0.778  0.333  0.378-  11 2.70  34 2.71  17 2.71  29 2.72  35 2.76  16 2.78  50 3.45  49 3.45
                            47 3.46  48 3.46
  54  0.778  0.667  0.378-  12 2.70  35 2.71  30 2.71  18 2.72  36 2.76  17 2.77  51 3.45  46 3.46
                            48 3.46  50 3.47
 

IMPORTANT INFORMATION: All symmetrisations will be switched off!
NOSYMM: (Re-)initialisation of all symmetry stuff for point group C_1.


----------------------------------------------------------------------------------------

                                     Primitive cell                                     

  volume of cell :    2890.1231

  direct lattice vectors                    reciprocal lattice vectors
    10.364679651  0.000000000  0.000000000     0.096481515  0.057232436  0.000808638
    -5.411997095  9.123457162  0.000000000     0.000000000  0.109607573  0.002636882
     0.180003484 -0.735277194 30.563354768     0.000000000  0.000000000  0.032718921

  length of vectors
    10.364679651 10.607883066 30.572727855     0.112182389  0.109639287  0.032718921

  position of ions in fractional coordinates (direct lattice)
     0.222903924  0.111823961  0.682995167
     0.222377215  0.444709481  0.683022486
     0.222664402  0.777572902  0.682866322
     0.556075924  0.111491605  0.683029428
     0.554849397  0.443802774  0.682873946
     0.555852594  0.778388810  0.682806140
     0.888349911  0.111102376  0.682756461
     0.888853558  0.444336413  0.682759149
     0.888894840  0.777995044  0.682636594
     0.000428724  0.111111893  0.438257628
     0.000537353  0.444142182  0.437895044
     0.999612841  0.777645139  0.438229979
     0.333086123  0.110455295  0.437963818
     0.333290143  0.445054327  0.438124730
     0.334016280  0.778008762  0.437951146
     0.666605891  0.111147176  0.438218941
     0.666378498  0.444338107  0.437807392
     0.666650550  0.777771825  0.438110526
     0.222460261  0.111160711  0.561830755
     0.223007422  0.444494590  0.561872510
     0.222977615  0.778732471  0.561816108
     0.555402680  0.110958965  0.561758740
     0.555247438  0.444720687  0.562045242
     0.555428372  0.777260600  0.561998539
     0.888913399  0.111480653  0.561806818
     0.889449240  0.445214150  0.561847048
     0.889167007  0.778437840  0.562095763
     0.000017140  0.111845497  0.317314343
     0.000043619  0.444394334  0.317212829
     0.999608416  0.776896503  0.317355317
     0.332999935  0.111133511  0.317181407
     0.333211526  0.444621160  0.317187355
     0.333234794  0.777593988  0.317282417
     0.666820103  0.111150399  0.317241077
     0.666657868  0.444516121  0.317238629
     0.666265719  0.777283678  0.317275342
     0.999957203  0.000099990  0.622283608
     0.999658190  0.332891506  0.622241567
     0.999920049  0.666609734  0.622407930
     0.333792166  0.999854544  0.622490425
     0.333787559  0.333124484  0.622266787
     0.333181147  0.666353196  0.622282909
     0.666139423  0.999477724  0.622467251
     0.666131443  0.333445464  0.622142724
     0.665813443  0.665897971  0.622483099
     0.110803540  0.999938034  0.377754023
     0.111497172  0.333297153  0.377512744
     0.111363311  0.666599708  0.377496329
     0.444558066  0.000710841  0.377468968
     0.444141260  0.332559266  0.377849879
     0.445079150  0.666837361  0.377520709
     0.778765418  0.000450457  0.377755061
     0.777727544  0.333211768  0.377611714
     0.777628429  0.666721033  0.377592265

  ion indices of the primitive-cell ions
   primitive index   ion index
                 1           1
                 2           2
                 3           3
                 4           4
                 5           5
                 6           6
                 7           7
                 8           8
                 9           9
                10          10
                11          11
                12          12
                13          13
                14          14
                15          15
                16          16
                17          17
                18          18
                19          19
                20          20
                21          21
                22          22
                23          23
                24          24
                25          25
                26          26
                27          27
                28          28
                29          29
                30          30
                31          31
                32          32
                33          33
                34          34
                35          35
                36          36
                37          37
                38          38
                39          39
                40          40
                41          41
                42          42
                43          43
                44          44
                45          45
                46          46
                47          47
                48          48
                49          49
                50          50
                51          51
                52          52
                53          53
                54          54

----------------------------------------------------------------------------------------

 
 

Automatic generation of k-mesh.
 generate k-points for:    3    3    1
Space group operators:
 irot       det(A)        alpha          n_x          n_y          n_z        tau_x        tau_y        tau_z
    1     1.000000     0.000000     1.000000     0.000000     0.000000     0.000000     0.000000     0.000000
 
 Subroutine IBZKPT returns following result:
 ===========================================
 
 Found      5 irreducible k-points:
 
 Following reciprocal coordinates:
            Coordinates               Weight
  0.000000  0.000000  0.000000      1.000000
  0.333333  0.000000 -0.000000      2.000000
  0.000000  0.333333  0.000000      2.000000
  0.333333  0.333333 -0.000000      2.000000
 -0.333333  0.333333  0.000000      2.000000
 
 Following cartesian coordinates:
            Coordinates               Weight
  0.000000  0.000000  0.000000      1.000000
  0.032161  0.019077  0.000270      2.000000
  0.000000  0.036536  0.000879      2.000000
  0.032161  0.055613  0.001149      2.000000
 -0.032161  0.017458  0.000609      2.000000
 


--------------------------------------------------------------------------------------------------------




 Dimension of arrays:
   k-points           NKPTS =      5   k-points in BZ     NKDIM =      5   number of bands    NBANDS=    200
   number of dos      NEDOS =    301   number of ions     NIONS =     54
   non local maximal  LDIM  =      6   non local SUM 2l+1 LMDIM =     18
   total plane-waves  NPLWV = ******
   max r-space proj   IRMAX =      1   max aug-charges    IRDMAX=  36024
   dimension x,y,z NGX =    80 NGY =   84 NGZ =  240
   dimension x,y,z NGXF=   160 NGYF=  168 NGZF=  480
   support grid    NGXF=   160 NGYF=  168 NGZF=  480
   ions per type =              36  18
   NGX,Y,Z   is equivalent  to a cutoff of  12.83, 13.16, 13.05 a.u.
   NGXF,Y,Z  is equivalent  to a cutoff of  25.66, 26.33, 26.10 a.u.

 SYSTEM =  dpgen_md                                
 POSCAR =  Te Mo                                   

 Startparameter for this run:
   NWRITE =      2    write-flag & timer
   PREC   = a         normal or accurate (medium, high low for compatibility)
   ISTART =      0    job   : 0-new  1-cont  2-samecut
   ICHARG =      2    charge: 1-file 2-atom 10-const
   ISPIN  =      1    spin polarized calculation?
   LNONCOLLINEAR =      F non collinear calculations
   LSORBIT =      F    spin-orbit coupling
   INIWAV =      1    electr: 0-lowe 1-rand  2-diag
   LASPH  =      F    aspherical Exc in radial PAW
   METAGGA=      F    non-selfconsistent MetaGGA calc.

 Electronic Relaxation 1
   ENCUT  =  550.0 eV  40.42 Ry    6.36 a.u.  19.82 20.28 58.46*2*pi/ulx,y,z
   ENINI  =  550.0     initial cutoff
   ENAUG  =  368.8 eV  augmentation charge cutoff
   NELM   =    100;   NELMIN=  6; NELMDL= -5     # of ELM steps 
   EDIFF  = 0.1E-05   stopping-criterion for ELM
   LREAL  =      F    real-space projection
   NLSPLINE    = F    spline interpolate recip. space projectors
   LCOMPAT=      F    compatible to vasp.4.4
   GGA_COMPAT  = T    GGA compatible to vasp.4.4-vasp.4.6
   LMAXPAW     = -100 max onsite density
   LMAXMIX     =    2 max onsite mixed and CHGCAR
   VOSKOWN=      0    Vosko Wilk Nusair interpolation
   ROPT   =    0.00000   0.00000
 Ionic relaxation
   EDIFFG = 0.1E-04   stopping-criterion for IOM
   NSW    =     10    number of steps for IOM
   NBLOCK =      1;   KBLOCK =      1    inner block; outer block 
   IBRION =      0    ionic relax: 0-MD 1-quasi-New 2-CG
   NFREE  =      0    steps in history (QN), initial steepest desc. (CG)
   ISIF   =      2    stress and relaxation
   IWAVPR =     11    prediction:  0-non 1-charg 2-wave 3-comb
   ISYM   =      0    0-nonsym 1-usesym 2-fastsym
   LCORR  =      T    Harris-Foulkes like correction to forces

   POTIM  = 2.0000    time-step for ionic-motion
   TEIN   =  100.0    initial temperature
   TEBEG  =  100.0;   TEEND  = 100.0 temperature during run
   SMASS  =   0.04    Nose mass-parameter (am)
   estimated Nose-frequenzy (Omega)   =  0.79E+14 period in steps = 0.40E+02 mass=   0.327E-28a.u.
   SCALEE = 1.0000    scale energy and forces
   NPACO  =    256;   APACO  = 16.0  distance and # of slots for P.C.
   PSTRESS=    0.0 pullay stress

  Mass of Ions in am
   POMASS = 127.60 95.94
  Ionic Valenz
   ZVAL   =   6.00  6.00
  Atomic Wigner-Seitz radii
   RWIGS  =  -1.00 -1.00
  virtual crystal weights 
   VCA    =   1.00  1.00
   NELECT =     324.0000    total number of electrons
   NUPDOWN=      -1.0000    fix difference up-down

 DOS related values:
   EMIN   =  10.00;   EMAX   =-10.00  energy-range for DOS
   EFERMI =   0.00
   ISMEAR =     0;   SIGMA  =   0.10  broadening in eV -4-tet -1-fermi 0-gaus

 Electronic relaxation 2 (details)
   IALGO  =     68    algorithm
   LDIAG  =      T    sub-space diagonalisation (order eigenvalues)
   LSUBROT=      F    optimize rotation matrix (better conditioning)
   TURBO    =      0    0=normal 1=particle mesh
   IRESTART =      0    0=no restart 2=restart with 2 vectors
   NREBOOT  =      0    no. of reboots
   NMIN     =      0    reboot dimension
   EREF     =   0.00    reference energy to select bands
   IMIX   =      4    mixing-type and parameters
     AMIX     =   0.40;   BMIX     =  1.00
     AMIX_MAG =   1.60;   BMIX_MAG =  1.00
     AMIN     =   0.10
     WC   =   100.;   INIMIX=   1;  MIXPRE=   1;  MAXMIX= -45

 Intra band minimization:
   WEIMIN = 0.0010     energy-eigenvalue tresh-hold
   EBREAK =  0.13E-08  absolut break condition
   DEPER  =   0.30     relativ break condition  

   TIME   =   0.40     timestep for ELM

  volume/ion in A,a.u.               =      53.52       361.18
  Fermi-wavevector in a.u.,A,eV,Ry     =   0.789377  1.491706  8.478005  0.623116
  Thomas-Fermi vector in A             =   1.894506
 
 Write flags
   LWAVE        =      F    write WAVECAR
   LDOWNSAMPLE  =      F    k-point downsampling of WAVECAR
   LCHARG       =      F    write CHGCAR
   LVTOT        =      F    write LOCPOT, total local potential
   LVHAR        =      F    write LOCPOT, Hartree potential only
   LELF         =      F    write electronic localiz. function (ELF)
   LORBIT       =      0    0 simple, 1 ext, 2 COOP (PROOUT), +10 PAW based schemes


 Dipole corrections
   LMONO  =      F    monopole corrections only (constant potential shift)
   LDIPOL =      F    correct potential (dipole corrections)
   IDIPOL =      0    1-x, 2-y, 3-z, 4-all directions 
   EPSILON=  1.0000000 bulk dielectric constant

 Exchange correlation treatment:
   GGA     =    --    GGA type
   LEXCH   =     8    internal setting for exchange type
   VOSKOWN=      0    Vosko Wilk Nusair interpolation
   LHFCALC =     F    Hartree Fock is set to
   LHFONE  =     F    Hartree Fock one center treatment
   AEXX    =    0.0000 exact exchange contribution

 Linear response parameters
   LEPSILON=     F    determine dielectric tensor
   LRPA    =     F    only Hartree local field effects (RPA)
   LNABLA  =     F    use nabla operator in PAW spheres
   LVEL    =     F    velocity operator in full k-point grid
   LINTERFAST=   F  fast interpolation
   KINTER  =     0    interpolate to denser k-point grid
   CSHIFT  =0.1000    complex shift for real part using Kramers Kronig
   OMEGAMAX=  -1.0    maximum frequency
   DEG_THRESHOLD= 0.2000000E-02 threshold for treating states as degnerate
   RTIME   =   -0.100 relaxation time in fs
  (WPLASMAI=    0.000 imaginary part of plasma frequency in eV, 0.658/RTIME)
   DFIELD  = 0.0000000 0.0000000 0.0000000 field for delta impulse in time
 
 Orbital magnetization related:
   ORBITALMAG=     F  switch on orbital magnetization
   LCHIMAG   =     F  perturbation theory with respect to B field
   DQ        =  0.001000  dq finite difference perturbation B field
   LLRAUG    =     F  two centre corrections for induced B field



--------------------------------------------------------------------------------------------------------


 molecular dynamics for ions
   using nose mass (canonical ensemble)
 charge density and potential will be updated during run
 non-spin polarized calculation
 RMM-DIIS sequential band-by-band and
  variant of blocked Davidson during initial phase
 perform sub-space diagonalisation
    before iterative eigenvector-optimisation
 modified Broyden-mixing scheme, WC =      100.0
 initial mixing is a Kerker type mixing with AMIX =  0.4000 and BMIX =      1.0000
 Hartree-type preconditioning will be used
 using additional bands           38
 reciprocal scheme for non local part
 use partial core corrections
 calculate Harris-corrections to forces 
   (improved forces if not selfconsistent)
 use gradient corrections 
 use of overlap-Matrix (Vanderbilt PP)
 Gauss-broadening in eV      SIGMA  =   0.10


--------------------------------------------------------------------------------------------------------


  energy-cutoff  :      550.00
  volume of cell :     2890.12
      direct lattice vectors                 reciprocal lattice vectors
    10.364679651  0.000000000  0.000000000     0.096481515  0.057232436  0.000808638
    -5.411997095  9.123457162  0.000000000     0.000000000  0.109607573  0.002636882
     0.180003484 -0.735277194 30.563354768     0.000000000  0.000000000  0.032718921

  length of vectors
    10.364679651 10.607883066 30.572727855     0.112182389  0.109639287  0.032718921


 
 k-points in units of 2pi/SCALE and weight: read from INCAR                         
   0.00000000  0.00000000  0.00000000       0.111
   0.03216051  0.01907748  0.00026955       0.222
   0.00000000  0.03653586  0.00087896       0.222
   0.03216051  0.05561334  0.00114851       0.222
  -0.03216051  0.01745838  0.00060941       0.222
 
 k-points in reciprocal lattice and weights: read from INCAR                         
   0.00000000  0.00000000  0.00000000       0.111
   0.33333333  0.00000000 -0.00000000       0.222
   0.00000000  0.33333333  0.00000000       0.222
   0.33333333  0.33333333 -0.00000000       0.222
  -0.33333333  0.33333333  0.00000000       0.222
 
 position of ions in fractional coordinates (direct lattice) 
   0.22290392  0.11182396  0.68299517
   0.22237722  0.44470948  0.68302249
   0.22266440  0.77757290  0.68286632
   0.55607592  0.11149160  0.68302943
   0.55484940  0.44380277  0.68287395
   0.55585259  0.77838881  0.68280614
   0.88834991  0.11110238  0.68275646
   0.88885356  0.44433641  0.68275915
   0.88889484  0.77799504  0.68263659
   0.00042872  0.11111189  0.43825763
   0.00053735  0.44414218  0.43789504
   0.99961284  0.77764514  0.43822998
   0.33308612  0.11045530  0.43796382
   0.33329014  0.44505433  0.43812473
   0.33401628  0.77800876  0.43795115
   0.66660589  0.11114718  0.43821894
   0.66637850  0.44433811  0.43780739
   0.66665055  0.77777182  0.43811053
   0.22246026  0.11116071  0.56183075
   0.22300742  0.44449459  0.56187251
   0.22297762  0.77873247  0.56181611
   0.55540268  0.11095896  0.56175874
   0.55524744  0.44472069  0.56204524
   0.55542837  0.77726060  0.56199854
   0.88891340  0.11148065  0.56180682
   0.88944924  0.44521415  0.56184705
   0.88916701  0.77843784  0.56209576
   0.00001714  0.11184550  0.31731434
   0.00004362  0.44439433  0.31721283
   0.99960842  0.77689650  0.31735532
   0.33299994  0.11113351  0.31718141
   0.33321153  0.44462116  0.31718735
   0.33323479  0.77759399  0.31728242
   0.66682010  0.11115040  0.31724108
   0.66665787  0.44451612  0.31723863
   0.66626572  0.77728368  0.31727534
   0.99995720  0.00009999  0.62228361
   0.99965819  0.33289151  0.62224157
   0.99992005  0.66660973  0.62240793
   0.33379217  0.99985454  0.62249042
   0.33378756  0.33312448  0.62226679
   0.33318115  0.66635320  0.62228291
   0.66613942  0.99947772  0.62246725
   0.66613144  0.33344546  0.62214272
   0.66581344  0.66589797  0.62248310
   0.11080354  0.99993803  0.37775402
   0.11149717  0.33329715  0.37751274
   0.11136331  0.66659971  0.37749633
   0.44455807  0.00071084  0.37746897
   0.44414126  0.33255927  0.37784988
   0.44507915  0.66683736  0.37752071
   0.77876542  0.00045046  0.37775506
   0.77772754  0.33321177  0.37761171
   0.77762843  0.66672103  0.37759227
 
 position of ions in cartesian coordinates  (Angst):
   1.82807832  0.51803035 20.87462360
   0.02104861  3.55507704 20.87545854
  -1.77745878  6.59205703 20.87068565
   5.28310426  0.51497292 20.87567071
   3.47189662  3.54691395 20.87091866
   1.67150357  6.59954518 20.86884629
   8.72907505  0.51162251 20.86732793
   6.93083403  3.55186700 20.86741010
   5.12548030  6.59607734 20.86366439
  -0.51800576  0.69148375 13.39462335
  -2.31930407  3.73013793 13.38354159
   6.23093656  6.77259160 13.39377832
   2.93338223  0.68570935 13.38564355
   1.12467682  3.73829096 13.39056155
  -0.66977669  6.77611412 13.38525625
   6.38650926  0.69183410 13.39344097
   4.58084997  3.73198989 13.38086263
   2.77918196  6.77383525 13.39012743
   1.80525939  0.60106865 17.17143268
   0.00693607  3.64219530 17.17270887
  -1.80227746  6.69164176 17.17098501
   5.25717979  0.59928097 17.16923166
   3.44930486  3.64413109 17.17798813
   1.65146673  6.67807907 17.17656073
   8.71109683  0.60400522 17.17070109
   6.91049317  3.64877891 17.17193067
   5.10420705  6.68874809 17.17953222
  -0.54801217  0.78710360  9.69819083
  -2.34750933  3.82117331  9.69508822
   6.21318445  6.85463784  9.69944314
   2.90707717  0.78070557  9.69412788
   1.10443712  3.82326148  9.69430965
  -0.69735258  6.86105492  9.69721507
   6.36693562  0.78081577  9.69595158
   4.56107934  3.82226546  9.69587676
   2.75608440  6.85822901  9.69699883
  10.47570814 -0.45663869 19.01907467
   8.67153469  2.57960136 19.01778976
   6.86819663  5.62414300 19.02287438
  -1.83951057  8.66442709 19.02539569
   1.76874257  2.58170838 19.01856056
  -0.04097262  5.62189441 19.01905330
   1.60719746  8.66100622 19.02468742
   5.21162099  2.58472805 19.01476879
   3.40915429  5.61759399 19.02517179
  -4.19522149  8.84513789 11.54543023
  -0.58021714  2.76324579 11.53805592
  -2.38543999  5.80412944 11.53755424
   4.67180059 -0.27105899 11.53671798
   2.87158640  2.75626581 11.54835991
   1.07213600  5.80627973 11.53829937
   8.13721343 -0.27364495 11.54546195
   6.32552715  2.76239401 11.54108079
   4.51954518  5.80516580 11.54048637
 


--------------------------------------------------------------------------------------------------------


 k-point   1 :   0.0000 0.0000 0.0000  plane waves:   84615
 k-point   2 :   0.3333 0.0000-0.0000  plane waves:   84693
 k-point   3 :   0.0000 0.3333 0.0000  plane waves:   84668
 k-point   4 :   0.3333 0.3333-0.0000  plane waves:   84675
 k-point   5 :  -0.3333 0.3333 0.0000  plane waves:   84661

 maximum and minimum number of plane-waves per node :     84693    84615

 maximum number of plane-waves:     84693
 maximum index in each direction: 
   IXMAX=   20   IYMAX=   20   IZMAX=   58
   IXMIN=  -20   IYMIN=  -20   IZMIN=  -58


 serial   3D FFT for wavefunctions
 parallel 3D FFT for charge:
    minimum data exchange during FFTs selected (reduces bandwidth)


 total amount of memory used by VASP MPI-rank0   360359. kBytes
=======================================================================

   base      :      30000. kBytes
   nonl-proj :     195194. kBytes
   fftplans  :      17372. kBytes
   grid      :      82746. kBytes
   one-center:        839. kBytes
   wavefun   :      34208. kBytes
 
     INWAV:  cpu time    0.0000: real time    0.0000
 Broyden mixing: mesh for mixing (old mesh)
   NGX = 39   NGY = 41   NGZ =117
  (NGX  =160   NGY  =168   NGZ  =480)
  gives a total of 187083 points

 initial charge density was supplied:
 charge density of overlapping atoms calculated
 number of electron     324.0000000 magnetization 
 keeping initial charge density in first step


--------------------------------------------------------------------------------------------------------


 Maximum index for augmentation-charges         1185 (set IRDMAX)


--------------------------------------------------------------------------------------------------------


 First call to EWALD:  gamma=   0.124
 Maximum number of real-space cells 4x 4x 2
 Maximum number of reciprocal cells 2x 2x 5

    FEWALD:  cpu time    0.0023: real time    0.0025


--------------------------------------- Iteration      1(   1)  ---------------------------------------


    POTLOK:  cpu time    0.3109: real time    0.3523
    SETDIJ:  cpu time    0.0193: real time    0.0356
     EDDAV:  cpu time   48.3218: real time   48.5691
       DOS:  cpu time    0.0067: real time    0.0197
    --------------------------------------------
      LOOP:  cpu time   48.6586: real time   48.9768

 eigenvalue-minimisations  :  2000
 total energy-change (2. order) : 0.2117686E+04  (-0.1154964E+05)
 number of electron     324.0000000 magnetization 
 augmentation part      324.0000000 magnetization 

 Free energy of the ion-electron system (eV)
  ---------------------------------------------------
  alpha Z        PSCENC =       248.31681913
  Ewald energy   TEWEN  =     62965.58909459
  -Hartree energ DENC   =    -74657.74300979
  -exchange      EXHF   =         0.00000000
  -V(xc)+E(xc)   XCENC  =     -2099.83719502
  PAW double counting   =      7476.04436201    -4809.59211051
  entropy T*S    EENTRO =        -0.13745707
  eigenvalues    EBANDS =      1041.96309334
  atomic energy  EATOM  =     11953.08265402
  Solvation  Ediel_sol  =         0.00000000
  ---------------------------------------------------
  free energy    TOTEN  =      2117.68625070 eV

  energy without entropy =     2117.82370777  energy(sigma->0) =     2117.75497924


--------------------------------------------------------------------------------------------------------




--------------------------------------- Iteration      1(   2)  ---------------------------------------


     EDDAV:  cpu time   67.6059: real time   67.7339
       DOS:  cpu time    0.0005: real time    0.0005
    --------------------------------------------
      LOOP:  cpu time   67.6064: real time   67.7345

 eigenvalue-minimisations  :  3040
 total energy-change (2. order) :-0.2216451E+04  (-0.2150935E+04)
 number of electron     324.0000000 magnetization 
 augmentation part      324.0000000 magnetization 

 Free energy of the ion-electron system (eV)
  ---------------------------------------------------
  alpha Z        PSCENC =       248.31681913
  Ewald energy   TEWEN  =     62965.58909459
  -Hartree energ DENC   =    -74657.74300979
  -exchange      EXHF   =         0.00000000
  -V(xc)+E(xc)   XCENC  =     -2099.83719502
  PAW double counting   =      7476.04436201    -4809.59211051
  entropy T*S    EENTRO =        -0.00057614
  eigenvalues    EBANDS =     -1174.62483172
  atomic energy  EATOM  =     11953.08265402
  Solvation  Ediel_sol  =         0.00000000
  ---------------------------------------------------
  free energy    TOTEN  =       -98.76479343 eV

  energy without entropy =      -98.76421729  energy(sigma->0) =      -98.76450536


--------------------------------------------------------------------------------------------------------




--------------------------------------- Iteration      1(   3)  ---------------------------------------


     EDDAV:  cpu time   59.0714: real time   59.1684
       DOS:  cpu time    0.0004: real time    0.0004
    --------------------------------------------
      LOOP:  cpu time   59.0717: real time   59.1688

 eigenvalue-minimisations  :  2560
 total energy-change (2. order) :-0.2263489E+03  (-0.2232272E+03)
 number of electron     324.0000000 magnetization 
 augmentation part      324.0000000 magnetization 

 Free energy of the ion-electron system (eV)
  ---------------------------------------------------
  alpha Z        PSCENC =       248.31681913
  Ewald energy   TEWEN  =     62965.58909459
  -Hartree energ DENC   =    -74657.74300979
  -exchange      EXHF   =         0.00000000
  -V(xc)+E(xc)   XCENC  =     -2099.83719502
  PAW double counting   =      7476.04436201    -4809.59211051
  entropy T*S    EENTRO =        -0.00000000
  eigenvalues    EBANDS =     -1400.97428682
  atomic energy  EATOM  =     11953.08265402
  Solvation  Ediel_sol  =         0.00000000
  ---------------------------------------------------
  free energy    TOTEN  =      -325.11367238 eV

  energy without entropy =     -325.11367238  energy(sigma->0) =     -325.11367238


--------------------------------------------------------------------------------------------------------




--------------------------------------- Iteration      1(   4)  ---------------------------------------


     EDDAV:  cpu time   68.7575: real time   68.8866
       DOS:  cpu time    0.0004: real time    0.0004
    --------------------------------------------
      LOOP:  cpu time   68.7579: real time   68.8870

 eigenvalue-minimisations  :  3080
 total energy-change (2. order) :-0.1066680E+02  (-0.1058741E+02)
 number of electron     324.0000000 magnetization 
 augmentation part      324.0000000 magnetization 

 Free energy of the ion-electron system (eV)
  ---------------------------------------------------
  alpha Z        PSCENC =       248.31681913
  Ewald energy   TEWEN  =     62965.58909459
  -Hartree energ DENC   =    -74657.74300979
  -exchange      EXHF   =         0.00000000
  -V(xc)+E(xc)   XCENC  =     -2099.83719502
  PAW double counting   =      7476.04436201    -4809.59211051
  entropy T*S    EENTRO =        -0.00000000
  eigenvalues    EBANDS =     -1411.64108225
  atomic energy  EATOM  =     11953.08265402
  Solvation  Ediel_sol  =         0.00000000
  ---------------------------------------------------
  free energy    TOTEN  =      -335.78046782 eV

  energy without entropy =     -335.78046782  energy(sigma->0) =     -335.78046782


--------------------------------------------------------------------------------------------------------




--------------------------------------- Iteration      1(   5)  ---------------------------------------


     EDDAV:  cpu time   66.4566: real time   66.6060
       DOS:  cpu time    0.0004: real time    0.0004
    CHARGE:  cpu time    1.1461: real time    1.1533
    MIXING:  cpu time    0.0184: real time    0.0287
    --------------------------------------------
      LOOP:  cpu time   67.6215: real time   67.7884

 eigenvalue-minimisations  :  2960
 total energy-change (2. order) :-0.3211628E+00  (-0.3205037E+00)
 number of electron     323.9999993 magnetization 
 augmentation part      -25.3797153 magnetization 

 Broyden mixing:
  rms(total) = 0.18865E+01    rms(broyden)= 0.18865E+01
  rms(prec ) = 0.19929E+01
  weight for this iteration     100.00

 Free energy of the ion-electron system (eV)
  ---------------------------------------------------
  alpha Z        PSCENC =       248.31681913
  Ewald energy   TEWEN  =     62965.58909459
  -Hartree energ DENC   =    -74657.74300979
  -exchange      EXHF   =         0.00000000
  -V(xc)+E(xc)   XCENC  =     -2099.83719502
  PAW double counting   =      7476.04436201    -4809.59211051
  entropy T*S    EENTRO =        -0.00000000
  eigenvalues    EBANDS =     -1411.96224509
  atomic energy  EATOM  =     11953.08265402
  Solvation  Ediel_sol  =         0.00000000
  ---------------------------------------------------
  free energy    TOTEN  =      -336.10163066 eV

  energy without entropy =     -336.10163066  energy(sigma->0) =     -336.10163066


--------------------------------------------------------------------------------------------------------




--------------------------------------- Iteration      1(   6)  ---------------------------------------


    POTLOK:  cpu time    0.2701: real time    0.2703
    SETDIJ:  cpu time    0.0115: real time    0.0115
    EDDIAG:  cpu time    2.5168: real time    2.5305
  RMM-DIIS:  cpu time   41.0987: real time   41.1952
    ORTHCH:  cpu time    0.2119: real time    0.2120
       DOS:  cpu time    0.0004: real time    0.0004
    CHARGE:  cpu time    1.1513: real time    1.1552
    MIXING:  cpu time    0.0090: real time    0.0311
    --------------------------------------------
      LOOP:  cpu time   45.2697: real time   45.4062

 eigenvalue-minimisations  :  2123
 total energy-change (2. order) : 0.9264425E+01  (-0.4817236E+01)
 number of electron     323.9999993 magnetization 
 augmentation part      -20.1946353 magnetization 

 Broyden mixing:
  rms(total) = 0.69774E+00    rms(broyden)= 0.69774E+00
  rms(prec ) = 0.80646E+00
  weight for this iteration     100.00

 eigenvalues of (default mixing * dielectric matrix)
  average eigenvalue GAMMA=   1.0909
  1.0909

 Free energy of the ion-electron system (eV)
  ---------------------------------------------------
  alpha Z        PSCENC =       248.31681913
  Ewald energy   TEWEN  =     62965.58909459
  -Hartree energ DENC   =    -74644.20974074
  -exchange      EXHF   =         0.00000000
  -V(xc)+E(xc)   XCENC  =     -2093.48235598
  PAW double counting   =      7685.07199339    -5029.92753729
  entropy T*S    EENTRO =        -0.00000000
  eigenvalues    EBANDS =     -1411.27813278
  atomic energy  EATOM  =     11953.08265402
  Solvation  Ediel_sol  =         0.00000000
  ---------------------------------------------------
  free energy    TOTEN  =      -326.83720565 eV

  energy without entropy =     -326.83720565  energy(sigma->0) =     -326.83720565


--------------------------------------------------------------------------------------------------------




--------------------------------------- Iteration      1(   7)  ---------------------------------------


    POTLOK:  cpu time    0.2662: real time    0.2665
    SETDIJ:  cpu time    0.0107: real time    0.0107
    EDDIAG:  cpu time    2.5229: real time    2.5385
  RMM-DIIS:  cpu time   38.9269: real time   39.0300
    ORTHCH:  cpu time    0.2143: real time    0.2144
       DOS:  cpu time    0.0004: real time    0.0004
    CHARGE:  cpu time    1.1520: real time    1.1545
    MIXING:  cpu time    0.0073: real time    0.0073
    --------------------------------------------
      LOOP:  cpu time   43.1005: real time   43.2222

 eigenvalue-minimisations  :  2011
 total energy-change (2. order) : 0.3161235E+01  (-0.1075190E+01)
 number of electron     323.9999993 magnetization 
 augmentation part      -21.8944041 magnetization 

 Broyden mixing:
  rms(total) = 0.46323E+00    rms(broyden)= 0.46322E+00
  rms(prec ) = 0.49000E+00
  weight for this iteration     100.00

 eigenvalues of (default mixing * dielectric matrix)
  average eigenvalue GAMMA=   1.4521
  0.7354  2.1689

 Free energy of the ion-electron system (eV)
  ---------------------------------------------------
  alpha Z        PSCENC =       248.31681913
  Ewald energy   TEWEN  =     62965.58909459
  -Hartree energ DENC   =    -74732.31905322
  -exchange      EXHF   =         0.00000000
  -V(xc)+E(xc)   XCENC  =     -2091.97698278
  PAW double counting   =      7976.40278153    -5326.56353635
  entropy T*S    EENTRO =        -0.00000000
  eigenvalues    EBANDS =     -1316.20774717
  atomic energy  EATOM  =     11953.08265402
  Solvation  Ediel_sol  =         0.00000000
  ---------------------------------------------------
  free energy    TOTEN  =      -323.67597025 eV

  energy without entropy =     -323.67597025  energy(sigma->0) =     -323.67597025


--------------------------------------------------------------------------------------------------------




--------------------------------------- Iteration      1(   8)  ---------------------------------------


    POTLOK:  cpu time    0.2694: real time    0.2696
    SETDIJ:  cpu time    0.0107: real time    0.0107
    EDDIAG:  cpu time    2.5032: real time    2.5082
  RMM-DIIS:  cpu time   38.6106: real time   38.7017
    ORTHCH:  cpu time    0.2133: real time    0.2135
       DOS:  cpu time    0.0004: real time    0.0004
    CHARGE:  cpu time    1.1632: real time    1.1644
    MIXING:  cpu time    0.0073: real time    0.0073
    --------------------------------------------
      LOOP:  cpu time   42.7781: real time   42.8758

 eigenvalue-minimisations  :  2000
 total energy-change (2. order) : 0.4594262E+00  (-0.7132051E+00)
 number of electron     323.9999993 magnetization 
 augmentation part      -21.5120213 magnetization 

 Broyden mixing:
  rms(total) = 0.12287E+00    rms(broyden)= 0.12287E+00
  rms(prec ) = 0.14028E+00
  weight for this iteration     100.00

 eigenvalues of (default mixing * dielectric matrix)
  average eigenvalue GAMMA=   1.2512
  2.1276  0.8130  0.8130

 Free energy of the ion-electron system (eV)
  ---------------------------------------------------
  alpha Z        PSCENC =       248.31681913
  Ewald energy   TEWEN  =     62965.58909459
  -Hartree energ DENC   =    -74787.27584050
  -exchange      EXHF   =         0.00000000
  -V(xc)+E(xc)   XCENC  =     -2088.23996975
  PAW double counting   =      8258.98016787    -5615.13331747
  entropy T*S    EENTRO =        -0.00000000
  eigenvalues    EBANDS =     -1258.53615193
  atomic energy  EATOM  =     11953.08265402
  Solvation  Ediel_sol  =         0.00000000
  ---------------------------------------------------
  free energy    TOTEN  =      -323.21654403 eV

  energy without entropy =     -323.21654403  energy(sigma->0) =     -323.21654403


--------------------------------------------------------------------------------------------------------




--------------------------------------- Iteration      1(   9)  ---------------------------------------


    POTLOK:  cpu time    0.2694: real time    0.2698
    SETDIJ:  cpu time    0.0106: real time    0.0106
    EDDIAG:  cpu time    2.5000: real time    2.5056
  RMM-DIIS:  cpu time   44.5238: real time   44.6206
    ORTHCH:  cpu time    0.2109: real time    0.2122
       DOS:  cpu time    0.0004: real time    0.0004
    CHARGE:  cpu time    1.1597: real time    1.1609
    MIXING:  cpu time    0.0076: real time    0.0076
    --------------------------------------------
      LOOP:  cpu time   48.6826: real time   48.7878

 eigenvalue-minimisations  :  2273
 total energy-change (2. order) :-0.8170680E-01  (-0.1490877E+00)
 number of electron     323.9999993 magnetization 
 augmentation part      -21.1701512 magnetization 

 Broyden mixing:
  rms(total) = 0.10654E+00    rms(broyden)= 0.10654E+00
  rms(prec ) = 0.11798E+00
  weight for this iteration     100.00

 eigenvalues of (default mixing * dielectric matrix)
  average eigenvalue GAMMA=   1.1774
  1.8506  1.7116  0.7285  0.4187

 Free energy of the ion-electron system (eV)
  ---------------------------------------------------
  alpha Z        PSCENC =       248.31681913
  Ewald energy   TEWEN  =     62965.58909459
  -Hartree energ DENC   =    -74787.67379422
  -exchange      EXHF   =         0.00000000
  -V(xc)+E(xc)   XCENC  =     -2087.91621021
  PAW double counting   =      8265.89235045    -5622.24867456
  entropy T*S    EENTRO =        -0.00000000
  eigenvalues    EBANDS =     -1258.34049004
  atomic energy  EATOM  =     11953.08265402
  Solvation  Ediel_sol  =         0.00000000
  ---------------------------------------------------
  free energy    TOTEN  =      -323.29825083 eV

  energy without entropy =     -323.29825083  energy(sigma->0) =     -323.29825083


--------------------------------------------------------------------------------------------------------




--------------------------------------- Iteration      1(  10)  ---------------------------------------


    POTLOK:  cpu time    0.2720: real time    0.2723
    SETDIJ:  cpu time    0.0116: real time    0.0116
    EDDIAG:  cpu time    2.5069: real time    2.5136
  RMM-DIIS:  cpu time   44.8615: real time   44.9513
    ORTHCH:  cpu time    0.2118: real time    0.2120
       DOS:  cpu time    0.0004: real time    0.0004
    CHARGE:  cpu time    1.1565: real time    1.1576
    MIXING:  cpu time    0.0074: real time    0.0074
    --------------------------------------------
      LOOP:  cpu time   49.0282: real time   49.1264

 eigenvalue-minimisations  :  2285
 total energy-change (2. order) : 0.6002239E-02  (-0.3847100E-01)
 number of electron     323.9999993 magnetization 
 augmentation part      -21.0174178 magnetization 

 Broyden mixing:
  rms(total) = 0.69462E-01    rms(broyden)= 0.69462E-01
  rms(prec ) = 0.78208E-01
  weight for this iteration     100.00

 eigenvalues of (default mixing * dielectric matrix)
  average eigenvalue GAMMA=   1.3007
  2.3368  1.9510  0.9124  0.9124  0.3910

 Free energy of the ion-electron system (eV)
  ---------------------------------------------------
  alpha Z        PSCENC =       248.31681913
  Ewald energy   TEWEN  =     62965.58909459
  -Hartree energ DENC   =    -74791.54982804
  -exchange      EXHF   =         0.00000000
  -V(xc)+E(xc)   XCENC  =     -2087.69230765
  PAW double counting   =      8282.94444180    -5639.30986731
  entropy T*S    EENTRO =        -0.00000000
  eigenvalues    EBANDS =     -1254.67325512
  atomic energy  EATOM  =     11953.08265402
  Solvation  Ediel_sol  =         0.00000000
  ---------------------------------------------------
  free energy    TOTEN  =      -323.29224859 eV

  energy without entropy =     -323.29224859  energy(sigma->0) =     -323.29224859


--------------------------------------------------------------------------------------------------------




--------------------------------------- Iteration      1(  11)  ---------------------------------------


    POTLOK:  cpu time    0.2706: real time    0.2710
    SETDIJ:  cpu time    0.0106: real time    0.0106
    EDDIAG:  cpu time    2.4935: real time    2.5017
  RMM-DIIS:  cpu time   41.4758: real time   41.5545
    ORTHCH:  cpu time    0.2079: real time    0.2081
       DOS:  cpu time    0.0005: real time    0.0005
    CHARGE:  cpu time    1.1585: real time    1.1621
    MIXING:  cpu time    0.0071: real time    0.0072
    --------------------------------------------
      LOOP:  cpu time   45.6244: real time   45.7155

 eigenvalue-minimisations  :  2125
 total energy-change (2. order) : 0.1076066E-01  (-0.1744197E-01)
 number of electron     323.9999993 magnetization 
 augmentation part      -21.3182711 magnetization 

 Broyden mixing:
  rms(total) = 0.37369E-01    rms(broyden)= 0.37368E-01
  rms(prec ) = 0.42550E-01
  weight for this iteration     100.00

 eigenvalues of (default mixing * dielectric matrix)
  average eigenvalue GAMMA=   1.2184
  2.5376  1.7456  1.3201  0.7397  0.5805  0.3870

 Free energy of the ion-electron system (eV)
  ---------------------------------------------------
  alpha Z        PSCENC =       248.31681913
  Ewald energy   TEWEN  =     62965.58909459
  -Hartree energ DENC   =    -74810.02551008
  -exchange      EXHF   =         0.00000000
  -V(xc)+E(xc)   XCENC  =     -2087.42540568
  PAW double counting   =      8331.32803098    -5687.89947082
  entropy T*S    EENTRO =        -0.00000000
  eigenvalues    EBANDS =     -1236.24770007
  atomic energy  EATOM  =     11953.08265402
  Solvation  Ediel_sol  =         0.00000000
  ---------------------------------------------------
  free energy    TOTEN  =      -323.28148793 eV

  energy without entropy =     -323.28148793  energy(sigma->0) =     -323.28148793


--------------------------------------------------------------------------------------------------------




--------------------------------------- Iteration      1(  12)  ---------------------------------------


    POTLOK:  cpu time    0.2734: real time    0.2736
    SETDIJ:  cpu time    0.0119: real time    0.0119
    EDDIAG:  cpu time    2.5034: real time    2.5105
  RMM-DIIS:  cpu time   48.0440: real time   48.1179
    ORTHCH:  cpu time    0.2155: real time    0.2157
       DOS:  cpu time    0.0005: real time    0.0005
    CHARGE:  cpu time    1.1578: real time    1.1590
    MIXING:  cpu time    0.0083: real time    0.0083
    --------------------------------------------
      LOOP:  cpu time   52.2146: real time   52.2974

 eigenvalue-minimisations  :  2448
 total energy-change (2. order) : 0.3812146E-03  (-0.3863262E-02)
 number of electron     323.9999993 magnetization 
 augmentation part      -21.3176970 magnetization 

 Broyden mixing:
  rms(total) = 0.26804E-01    rms(broyden)= 0.26804E-01
  rms(prec ) = 0.30850E-01
  weight for this iteration     100.00

 eigenvalues of (default mixing * dielectric matrix)
  average eigenvalue GAMMA=   1.2067
  2.5125  1.7845  1.7845  0.7894  0.7894  0.4086  0.3778

 Free energy of the ion-electron system (eV)
  ---------------------------------------------------
  alpha Z        PSCENC =       248.31681913
  Ewald energy   TEWEN  =     62965.58909459
  -Hartree energ DENC   =    -74813.73804576
  -exchange      EXHF   =         0.00000000
  -V(xc)+E(xc)   XCENC  =     -2087.32372121
  PAW double counting   =      8335.71620741    -5692.31975182
  entropy T*S    EENTRO =        -0.00000000
  eigenvalues    EBANDS =     -1232.60436307
  atomic energy  EATOM  =     11953.08265402
  Solvation  Ediel_sol  =         0.00000000
  ---------------------------------------------------
  free energy    TOTEN  =      -323.28110672 eV

  energy without entropy =     -323.28110672  energy(sigma->0) =     -323.28110672


--------------------------------------------------------------------------------------------------------




--------------------------------------- Iteration      1(  13)  ---------------------------------------


    POTLOK:  cpu time    0.2715: real time    0.2718
    SETDIJ:  cpu time    0.0105: real time    0.0105
    EDDIAG:  cpu time    2.5086: real time    2.5116
  RMM-DIIS:  cpu time   45.8255: real time   45.9381
    ORTHCH:  cpu time    0.2110: real time    0.2112
       DOS:  cpu time    0.0004: real time    0.0004
    CHARGE:  cpu time    1.1557: real time    1.1596
    MIXING:  cpu time    0.0074: real time    0.0074
    --------------------------------------------
      LOOP:  cpu time   49.9906: real time   50.1105

 eigenvalue-minimisations  :  2331
 total energy-change (2. order) : 0.1599555E-02  (-0.2278714E-02)
 number of electron     323.9999993 magnetization 
 augmentation part      -21.2130524 magnetization 

 Broyden mixing:
  rms(total) = 0.99557E-02    rms(broyden)= 0.99556E-02
  rms(prec ) = 0.12990E-01
  weight for this iteration     100.00

 eigenvalues of (default mixing * dielectric matrix)
  average eigenvalue GAMMA=   1.2500
  2.2371  2.2371  2.2224  0.9538  0.7792  0.7792  0.3769  0.4142

 Free energy of the ion-electron system (eV)
  ---------------------------------------------------
  alpha Z        PSCENC =       248.31681913
  Ewald energy   TEWEN  =     62965.58909459
  -Hartree energ DENC   =    -74815.99652025
  -exchange      EXHF   =         0.00000000
  -V(xc)+E(xc)   XCENC  =     -2087.24524670
  PAW double counting   =      8331.23367477    -5687.81241454
  entropy T*S    EENTRO =        -0.00000000
  eigenvalues    EBANDS =     -1230.44756819
  atomic energy  EATOM  =     11953.08265402
  Solvation  Ediel_sol  =         0.00000000
  ---------------------------------------------------
  free energy    TOTEN  =      -323.27950717 eV

  energy without entropy =     -323.27950717  energy(sigma->0) =     -323.27950717


--------------------------------------------------------------------------------------------------------




--------------------------------------- Iteration      1(  14)  ---------------------------------------


    POTLOK:  cpu time    0.2712: real time    0.2714
    SETDIJ:  cpu time    0.0108: real time    0.0108
    EDDIAG:  cpu time    2.4970: real time    2.5027
  RMM-DIIS:  cpu time   51.5491: real time   51.6840
    ORTHCH:  cpu time    0.2133: real time    0.2135
       DOS:  cpu time    0.0004: real time    0.0004
    CHARGE:  cpu time    1.1588: real time    1.1599
    MIXING:  cpu time    0.0091: real time    0.0091
    --------------------------------------------
      LOOP:  cpu time   55.7098: real time   55.8519

 eigenvalue-minimisations  :  2607
 total energy-change (2. order) :-0.1146718E-02  (-0.8631428E-03)
 number of electron     323.9999993 magnetization 
 augmentation part      -21.1884469 magnetization 

 Broyden mixing:
  rms(total) = 0.10223E-01    rms(broyden)= 0.10223E-01
  rms(prec ) = 0.12684E-01
  weight for this iteration     100.00

 eigenvalues of (default mixing * dielectric matrix)
  average eigenvalue GAMMA=   1.3108
  3.2021  2.5206  1.5628  1.5628  0.7863  0.7863  0.5904  0.4087  0.3771

 Free energy of the ion-electron system (eV)
  ---------------------------------------------------
  alpha Z        PSCENC =       248.31681913
  Ewald energy   TEWEN  =     62965.58909459
  -Hartree energ DENC   =    -74822.38544270
  -exchange      EXHF   =         0.00000000
  -V(xc)+E(xc)   XCENC  =     -2087.20937338
  PAW double counting   =      8328.95224042    -5685.45054332
  entropy T*S    EENTRO =        -0.00000000
  eigenvalues    EBANDS =     -1224.17610265
  atomic energy  EATOM  =     11953.08265402
  Solvation  Ediel_sol  =         0.00000000
  ---------------------------------------------------
  free energy    TOTEN  =      -323.28065388 eV

  energy without entropy =     -323.28065388  energy(sigma->0) =     -323.28065388


--------------------------------------------------------------------------------------------------------




--------------------------------------- Iteration      1(  15)  ---------------------------------------


    POTLOK:  cpu time    0.2744: real time    0.2748
    SETDIJ:  cpu time    0.0105: real time    0.0105
    EDDIAG:  cpu time    2.5014: real time    2.5069
  RMM-DIIS:  cpu time   41.9361: real time   42.0131
    ORTHCH:  cpu time    0.2130: real time    0.2133
       DOS:  cpu time    0.0004: real time    0.0004
    CHARGE:  cpu time    1.1616: real time    1.1629
    MIXING:  cpu time    0.0077: real time    0.0077
    --------------------------------------------
      LOOP:  cpu time   46.1051: real time   46.1896

 eigenvalue-minimisations  :  2136
 total energy-change (2. order) :-0.3179632E-03  (-0.2185764E-03)
 number of electron     323.9999993 magnetization 
 augmentation part      -21.2198859 magnetization 

 Broyden mixing:
  rms(total) = 0.46569E-02    rms(broyden)= 0.46569E-02
  rms(prec ) = 0.60883E-02
  weight for this iteration     100.00

 eigenvalues of (default mixing * dielectric matrix)
  average eigenvalue GAMMA=   1.2734
  3.3715  2.4806  1.6750  1.6750  0.7783  0.7783  0.6807  0.3764  0.4067  0.5110

 Free energy of the ion-electron system (eV)
  ---------------------------------------------------
  alpha Z        PSCENC =       248.31681913
  Ewald energy   TEWEN  =     62965.58909459
  -Hartree energ DENC   =    -74827.88415830
  -exchange      EXHF   =         0.00000000
  -V(xc)+E(xc)   XCENC  =     -2087.19360666
  PAW double counting   =      8329.57364089    -5686.03158179
  entropy T*S    EENTRO =        -0.00000000
  eigenvalues    EBANDS =     -1218.73383373
  atomic energy  EATOM  =     11953.08265402
  Solvation  Ediel_sol  =         0.00000000
  ---------------------------------------------------
  free energy    TOTEN  =      -323.28097185 eV

  energy without entropy =     -323.28097185  energy(sigma->0) =     -323.28097185


--------------------------------------------------------------------------------------------------------




--------------------------------------- Iteration      1(  16)  ---------------------------------------


    POTLOK:  cpu time    0.2737: real time    0.2740
    SETDIJ:  cpu time    0.0123: real time    0.0123
    EDDIAG:  cpu time    2.4995: real time    2.5083
  RMM-DIIS:  cpu time   50.4349: real time   50.5477
    ORTHCH:  cpu time    0.2153: real time    0.2155
       DOS:  cpu time    0.0004: real time    0.0004
    CHARGE:  cpu time    1.1604: real time    1.1615
    MIXING:  cpu time    0.0087: real time    0.0087
    --------------------------------------------
      LOOP:  cpu time   54.6053: real time   54.7286

 eigenvalue-minimisations  :  2529
 total energy-change (2. order) :-0.8197301E-03  (-0.1013430E-03)
 number of electron     323.9999993 magnetization 
 augmentation part      -21.2297970 magnetization 

 Broyden mixing:
  rms(total) = 0.46009E-02    rms(broyden)= 0.46009E-02
  rms(prec ) = 0.56214E-02
  weight for this iteration     100.00

 eigenvalues of (default mixing * dielectric matrix)
  average eigenvalue GAMMA=   1.3269
  3.5642  2.3601  2.1041  2.1041  1.0869  0.7877  0.7877  0.6118  0.3752  0.4070
  0.4070

 Free energy of the ion-electron system (eV)
  ---------------------------------------------------
  alpha Z        PSCENC =       248.31681913
  Ewald energy   TEWEN  =     62965.58909459
  -Hartree energ DENC   =    -74829.69919132
  -exchange      EXHF   =         0.00000000
  -V(xc)+E(xc)   XCENC  =     -2087.18462427
  PAW double counting   =      8329.36083158    -5685.82209723
  entropy T*S    EENTRO =        -0.00000000
  eigenvalues    EBANDS =     -1216.92527809
  atomic energy  EATOM  =     11953.08265402
  Solvation  Ediel_sol  =         0.00000000
  ---------------------------------------------------
  free energy    TOTEN  =      -323.28179158 eV

  energy without entropy =     -323.28179158  energy(sigma->0) =     -323.28179158


--------------------------------------------------------------------------------------------------------




--------------------------------------- Iteration      1(  17)  ---------------------------------------


    POTLOK:  cpu time    0.2738: real time    0.2741
    SETDIJ:  cpu time    0.0105: real time    0.0105
    EDDIAG:  cpu time    2.5195: real time    2.5253
  RMM-DIIS:  cpu time   40.3238: real time   40.4130
    ORTHCH:  cpu time    0.2162: real time    0.2164
       DOS:  cpu time    0.0004: real time    0.0004
    CHARGE:  cpu time    1.1533: real time    1.1584
    MIXING:  cpu time    0.0080: real time    0.0080
    --------------------------------------------
      LOOP:  cpu time   44.5054: real time   44.6061

 eigenvalue-minimisations  :  2044
 total energy-change (2. order) :-0.1786006E-02  (-0.3755045E-04)
 number of electron     323.9999993 magnetization 
 augmentation part      -21.2219842 magnetization 

 Broyden mixing:
  rms(total) = 0.17881E-02    rms(broyden)= 0.17881E-02
  rms(prec ) = 0.24725E-02
  weight for this iteration     100.00

 eigenvalues of (default mixing * dielectric matrix)
  average eigenvalue GAMMA=   1.4299
  4.6788  2.6613  2.3548  1.5802  1.5802  0.9381  0.7937  0.7937  0.5929  0.3758
  0.4044  0.4044

 Free energy of the ion-electron system (eV)
  ---------------------------------------------------
  alpha Z        PSCENC =       248.31681913
  Ewald energy   TEWEN  =     62965.58909459
  -Hartree energ DENC   =    -74833.08544421
  -exchange      EXHF   =         0.00000000
  -V(xc)+E(xc)   XCENC  =     -2087.16192076
  PAW double counting   =      8327.87044057    -5684.34914349
  entropy T*S    EENTRO =        -0.00000000
  eigenvalues    EBANDS =     -1213.54607743
  atomic energy  EATOM  =     11953.08265402
  Solvation  Ediel_sol  =         0.00000000
  ---------------------------------------------------
  free energy    TOTEN  =      -323.28357758 eV

  energy without entropy =     -323.28357758  energy(sigma->0) =     -323.28357758


--------------------------------------------------------------------------------------------------------




--------------------------------------- Iteration      1(  18)  ---------------------------------------


    POTLOK:  cpu time    0.2745: real time    0.2748
    SETDIJ:  cpu time    0.0105: real time    0.0105
    EDDIAG:  cpu time    2.5094: real time    2.5124
  RMM-DIIS:  cpu time   41.4448: real time   41.5511
    ORTHCH:  cpu time    0.2129: real time    0.2132
       DOS:  cpu time    0.0004: real time    0.0004
    CHARGE:  cpu time    1.1549: real time    1.1589
    MIXING:  cpu time    0.0082: real time    0.0082
    --------------------------------------------
      LOOP:  cpu time   45.6156: real time   45.7295

 eigenvalue-minimisations  :  2088
 total energy-change (2. order) :-0.1199569E-02  (-0.4044440E-04)
 number of electron     323.9999993 magnetization 
 augmentation part      -21.2192090 magnetization 

 Broyden mixing:
  rms(total) = 0.17925E-02    rms(broyden)= 0.17925E-02
  rms(prec ) = 0.21100E-02
  weight for this iteration     100.00

 eigenvalues of (default mixing * dielectric matrix)
  average eigenvalue GAMMA=   1.4259
  5.2456  2.7631  2.3205  1.7160  1.7160  0.9669  0.7949  0.7949  0.5927  0.3767
  0.4253  0.4253  0.3984

 Free energy of the ion-electron system (eV)
  ---------------------------------------------------
  alpha Z        PSCENC =       248.31681913
  Ewald energy   TEWEN  =     62965.58909459
  -Hartree energ DENC   =    -74835.62667931
  -exchange      EXHF   =         0.00000000
  -V(xc)+E(xc)   XCENC  =     -2087.15121338
  PAW double counting   =      8327.25435271    -5683.72966326
  entropy T*S    EENTRO =        -0.00000000
  eigenvalues    EBANDS =     -1211.02014165
  atomic energy  EATOM  =     11953.08265402
  Solvation  Ediel_sol  =         0.00000000
  ---------------------------------------------------
  free energy    TOTEN  =      -323.28477715 eV

  energy without entropy =     -323.28477715  energy(sigma->0) =     -323.28477715


--------------------------------------------------------------------------------------------------------




--------------------------------------- Iteration      1(  19)  ---------------------------------------


    POTLOK:  cpu time    0.2737: real time    0.2752
    SETDIJ:  cpu time    0.0105: real time    0.0105
    EDDIAG:  cpu time    2.5093: real time    2.5190
  RMM-DIIS:  cpu time   47.2767: real time   47.4029
    ORTHCH:  cpu time    0.2087: real time    0.2089
       DOS:  cpu time    0.0004: real time    0.0004
    CHARGE:  cpu time    1.1572: real time    1.1584
    MIXING:  cpu time    0.0084: real time    0.0084
    --------------------------------------------
      LOOP:  cpu time   51.4450: real time   51.5837

 eigenvalue-minimisations  :  2402
 total energy-change (2. order) :-0.4186966E-03  (-0.9724243E-05)
 number of electron     323.9999993 magnetization 
 augmentation part      -21.2182051 magnetization 

 Broyden mixing:
  rms(total) = 0.13567E-02    rms(broyden)= 0.13567E-02
  rms(prec ) = 0.15782E-02
  weight for this iteration     100.00

 eigenvalues of (default mixing * dielectric matrix)
  average eigenvalue GAMMA=   1.5325
  6.4189  3.0006  2.2851  1.9645  1.9645  1.0299  1.0299  0.7961  0.7961  0.5967
  0.4083  0.4083  0.3753  0.3802

 Free energy of the ion-electron system (eV)
  ---------------------------------------------------
  alpha Z        PSCENC =       248.31681913
  Ewald energy   TEWEN  =     62965.58909459
  -Hartree energ DENC   =    -74836.29387835
  -exchange      EXHF   =         0.00000000
  -V(xc)+E(xc)   XCENC  =     -2087.15037566
  PAW double counting   =      8327.31130932    -5683.78415835
  entropy T*S    EENTRO =        -0.00000000
  eigenvalues    EBANDS =     -1210.35666055
  atomic energy  EATOM  =     11953.08265402
  Solvation  Ediel_sol  =         0.00000000
  ---------------------------------------------------
  free energy    TOTEN  =      -323.28519585 eV

  energy without entropy =     -323.28519585  energy(sigma->0) =     -323.28519585


--------------------------------------------------------------------------------------------------------




--------------------------------------- Iteration      1(  20)  ---------------------------------------


    POTLOK:  cpu time    0.2770: real time    0.2774
    SETDIJ:  cpu time    0.0106: real time    0.0106
    EDDIAG:  cpu time    2.5047: real time    2.5089
  RMM-DIIS:  cpu time   40.0438: real time   40.1435
    ORTHCH:  cpu time    0.2134: real time    0.2136
       DOS:  cpu time    0.0004: real time    0.0004
    CHARGE:  cpu time    1.1557: real time    1.1569
    MIXING:  cpu time    0.0084: real time    0.0084
    --------------------------------------------
      LOOP:  cpu time   44.2140: real time   44.3197

 eigenvalue-minimisations  :  2026
 total energy-change (2. order) :-0.5270035E-03  (-0.8426367E-05)
 number of electron     323.9999993 magnetization 
 augmentation part      -21.2185610 magnetization 

 Broyden mixing:
  rms(total) = 0.51363E-03    rms(broyden)= 0.51363E-03
  rms(prec ) = 0.62860E-03
  weight for this iteration     100.00

 eigenvalues of (default mixing * dielectric matrix)
  average eigenvalue GAMMA=   1.5873
  7.0131  3.3368  2.4748  1.7630  1.7630  1.6973  1.0303  0.9768  0.7914  0.7914
  0.6007  0.4098  0.4098  0.3786  0.3734

 Free energy of the ion-electron system (eV)
  ---------------------------------------------------
  alpha Z        PSCENC =       248.31681913
  Ewald energy   TEWEN  =     62965.58909459
  -Hartree energ DENC   =    -74836.73103116
  -exchange      EXHF   =         0.00000000
  -V(xc)+E(xc)   XCENC  =     -2087.15311712
  PAW double counting   =      8327.80162973    -5684.27263929
  entropy T*S    EENTRO =        -0.00000000
  eigenvalues    EBANDS =     -1209.91913276
  atomic energy  EATOM  =     11953.08265402
  Solvation  Ediel_sol  =         0.00000000
  ---------------------------------------------------
  free energy    TOTEN  =      -323.28572285 eV

  energy without entropy =     -323.28572285  energy(sigma->0) =     -323.28572285


--------------------------------------------------------------------------------------------------------




--------------------------------------- Iteration      1(  21)  ---------------------------------------


    POTLOK:  cpu time    0.2768: real time    0.2771
    SETDIJ:  cpu time    0.0116: real time    0.0116
    EDDIAG:  cpu time    2.5024: real time    2.5047
  RMM-DIIS:  cpu time   43.9256: real time   44.0086
    ORTHCH:  cpu time    0.2087: real time    0.2092
       DOS:  cpu time    0.0005: real time    0.0005
    CHARGE:  cpu time    1.1494: real time    1.1504
    MIXING:  cpu time    0.0089: real time    0.0089
    --------------------------------------------
      LOOP:  cpu time   48.0838: real time   48.1709

 eigenvalue-minimisations  :  2219
 total energy-change (2. order) :-0.2138733E-03  (-0.2307353E-05)
 number of electron     323.9999993 magnetization 
 augmentation part      -21.2200089 magnetization 

 Broyden mixing:
  rms(total) = 0.36759E-03    rms(broyden)= 0.36759E-03
  rms(prec ) = 0.43218E-03
  weight for this iteration     100.00

 eigenvalues of (default mixing * dielectric matrix)
  average eigenvalue GAMMA=   1.5537
  7.2037  3.4014  2.4864  1.8783  1.8783  1.7871  0.9930  0.9930  0.7916  0.7916
  0.6010  0.4812  0.4107  0.4107  0.3738  0.3781

 Free energy of the ion-electron system (eV)
  ---------------------------------------------------
  alpha Z        PSCENC =       248.31681913
  Ewald energy   TEWEN  =     62965.58909459
  -Hartree energ DENC   =    -74836.94740537
  -exchange      EXHF   =         0.00000000
  -V(xc)+E(xc)   XCENC  =     -2087.15389358
  PAW double counting   =      8327.98975303    -5684.46355801
  entropy T*S    EENTRO =        -0.00000000
  eigenvalues    EBANDS =     -1209.69940054
  atomic energy  EATOM  =     11953.08265402
  Solvation  Ediel_sol  =         0.00000000
  ---------------------------------------------------
  free energy    TOTEN  =      -323.28593673 eV

  energy without entropy =     -323.28593673  energy(sigma->0) =     -323.28593673


--------------------------------------------------------------------------------------------------------




--------------------------------------- Iteration      1(  22)  ---------------------------------------


    POTLOK:  cpu time    0.2750: real time    0.2753
    SETDIJ:  cpu time    0.0109: real time    0.0109
    EDDIAG:  cpu time    2.5001: real time    2.5050
  RMM-DIIS:  cpu time   35.8169: real time   35.9016
    ORTHCH:  cpu time    0.2084: real time    0.2086
[...]
  0.000   0.000   0.000  -0.000  -0.000   0.011   0.000   0.000
 -0.000   0.000  -0.000   0.000  -0.000   0.000   0.011   0.000
 -0.000   0.000  -0.000  -0.000   0.000   0.000   0.000   0.011
  0.000   0.000  -0.000  -0.000  -0.000   0.000   0.000   0.000
 -0.000   0.000  -0.014  -0.001  -0.000  -0.000   0.000   0.000
 -0.009  -0.000   0.000  -0.018   0.000  -0.000  -0.000  -0.000
 -0.000   0.000  -0.000  -0.000  -0.014   0.000   0.000  -0.000
  0.000   0.000   0.001  -0.000  -0.000   0.000   0.000   0.000
 total augmentation occupancy for first ion, spin component:           1
  1.934   0.203  -0.000   0.199   0.003   0.005   0.039   0.004  -0.001   0.001   0.007   0.000  -0.000
  0.203   1.347  -0.010  -0.919  -0.016   0.006   0.361   0.004   0.005   0.002  -0.025   0.003   0.004
 -0.000  -0.010   1.334   0.006   0.000  -0.467  -0.007   0.001  -0.005  -0.113  -0.001   0.000  -0.041
  0.199  -0.919   0.006   1.494   0.003  -0.007  -0.543  -0.007   0.001  -0.003  -0.040  -0.002  -0.001
  0.003  -0.016   0.000   0.003   1.341   0.001  -0.007  -0.472  -0.044   0.000   0.001  -0.116  -0.000
  0.005   0.006  -0.467  -0.007   0.001   0.301   0.002   0.004   0.001   0.037  -0.000  -0.001   0.007
  0.039   0.361  -0.007  -0.543  -0.007   0.002   0.282   0.003  -0.000   0.002   0.043   0.001   0.000
  0.004   0.004   0.001  -0.007  -0.472   0.004   0.003   0.310   0.008  -0.001  -0.000   0.036  -0.000
 -0.001   0.005  -0.005   0.001  -0.044   0.001  -0.000   0.008   0.020   0.000  -0.001   0.000  -0.000
  0.001   0.002  -0.113  -0.003   0.000   0.037   0.002  -0.001   0.000   0.017   0.000   0.000  -0.001
  0.007  -0.025  -0.001  -0.040   0.001  -0.000   0.043  -0.000  -0.001   0.000   0.019   0.000  -0.001
  0.000   0.003   0.000  -0.002  -0.116  -0.001   0.001   0.036   0.000   0.000   0.000   0.018   0.000
 -0.000   0.004  -0.041  -0.001  -0.000   0.007   0.000  -0.000  -0.000  -0.001  -0.001   0.000   0.021


------------------------ aborting loop because EDIFF is reached ----------------------------------------


    CHARGE:  cpu time    1.1641: real time    1.1695
    FORLOC:  cpu time    0.0768: real time    0.0768
    FORNL :  cpu time   13.8253: real time   13.8512
    STRESS:  cpu time   71.1173: real time   71.2231
    FORCOR:  cpu time    0.3053: real time    0.3056
    FORHAR:  cpu time    0.1301: real time    0.1302
    MIXING:  cpu time    0.0073: real time    0.0074
    OFIELD:  cpu time    0.0000: real time    0.0000

  Number of pair interactions contributing to vdW energy:  273126
  Edisp (eV):  -19.16624
    FORVDW:  cpu time    0.0299: real time    0.0299

  FORCE on cell =-STRESS in cart. coord.  units (eV):
  Direction    XX          YY          ZZ          XY          YZ          ZX
  --------------------------------------------------------------------------------------
  Alpha Z   248.31682   248.31682   248.31682
  Ewald   72272.16111 72214.13059-81433.76689    37.99664    36.18551   -22.08825
  Hartree 74574.08333 74556.04937-74206.33095    10.18085     3.71115    -5.45597
  E(xc)   -1355.58462 -1354.96128 -1374.26203    -0.65793    -1.50851     0.25861
  Local  ************************150579.30901   -46.84836   -39.62271    26.54917
  n-local  3552.13866  3554.01027  3739.54469    -0.72152    10.84173    -1.64065
  augment  -759.48590  -760.82459  -801.65141     0.91969    -1.83030     0.06578
  Kinetic  3309.77417  3294.79568  3242.53650    11.02488     5.72243    -3.99999
  Fock        0.00000     0.00000     0.00000     0.00000     0.00000     0.00000
  vdW       -12.00360   -12.17728   -10.16026     0.03279    -0.57911    -0.47106
  -------------------------------------------------------------------------------------
  Total      17.88489     2.13677   -16.46452    11.92705    12.92018    -6.78235
  in kB       9.91472     1.18454    -9.12732     6.61192     7.16247    -3.75988
  external pressure =        0.66 kB  Pullay stress =        0.00 kB

  kinetic pressure (ideal gas correction) =      0.23 kB
  total pressure  =      0.89 kB
  Total+kin.    10.078       1.494      -8.913       6.607       7.111      -3.771

 VOLUME and BASIS-vectors are now :
 -----------------------------------------------------------------------------
  energy-cutoff  :      550.00
  volume of cell :     2890.12
      direct lattice vectors                 reciprocal lattice vectors
    10.364679651  0.000000000  0.000000000     0.096481515  0.057232436  0.000808638
    -5.411997095  9.123457162  0.000000000     0.000000000  0.109607573  0.002636882
     0.180003484 -0.735277194 30.563354768     0.000000000  0.000000000  0.032718921

  length of vectors
    10.364679651 10.607883066 30.572727855     0.112182389  0.109639287  0.032718921


 FORCES acting on ions
    electron-ion (+dipol)            ewald-force                    non-local-force                 convergence-correction
 -----------------------------------------------------------------------------------------------
   -.145E+01 -.733E+00 -.847E+03   0.142E+01 0.669E+00 0.853E+03   0.348E-01 0.210E+00 -.544E+01   0.186E-03 -.234E-03 -.307E-03
   0.119E+01 0.178E+01 -.850E+03   -.125E+01 -.194E+01 0.855E+03   0.234E-01 0.111E+00 -.516E+01   0.179E-03 -.561E-03 0.902E-03
   0.283E+01 -.139E+01 -.849E+03   -.291E+01 0.134E+01 0.854E+03   -.168E+00 0.266E+00 -.550E+01   -.598E-03 0.763E-03 0.628E-03
   0.128E+00 -.332E+01 -.848E+03   -.188E+00 0.326E+01 0.853E+03   0.238E-01 0.356E+00 -.536E+01   -.462E-03 0.596E-03 -.406E-03
   -.288E+01 0.278E+01 -.849E+03   0.289E+01 -.292E+01 0.854E+03   -.474E-01 0.841E-01 -.540E+01   0.579E-03 0.161E-03 -.593E-03
   0.365E+00 -.341E+01 -.850E+03   -.392E+00 0.333E+01 0.855E+03   -.623E-01 0.458E+00 -.526E+01   0.105E-02 -.169E-04 0.696E-03
   -.174E+01 -.395E+01 -.850E+03   0.172E+01 0.392E+01 0.855E+03   0.218E+00 0.404E+00 -.515E+01   0.238E-03 -.167E-03 0.223E-03
   -.444E+00 -.102E+01 -.845E+03   0.408E+00 0.961E+00 0.850E+03   -.130E-02 0.237E+00 -.562E+01   -.721E-03 -.324E-03 -.293E-03
   -.494E+01 -.630E+00 -.849E+03   0.502E+01 0.586E+00 0.854E+03   0.122E+00 0.197E+00 -.537E+01   -.456E-03 -.201E-04 -.308E-03
   -.115E+01 -.292E+01 0.102E+03   0.118E+01 0.284E+01 -.971E+02   0.153E+00 0.544E+00 -.520E+01   -.748E-03 -.556E-03 -.288E-04
   -.354E+01 -.343E+01 0.103E+03   0.359E+01 0.338E+01 -.981E+02   0.234E+00 0.420E+00 -.562E+01   0.821E-03 0.188E-02 0.918E-04
   -.149E+01 0.263E+00 0.103E+03   0.153E+01 -.336E+00 -.975E+02   -.250E-01 0.370E+00 -.548E+01   0.652E-03 -.842E-03 -.824E-03
   -.447E+01 -.153E+01 0.102E+03   0.449E+01 0.149E+01 -.965E+02   0.250E+00 0.297E+00 -.521E+01   0.514E-04 0.460E-03 0.183E-03
   0.144E-01 -.488E+01 0.104E+03   -.597E-01 0.478E+01 -.990E+02   0.694E-01 0.508E+00 -.553E+01   0.574E-03 0.502E-03 -.739E-03
   -.194E+01 0.155E+01 0.101E+03   0.193E+01 -.165E+01 -.955E+02   0.112E+00 0.199E+00 -.560E+01   -.446E-03 -.800E-03 -.135E-02
   0.194E+01 -.125E+01 0.102E+03   -.196E+01 0.120E+01 -.971E+02   -.262E+00 0.283E+00 -.553E+01   0.759E-03 -.159E-02 0.496E-03
   -.527E-01 -.463E+00 0.104E+03   0.946E-01 0.348E+00 -.987E+02   -.173E+00 0.247E+00 -.530E+01   -.149E-02 0.904E-03 0.324E-03
   0.871E+00 0.224E+00 0.101E+03   -.849E+00 -.338E+00 -.955E+02   -.603E-01 0.411E+00 -.555E+01   -.217E-03 0.166E-03 -.988E-03
   -.120E+01 0.698E+00 -.102E+03   0.111E+01 -.638E+00 0.971E+02   0.134E+00 -.309E+00 0.567E+01   0.288E-03 -.285E-03 0.768E-03
   0.148E+01 -.242E+01 -.101E+03   -.155E+01 0.248E+01 0.953E+02   -.368E-01 -.710E-01 0.533E+01   0.234E-03 -.675E-03 -.359E-03
   -.164E+01 0.248E+01 -.103E+03   0.155E+01 -.243E+01 0.977E+02   0.249E+00 -.490E+00 0.518E+01   -.629E-03 0.838E-03 -.111E-03
   -.151E+01 -.332E+00 -.101E+03   0.139E+01 0.382E+00 0.962E+02   0.289E+00 -.222E+00 0.536E+01   -.509E-03 0.465E-03 0.887E-03
   -.123E+01 0.315E+01 -.100E+03   0.117E+01 -.311E+01 0.948E+02   -.748E-01 -.535E+00 0.537E+01   0.593E-03 0.136E-03 0.965E-03
   0.248E+01 -.140E+01 -.102E+03   -.260E+01 0.145E+01 0.968E+02   -.836E-01 -.183E+00 0.536E+01   0.104E-02 0.172E-04 -.187E-03
   -.630E+00 0.982E+00 -.100E+03   0.550E+00 -.903E+00 0.952E+02   0.221E+00 -.511E+00 0.549E+01   0.179E-03 -.165E-03 0.328E-03
   -.145E+01 -.458E+00 -.104E+03   0.138E+01 0.548E+00 0.988E+02   0.767E-01 -.266E+00 0.551E+01   -.716E-03 -.359E-03 0.753E-03
   -.282E+01 -.929E+00 -.103E+03   0.280E+01 0.104E+01 0.978E+02   0.117E+00 -.230E+00 0.518E+01   -.403E-03 -.150E-03 0.811E-03
   0.118E+01 0.852E+00 0.849E+03   -.131E+01 -.843E+00 -.854E+03   0.266E+00 -.230E+00 0.521E+01   -.576E-03 -.520E-03 -.683E-03
   -.649E+00 0.164E+01 0.846E+03   0.579E+00 -.166E+01 -.851E+03   0.170E+00 -.239E+00 0.557E+01   0.914E-03 0.203E-02 -.570E-03
   0.221E+01 0.261E+00 0.848E+03   -.228E+01 -.245E+00 -.854E+03   -.363E-01 0.441E-01 0.565E+01   0.737E-03 -.950E-03 0.951E-04
   -.170E+01 -.659E+00 0.851E+03   0.159E+01 0.726E+00 -.856E+03   0.302E+00 -.292E+00 0.508E+01   0.259E-04 0.464E-03 -.972E-03
   -.120E+01 -.230E+01 0.851E+03   0.113E+01 0.233E+01 -.856E+03   0.163E+00 -.112E+00 0.573E+01   0.470E-03 0.536E-03 -.194E-03
   -.107E+01 0.383E+01 0.848E+03   0.976E+00 -.384E+01 -.853E+03   0.129E+00 -.459E+00 0.502E+01   -.409E-03 -.994E-03 0.437E-03
   -.504E+01 -.414E+01 0.845E+03   0.498E+01 0.422E+01 -.850E+03   0.534E+00 0.122E+00 0.530E+01   0.545E-03 -.169E-02 -.106E-02
   -.103E+01 -.115E+01 0.845E+03   0.102E+01 0.115E+01 -.850E+03   -.195E-01 -.159E+00 0.556E+01   -.142E-02 0.814E-03 -.717E-03
   -.370E+01 0.428E+00 0.847E+03   0.369E+01 -.399E+00 -.852E+03   0.310E+00 -.139E+00 0.544E+01   -.312E-03 0.858E-04 0.457E-03
   -.826E+00 -.955E+00 -.476E+03   0.793E+00 0.103E+01 0.476E+03   -.119E+00 0.139E+00 -.156E+00   0.255E-03 -.289E-03 0.601E-03
   0.436E+01 -.220E+00 -.477E+03   -.437E+01 0.191E+00 0.477E+03   -.349E+00 0.209E+00 0.421E-03   -.542E-03 -.487E-03 0.571E-03
   0.210E+00 0.252E+01 -.474E+03   -.240E+00 -.250E+01 0.474E+03   0.597E-01 -.113E+00 0.418E+00   -.990E-03 0.160E-03 0.555E-03
   0.404E+01 -.360E+00 -.476E+03   -.416E+01 0.415E+00 0.476E+03   -.178E+00 0.115E+00 0.191E+00   -.298E-03 0.784E-03 0.531E-03
   -.102E+01 0.475E+01 -.476E+03   0.107E+01 -.479E+01 0.476E+03   0.233E+00 -.145E-02 -.199E-01   0.885E-03 -.447E-03 0.559E-03
   0.507E+01 0.439E-01 -.473E+03   -.512E+01 -.572E-01 0.473E+03   -.124E+00 0.365E-01 -.606E-01   0.352E-03 0.159E-03 0.567E-03
   0.331E+01 -.190E+00 -.475E+03   -.340E+01 0.158E+00 0.475E+03   -.137E+00 -.656E-01 -.122E+00   0.128E-03 0.391E-03 0.548E-03
   0.304E+00 0.130E+01 -.472E+03   -.373E+00 -.130E+01 0.472E+03   0.129E+00 0.468E-01 0.324E+00   -.354E-03 0.106E-03 0.650E-03
   -.235E+00 0.141E+01 -.476E+03   0.207E+00 -.144E+01 0.476E+03   0.189E+00 0.135E+00 0.127E+00   0.823E-03 -.166E-03 0.519E-03
   0.372E+01 0.586E+01 0.479E+03   -.385E+01 -.601E+01 -.479E+03   -.193E+00 -.456E+00 -.910E-02   -.550E-04 -.565E-03 -.592E-03
   0.401E+01 -.347E+01 0.477E+03   -.409E+01 0.348E+01 -.477E+03   -.255E+00 0.134E+00 0.598E-01   0.638E-03 0.774E-03 -.704E-03
   0.133E+01 0.501E+01 0.475E+03   -.134E+01 -.507E+01 -.475E+03   0.513E-02 -.238E+00 0.162E+00   0.656E-03 0.434E-03 -.749E-03
   0.443E+00 -.661E+00 0.474E+03   -.608E+00 0.702E+00 -.474E+03   -.548E-01 0.122E+00 0.426E+00   0.342E-04 -.151E-02 -.761E-03
   0.802E+00 -.446E+01 0.477E+03   -.891E+00 0.449E+01 -.477E+03   0.223E+00 0.400E+00 -.114E+00   -.485E-03 0.850E-03 -.645E-03
   0.148E+01 0.562E+01 0.476E+03   -.157E+01 -.575E+01 -.476E+03   -.192E-02 -.265E+00 0.190E+00   -.112E-03 0.269E-03 -.671E-03
   0.306E+01 0.248E+01 0.474E+03   -.315E+01 -.263E+01 -.474E+03   -.248E+00 -.225E+00 -.231E+00   -.430E-04 -.118E-02 -.667E-03
   0.966E-01 0.121E+01 0.472E+03   -.110E+00 -.129E+01 -.472E+03   0.100E+00 -.196E+00 -.375E+00   0.961E-04 0.593E-03 -.804E-03
   0.162E+01 0.838E+00 0.473E+03   -.165E+01 -.822E+00 -.473E+03   0.569E-01 -.391E-01 -.424E+00   -.390E-03 0.408E-03 -.785E-03
 -----------------------------------------------------------------------------------------------
   -.249E+01 -.106E+01 -.917E-01   -.910E-14 0.124E-13 0.102E-11   0.249E+01 0.106E+01 0.961E-01   0.594E-03 0.193E-03 -.291E-02
 
 
 POSITION                                       TOTAL-FORCE (eV/Angst)
 -----------------------------------------------------------------------------------
      1.82627      0.53213     20.86224         0.008781      0.143173     -0.311057
      0.02482      3.59338     20.85816        -0.022391     -0.039642     -0.049304
     -1.76534      6.60394     20.87493        -0.226245      0.207275     -0.392196
      5.28085      0.52140     20.86023        -0.030929      0.286976     -0.248914
      3.47962      3.58580     20.86810        -0.040340     -0.053083     -0.306798
      1.67810      6.58915     20.86590        -0.079409      0.367600     -0.165144
      8.72029      0.50212     20.86051         0.198514      0.351576     -0.047638
      6.93494      3.56490     20.85269        -0.032792      0.167500     -0.424275
      5.10442      6.60555     20.86352         0.183379      0.147352     -0.237887
     -0.51406      0.68243     13.38176         0.211321      0.458673      0.003708
      8.02860      3.73995     13.39994         0.304224      0.360374     -0.349477
     -4.12320      6.79161     13.39364         0.043050      0.296809     -0.256121
      2.91861      0.69423     13.37660         0.289127      0.247140     -0.024137
      1.12331      3.72494     13.39191         0.049110      0.399765     -0.344770
     -0.68027      6.80745     13.40320         0.120175      0.100779     -0.366365
      6.42055      0.70115     13.39727        -0.243362      0.222864     -0.230904
      4.57441      3.74692     13.37860        -0.111823      0.130639     -0.005795
      2.77564      6.77245     13.41593        -0.016033      0.290863     -0.324922
      1.80233      0.59886     17.16123         0.017790     -0.239469      0.408174
      0.02575      3.61806     17.17892        -0.109681     -0.008194      0.081404
     -1.80591      6.69507     17.19467         0.138989     -0.419692     -0.114673
      5.25208      0.58483     17.17454         0.145278     -0.171636      0.074459
      3.46860      3.66158     17.16962        -0.148269     -0.466152      0.095727
      1.67567      6.67210     17.18897        -0.205278     -0.123525      0.064473
      8.71020      0.60885     17.16016         0.119295     -0.415465      0.276848
      6.93510      3.62504     17.18285        -0.010872     -0.173952      0.159904
      5.09346      6.66906     17.19729         0.073943     -0.118652     -0.109706
      9.81588      0.77185      9.70302         0.139101     -0.209755      0.114059
      8.01222      3.82090      9.69572         0.099917     -0.241445      0.441272
      6.22441      6.82921      9.67812        -0.098783      0.057993      0.536495
      2.90423      0.77179      9.69420         0.191921     -0.214215      0.008684
      1.10559      3.80760      9.64941         0.101247     -0.076371      0.674612
     -0.69020      6.88351      9.70837         0.038214     -0.438527     -0.053302
      6.34535      0.74741      9.72170         0.460198      0.196249      0.167683
      4.56856      3.80884      9.70479        -0.024430     -0.143459      0.433231
      2.74783      6.85523      9.69495         0.297268     -0.098333      0.381967
      5.05604      8.65066     19.02760        -0.138152      0.210219     -0.177693
     -1.66304      2.55896     19.02100        -0.415304      0.197052      0.086457
      6.85808      5.63250     18.99840         0.027905     -0.127803      0.567174
     -1.83776      8.65655     19.01179        -0.322385      0.170390      0.311242
      1.74885      2.59045     19.01976         0.297925     -0.068316      0.006472
     -0.03867      5.61767     19.02397        -0.204684      0.024692     -0.185473
      1.61371      8.66544     19.02568        -0.238173     -0.107061     -0.203271
      5.19870      2.57687     18.99357         0.085469      0.049018      0.421838
      3.39447      5.61024     19.01808         0.172389      0.116508      0.187423
      1.22852     -0.25997     11.53290        -0.343602     -0.642584     -0.120126
     -0.57524      2.75197     11.53444        -0.366413      0.172145      0.061997
     -2.38781      5.82494     11.53538        -0.023908     -0.326012      0.198367
     -0.74134      8.83986     11.52609        -0.196322      0.175399      0.682785
      2.84658      2.72984     11.54144         0.168525      0.478626     -0.136134
      1.05824      5.81979     11.53065        -0.089666     -0.414792      0.251586
      8.15008     -0.27670     11.56642        -0.361787     -0.371414     -0.385668
      6.31276      2.77221     11.57414         0.092134     -0.284850     -0.548287
      4.50622      5.80668     11.57358         0.027905     -0.031944     -0.576603
 -----------------------------------------------------------------------------------
    total drift:                                0.002064      0.001307      0.001404


--------------------------------------------------------------------------------------------------------



  FREE ENERGIE OF THE ION-ELECTRON SYSTEM (eV)
  ---------------------------------------------------
  free  energy   TOTEN  =      -342.37047672 eV

  energy  without entropy=     -342.37047672  energy(sigma->0) =     -342.37047672
 
 d Force =-0.1746204E-01[-0.195E-01,-0.154E-01]  d Energy =-0.1743072E-01-0.313E-04
 d Force =-0.1361092E+02[-0.136E+02,-0.136E+02]  d Ewald  =-0.1361091E+02-0.218E-05


--------------------------------------------------------------------------------------------------------


    POTLOK:  cpu time    0.2894: real time    0.2897


--------------------------------------------------------------------------------------------------------


           RANDOM_SEED =         200021756              324                0
   IONSTEP:  cpu time    0.0001: real time    0.0001

  ENERGY OF THE ELECTRON-ION-THERMOSTAT SYSTEM (eV)
  ---------------------------------------------------
% ion-electron   TOTEN  =      -342.370477  see above
  kinetic energy EKIN   =         0.612301
  kin. lattice  EKIN_LAT=         0.000000  (temperature   89.38 K)
  nose potential ES     =        -0.005348
  nose kinetic   EPS    =         0.000561
  ---------------------------------------------------
  total energy   ETOTAL =      -341.762963 eV

  maximum distance moved by ions :      0.59E-03


 mean value of Nose-termostat <S>:     0.992 mean value of <T> :    89.376
 mean temperature <T/S>/<1/S>  :    89.376

    WAVPRE:  cpu time    0.1012: real time    0.1046
    FEWALD:  cpu time    0.0011: real time    0.0011
    ORTHCH:  cpu time    7.9410: real time    7.9555
    POTLOK:  cpu time    0.2893: real time    0.2895
    EDDIAG:  cpu time    2.5064: real time    2.5114
     LOOP+:  cpu time  471.2343: real time  472.0744
    4ORBIT:  cpu time    0.0000: real time    0.0000

 total amount of memory used by VASP MPI-rank0   360359. kBytes
=======================================================================

   base      :      30000. kBytes
   nonl-proj :     195194. kBytes
   fftplans  :      17372. kBytes
   grid      :      82746. kBytes
   one-center:        839. kBytes
   wavefun   :      34208. kBytes
 
  
  
 General timing and accounting informations for this job:
 ========================================================
  
                  Total CPU time used (sec):     5698.455
                            User time (sec):     5685.114
                          System time (sec):       13.341
                         Elapsed time (sec):     5713.232
  
                   Maximum memory used (kb):      801424.
                   Average memory used (kb):           0.
  
                          Minor page faults:       363832
                          Major page faults:            0
                 Voluntary context switches:        13055
