-3.431980839500000116e+02
-3.431955311199999983e+02
-3.431872103599999946e+02
-3.431733699499999943e+02
-3.431544017900000085e+02
-3.431308124500000076e+02
-3.431032032499999787e+02
-3.430722401799999943e+02
-3.430386272000000076e+02
-3.430030811699999731e+02
-3.427877800399999728e+02
-3.427909271999999987e+02
-3.427906356199999891e+02
-3.427870114799999897e+02
-3.427802534799999989e+02
-3.427706389400000262e+02
-3.427585082800000009e+02
-3.427442493300000024e+02
-3.427282902800000102e+02
-3.427110653099999809e+02
-3.423333660200000281e+02
-3.423289397600000257e+02
-3.423210845799999902e+02
-3.423099893899999984e+02
-3.422959662999999750e+02
-3.422794296000000145e+02
-3.422608783100000096e+02
-3.422408735399999955e+02
-3.422200169299999857e+02
-3.421989174500000104e+02
-3.426931769899999836e+02
-3.426990246999999954e+02
-3.427018658599999981e+02
-3.427017047900000080e+02
-3.426986228600000004e+02
-3.426927873500000032e+02
-3.426844358800000236e+02
-3.426738776199999847e+02
-3.426614653699999735e+02
-3.426475943099999881e+02
-3.427127085500000021e+02
-3.427060171499999797e+02
-3.426960694699999976e+02
-3.426831504099999961e+02
-3.426676573600000211e+02
-3.426500659999999812e+02
-3.426309112100000220e+02
-3.426107667200000151e+02
-3.425902150599999914e+02
-3.425698274200000242e+02
-3.426454161500000168e+02
-3.426426427200000262e+02
-3.426355456699999991e+02
-3.426242951099999914e+02
-3.426091706999999928e+02
-3.425905402800000275e+02
-3.425688471199999867e+02
-3.425445919900000149e+02
-3.425183071499999983e+02
-3.424905413899999758e+02
-3.425786704899999791e+02
-3.425853715200000238e+02
-3.425883054299999912e+02
-3.425875100299999758e+02
-3.425831497899999931e+02
-3.425755050000000210e+02
-3.425649650899999870e+02
-3.425520095200000128e+02
-3.425371775699999830e+02
-3.425210581299999717e+02
-3.423845520200000010e+02
-3.423960186400000225e+02
-3.424069283700000028e+02
-3.424172035199999868e+02
-3.424268680900000277e+02
-3.424360367599999790e+02
-3.424448953599999754e+02
-3.424536844200000019e+02
-3.424626769399999944e+02
-3.424721635399999968e+02
-3.426919987699999979e+02
-3.426944792499999721e+02
-3.426919030000000248e+02
-3.426845463700000209e+02
-3.426728683299999716e+02
-3.426574988300000086e+02
-3.426391893900000127e+02
-3.426187817399999744e+02
-3.425971553499999800e+02
-3.425751886699999886e+02
-3.419962589799999932e+02
-3.419970621599999845e+02
-3.419957369100000051e+02
-3.419924315900000238e+02
-3.419873760400000151e+02
-3.419808691100000146e+02
-3.419732715499999927e+02
-3.419649954299999877e+02
-3.419564827199999968e+02
-3.419481995200000028e+02
-3.424018938599999728e+02
-3.424140980399999989e+02
-3.424244600499999933e+02
-3.424329255000000103e+02
-3.424395133500000270e+02
-3.424443108099999904e+02
-3.424474765100000013e+02
-3.424492272900000103e+02
-3.424498340900000244e+02
-3.424496056400000157e+02
-3.418645503700000177e+02
-3.418816812300000265e+02
-3.418989714699999922e+02
-3.419162210100000152e+02
-3.419332842100000107e+02
-3.419500669399999992e+02
-3.419665281800000116e+02
-3.419826894899999843e+02
-3.419986225200000263e+02
-3.420144440000000259e+02
-3.425601658400000247e+02
-3.425541696000000229e+02
-3.425454731799999877e+02
-3.425343656599999917e+02
-3.425212563300000284e+02
-3.425066566099999932e+02
-3.424911511899999823e+02
-3.424753761399999803e+02
-3.424599759399999925e+02
-3.424455851399999915e+02
-3.424318577799999730e+02
-3.424289410200000248e+02
-3.424242246300000261e+02
-3.424178539100000194e+02
-3.424100403400000232e+02
-3.424010592800000268e+02
-3.423912329600000248e+02
-3.423809304499999939e+02
-3.423705447199999981e+02
-3.423604901499999755e+02
-3.426451245499999914e+02
-3.426405557200000089e+02
-3.426309039199999802e+02
-3.426164309900000262e+02
-3.425975386900000217e+02
-3.425747641400000134e+02
-3.425487549499999886e+02
-3.425202457899999899e+02
-3.424900252099999989e+02
-3.424589158599999905e+02
-3.423716962099999819e+02
-3.423792573700000048e+02
-3.423822564199999761e+02
-3.423808291799999779e+02
-3.423752605099999755e+02
-3.423659794000000147e+02
-3.423535338899999942e+02
-3.423385645299999851e+02
-3.423217872800000237e+02
-3.423039442499999723e+02
-3.421591356999999789e+02
-3.421544914899999981e+02
-3.421485777899999903e+02
-3.421416790600000013e+02
-3.421341691700000069e+02
-3.421264847900000063e+02
-3.421191051399999878e+02
-3.421125271299999895e+02
-3.421072231699999975e+02
-3.421036242999999786e+02
-3.426448056099999917e+02
-3.426458268100000168e+02
-3.426432281799999942e+02
-3.426372070699999881e+02
-3.426280611299999919e+02
-3.426161811000000057e+02
-3.426020287499999881e+02
-3.425861253799999986e+02
-3.425690288800000189e+02
-3.425513145599999802e+02
-3.406704724699999929e+02
-3.406887035299999980e+02
-3.407114155699999856e+02
-3.407384586000000013e+02
-3.407697442799999976e+02
-3.408052287500000261e+02
-3.408448771500000021e+02
-3.408886171999999988e+02
-3.409363105699999892e+02
-3.409877050200000212e+02
-3.413538647899999887e+02
-3.413520416100000148e+02
-3.413532495800000106e+02
-3.413575408799999877e+02
-3.413649397099999874e+02
-3.413754467100000056e+02
-3.413890397999999777e+02
-3.414056639699999778e+02
-3.414252398799999924e+02
-3.414476486899999941e+02
-3.430017691099999979e+02
-3.429982363799999803e+02
-3.429898341499999788e+02
-3.429767464299999915e+02
-3.429592843300000027e+02
-3.429378606000000218e+02
-3.429129853000000026e+02
-3.428852308300000118e+02
-3.428552175500000203e+02
-3.428235823800000048e+02
-3.426928216100000100e+02
-3.426892668500000241e+02
-3.426816432200000122e+02
-3.426702272900000139e+02
-3.426553915900000220e+02
-3.426375947399999973e+02
-3.426173629499999720e+02
-3.425952673699999877e+02
-3.425719079300000089e+02
-3.425478932500000155e+02
-3.427841432600000076e+02
-3.427841779699999734e+02
-3.427805628599999750e+02
-3.427734791799999812e+02
-3.427632484599999998e+02
-3.427503094699999906e+02
-3.427351975799999764e+02
-3.427185199300000136e+02
-3.427009248599999864e+02
-3.426830751200000122e+02
-3.428305102300000158e+02
-3.428254666000000270e+02
-3.428159023499999876e+02
-3.428020034400000213e+02
-3.427840958400000204e+02
-3.427626218999999992e+02
-3.427381221499999810e+02
-3.427112092699999835e+02
-3.426825470499999824e+02
-3.426528222100000107e+02
-3.421906169599999998e+02
-3.421843168699999751e+02
-3.421770816200000240e+02
-3.421689863099999798e+02
-3.421601446899999814e+02
-3.421507136600000081e+02
-3.421408842499999992e+02
-3.421308787400000142e+02
-3.421209484699999734e+02
-3.421113593000000037e+02
-3.425047601200000145e+02
-3.425080801099999803e+02
-3.425068670499999826e+02
-3.425012467299999912e+02
-3.424914916100000255e+02
-3.424780015399999797e+02
-3.424612855999999965e+02
-3.424419363599999997e+02
-3.424206023200000004e+02
-3.423979631299999937e+02
-3.416868519000000219e+02
-3.416892039800000020e+02
-3.416946309499999757e+02
-3.417030951899999991e+02
-3.417145799799999963e+02
-3.417290782900000181e+02
-3.417465746299999978e+02
-3.417670294199999717e+02
-3.417903599200000144e+02
-3.418164207699999793e+02
-3.421633089900000186e+02
-3.421699555199999736e+02
-3.421735654999999952e+02
-3.421742183800000134e+02
-3.421720921699999849e+02
-3.421674587800000040e+02
-3.421606746200000089e+02
-3.421521610899999928e+02
-3.421423903699999869e+02
-3.421318614200000070e+02
-3.424106028100000003e+02
-3.424127037200000245e+02
-3.424130352799999741e+02
-3.424116846499999838e+02
-3.424088131699999735e+02
-3.424046538700000042e+02
-3.423994857199999728e+02
-3.423936228800000094e+02
-3.423873981799999910e+02
-3.423811429500000258e+02
-3.421919782800000007e+02
-3.421892052000000035e+02
-3.421823850499999935e+02
-3.421716974000000278e+02
-3.421574340999999890e+02
-3.421399857900000256e+02
-3.421198325999999952e+02
-3.420975212399999918e+02
-3.420736484999999902e+02
-3.420488345399999730e+02
-3.421425869700000248e+02
-3.421447268699999995e+02
-3.421446439599999962e+02
-3.421425068400000100e+02
-3.421385762200000045e+02
-3.421331766800000196e+02
-3.421266882799999962e+02
-3.421195146900000168e+02
-3.421120693799999799e+02
-3.421047509300000229e+02
-3.422751798300000132e+02
-3.422834395200000017e+02
-3.422898112199999900e+02
-3.422942212300000051e+02
-3.422966683500000045e+02
-3.422972204399999896e+02
-3.422960164500000246e+02
-3.422932438799999773e+02
-3.422891330499999754e+02
-3.422839464799999973e+02
-3.411935041200000001e+02
-3.412160324999999830e+02
-3.412432383899999877e+02
-3.412746764199999916e+02
-3.413099158399999737e+02
-3.413485462599999778e+02
-3.413901691199999959e+02
-3.414343785199999957e+02
-3.414807677699999999e+02
-3.415289089099999842e+02
-3.422100409700000228e+02
-3.421991541400000187e+02
-3.421867455099999802e+02
-3.421730285699999854e+02
-3.421582640899999888e+02
-3.421427513400000180e+02
-3.421268188399999985e+02
-3.421108160599999906e+02
-3.420951094000000126e+02
-3.420800681399999803e+02
-3.425131759299999885e+02
-3.425166877199999931e+02
-3.425163647900000115e+02
-3.425122527500000160e+02
-3.425045261700000196e+02
-3.424934782799999766e+02
-3.424795083199999794e+02
-3.424630929100000003e+02
-3.424447661300000050e+02
-3.424251022899999839e+02
-3.428733797799999934e+02
-3.428747076000000220e+02
-3.428711925900000210e+02
-3.428630160299999829e+02
-3.428505053399999838e+02
-3.428341188100000068e+02
-3.428144207199999869e+02
-3.427920625799999925e+02
-3.427677490500000204e+02
-3.427422257299999728e+02
-3.419473667400000068e+02
-3.419443392000000017e+02
-3.419405245899999954e+02
-3.419360639199999810e+02
-3.419311469099999954e+02
-3.419260145000000080e+02
-3.419209460000000149e+02
-3.419162500099999988e+02
-3.419122593800000232e+02
-3.419093145900000081e+02
-3.419610815400000092e+02
-3.419622919199999842e+02
-3.419648362699999780e+02
-3.419689151900000184e+02
-3.419747679100000255e+02
-3.419826590399999873e+02
-3.419928538099999855e+02
-3.420055903100000023e+02
-3.420210631100000001e+02
-3.420393864100000201e+02
-3.421904021700000271e+02
-3.421967356299999778e+02
-3.422013021299999878e+02
-3.422041208800000049e+02
-3.422053081600000155e+02
-3.422050659999999880e+02
-3.422036587599999962e+02
-3.422013998400000219e+02
-3.421986217300000135e+02
-3.421956572899999856e+02
-3.424928934199999730e+02
-3.424872032499999932e+02
-3.424785343699999771e+02
-3.424670824799999878e+02
-3.424531365700000265e+02
-3.424370595899999898e+02
-3.424192807900000162e+02
-3.424002669100000276e+02
-3.423805039000000079e+02
-3.423604798499999902e+02
-3.411237535600000115e+02
-3.411290728000000172e+02
-3.411380746199999976e+02
-3.411508779499999946e+02
-3.411676944800000228e+02
-3.411888043600000060e+02
-3.412145046900000125e+02
-3.412450768200000084e+02
-3.412807112300000085e+02
-3.413214731400000232e+02
-3.418723334499999851e+02
-3.418765464200000110e+02
-3.418782494899999733e+02
-3.418775124200000164e+02
-3.418744812300000149e+02
-3.418693668399999979e+02
-3.418624378800000159e+02
-3.418540005099999917e+02
-3.418443915799999786e+02
-3.418339523299999883e+02
-3.427414081399999759e+02
-3.427382773699999916e+02
-3.427314713499999925e+02
-3.427211659999999824e+02
-3.427076418300000000e+02
-3.426912643300000241e+02
-3.426724765999999818e+02
-3.426517773099999999e+02
-3.426297071100000267e+02
-3.426068291299999942e+02
-3.425149077300000044e+02
-3.425099046299999941e+02
-3.425018335400000069e+02
-3.424909064500000113e+02
-3.424774555500000019e+02
-3.424619083399999795e+02
-3.424447646500000246e+02
-3.424265792599999827e+02
-3.424079326799999876e+02
-3.423894033700000250e+02
-3.429298642399999721e+02
-3.429320055100000104e+02
-3.429300723100000141e+02
-3.429241867399999819e+02
-3.429145804300000009e+02
-3.429015811400000189e+02
-3.428856041999999889e+02
-3.428671369699999900e+02
-3.428467118199999959e+02
-3.428248969200000147e+02
-3.429597137599999996e+02
-3.429600412600000254e+02
-3.429555854100000261e+02
-3.429464679499999988e+02
-3.429329462800000101e+02
-3.429153921700000183e+02
-3.428942800799999873e+02
-3.428701590599999918e+02
-3.428436321199999952e+02
-3.428153346899999860e+02
-3.426793584399999872e+02
-3.426804206599999816e+02
-3.426766041800000266e+02
-3.426680396300000098e+02
-3.426549756499999830e+02
-3.426377713499999800e+02
-3.426168721700000219e+02
-3.425927985899999726e+02
-3.425661177800000132e+02
-3.425374285299999997e+02
-3.426563742800000227e+02
-3.426410533200000259e+02
-3.426240803599999936e+02
-3.426057549099999733e+02
-3.425864656900000114e+02
-3.425666757299999858e+02
-3.425469075699999735e+02
-3.425277191600000037e+02
-3.425096924700000045e+02
-3.424934087699999736e+02
-3.405565196499999843e+02
-3.405584260699999959e+02
-3.405677860000000123e+02
-3.405846074899999962e+02
-3.406088791099999753e+02
-3.406405415199999993e+02
-3.406794678900000122e+02
-3.407254199700000186e+02
-3.407780148300000178e+02
-3.408367061199999739e+02
-3.426672770999999784e+02
-3.426655011999999942e+02
-3.426585155399999962e+02
-3.426466106899999886e+02
-3.426302284199999804e+02
-3.426099477800000273e+02
-3.425864490800000226e+02
-3.425605045099999870e+02
-3.425329269999999724e+02
-3.425045511000000147e+02
-3.425579200399999991e+02
-3.425636866099999907e+02
-3.425655249800000206e+02
-3.425635249700000031e+02
-3.425578960799999777e+02
-3.425489664400000152e+02
-3.425371613799999864e+02
-3.425229848899999752e+02
-3.425069983099999718e+02
-3.424897941400000150e+02
-3.419840069100000051e+02
-3.419792717500000094e+02
-3.419733109800000079e+02
-3.419663548799999830e+02
-3.419587007100000164e+02
-3.419507019999999784e+02
-3.419427515799999924e+02
-3.419352589000000080e+02
-3.419286298999999758e+02
-3.419232478900000274e+02
-3.429281014100000107e+02
-3.429229413300000147e+02
-3.429134521299999960e+02
-3.428998658300000102e+02
-3.428825360999999816e+02
-3.428619239399999969e+02
-3.428385745599999836e+02
-3.428130967100000248e+02
-3.427861470299999951e+02
-3.427583963199999744e+02
-3.423140063399999917e+02
-3.423065808599999968e+02
-3.422979647600000135e+02
-3.422883397200000104e+02
-3.422779286100000036e+02
-3.422669884499999853e+02
-3.422558067100000017e+02
-3.422446850100000120e+02
-3.422339322799999763e+02
-3.422238603999999782e+02
-3.419877503999999817e+02
-3.419992265000000202e+02
-3.420101562699999818e+02
-3.420204108699999779e+02
-3.420299011299999847e+02
-3.420385842200000184e+02
-3.420464713599999982e+02
-3.420536213299999986e+02
-3.420601378299999737e+02
-3.420661642399999778e+02
-3.420109991499999751e+02
-3.420125494800000183e+02
-3.420112597799999890e+02
-3.420072452200000157e+02
-3.420007010100000002e+02
-3.419918910100000176e+02
-3.419811356199999750e+02
-3.419687957099999949e+02
-3.419552631299999916e+02
-3.419409405200000265e+02
-3.416481950699999857e+02
-3.416533894799999871e+02
-3.416611180900000022e+02
-3.416712415200000237e+02
-3.416836210100000244e+02
-3.416981067099999905e+02
-3.417145520600000168e+02
-3.417328162900000166e+02
-3.417527551300000255e+02
-3.417742332099999771e+02
-3.428907157500000267e+02
-3.428854833699999745e+02
-3.428758543999999802e+02
-3.428621284999999830e+02
-3.428447231900000247e+02
-3.428241509399999813e+02
-3.428009999799999719e+02
-3.427759081300000048e+02
-3.427495426400000156e+02
-3.427225736099999835e+02
-3.429534309800000074e+02
-3.429503741999999988e+02
-3.429431933600000093e+02
-3.429320708500000023e+02
-3.429172724499999845e+02
-3.428991496900000016e+02
-3.428781083000000081e+02
-3.428546038700000054e+02
-3.428291242500000067e+02
-3.428021693399999776e+02
-3.423776331500000083e+02
-3.423766583999999966e+02
-3.423716673700000115e+02
-3.423628536100000019e+02
-3.423505326200000241e+02
-3.423351347099999771e+02
-3.423171768199999860e+02
-3.422972499800000037e+02
-3.422759946799999966e+02
-3.422540789600000153e+02
-3.424764590500000168e+02
-3.424787736499999937e+02
-3.424780837999999790e+02
-3.424744839699999943e+02
-3.424681559699999980e+02
-3.424593621800000278e+02
-3.424484375299999783e+02
-3.424357749000000126e+02
-3.424218119099999740e+02
-3.424070174899999870e+02
-3.415458110499999975e+02
-3.415485125499999981e+02
-3.415508861399999887e+02
-3.415530589400000281e+02
-3.415552689799999939e+02
-3.415578424199999859e+02
-3.415611666199999945e+02
-3.415656631400000265e+02
-3.415717541000000210e+02
-3.415798254399999792e+02
-3.421128476299999761e+02
-3.421283379700000182e+02
-3.421430404399999929e+02
-3.421568306699999766e+02
-3.421696423700000196e+02
-3.421814682400000152e+02
-3.421923643200000242e+02
-3.422024434200000087e+02
-3.422118709399999830e+02
-3.422208582600000000e+02
-3.421855274299999792e+02
-3.421919049599999880e+02
-3.421950438399999825e+02
-3.421947933999999805e+02
-3.421911308200000121e+02
-3.421841573899999958e+02
-3.421740922600000090e+02
-3.421612539899999774e+02
-3.421460481799999798e+02
-3.421289408800000160e+02
-3.409486172900000156e+02
-3.409579951000000051e+02
-3.409731133999999884e+02
-3.409937958099999946e+02
-3.410198420199999987e+02
-3.410510143100000278e+02
-3.410870239700000184e+02
-3.411275210100000095e+02
-3.411720766299999923e+02
-3.412201760099999888e+02
-3.421283591399999864e+02
-3.421401348699999971e+02
-3.421510065200000099e+02
-3.421608298699999864e+02
-3.421695509699999889e+02
-3.421771997499999998e+02
-3.421838815400000158e+02
-3.421897589299999822e+02
-3.421950300799999809e+02
-3.421999117899999874e+02
-3.422409473100000241e+02
-3.422253080500000237e+02
-3.422078377600000181e+02
-3.421889614199999983e+02
-3.421692100800000276e+02
-3.421491975199999729e+02
-3.421295933100000184e+02
-3.421110873999999740e+02
-3.420943704900000171e+02
-3.420800972299999785e+02
-3.424378561999999988e+02
-3.424451837500000124e+02
-3.424514358800000196e+02
-3.424566320399999881e+02
-3.424608478499999933e+02
-3.424642139300000281e+02
-3.424669077099999868e+02
-3.424691543900000283e+02
-3.424712089999999876e+02
-3.424733541900000091e+02
-3.405797074100000259e+02
-3.405877367699999922e+02
-3.406021193299999936e+02
-3.406226884000000155e+02
-3.406492056399999910e+02
-3.406813397000000236e+02
-3.407186806600000182e+02
-3.407607384099999877e+02
-3.408069486499999812e+02
-3.408566815099999872e+02
-3.421522409300000049e+02
-3.421490696299999854e+02
-3.421458875999999805e+02
-3.421429476900000282e+02
-3.421405682800000250e+02
-3.421391204299999913e+02
-3.421390021799999772e+02
-3.421406105199999956e+02
-3.421443170200000168e+02
-3.421504477600000200e+02
-3.419461161099999913e+02
-3.419355576099999894e+02
-3.419250568100000010e+02
-3.419147989200000097e+02
-3.419049707199999943e+02
-3.418957672299999899e+02
-3.418873748699999737e+02
-3.418799710399999867e+02
-3.418737262999999871e+02
-3.418687848600000052e+02
-3.425572067800000013e+02
-3.425547991000000252e+02
-3.425479395799999907e+02
-3.425368151100000205e+02
-3.425217119600000046e+02
-3.425030088600000227e+02
-3.424811503999999900e+02
-3.424566370599999914e+02
-3.424299957900000209e+02
-3.424017708200000243e+02
-3.430352983999999879e+02
-3.430378979600000093e+02
-3.430366490700000099e+02
-3.430316656599999874e+02
-3.430231708000000026e+02
-3.430114868300000239e+02
-3.429970225299999811e+02
-3.429802498899999819e+02
-3.429616920799999775e+02
-3.429418964800000253e+02
-3.426393458200000168e+02
-3.426387605900000040e+02
-3.426350089599999933e+02
-3.426282628299999828e+02
-3.426187921200000233e+02
-3.426069580199999791e+02
-3.425932077599999843e+02
-3.425780394799999726e+02
-3.425619996899999933e+02
-3.425456552900000133e+02
-3.419557898200000068e+02
-3.419617062099999885e+02
-3.419697759900000165e+02
-3.419799723799999924e+02
-3.419922587300000032e+02
-3.420065724199999977e+02
-3.420228206200000045e+02
-3.420408739800000149e+02
-3.420605577300000277e+02
-3.420816473200000019e+02
-3.421430170699999849e+02
-3.421404411899999900e+02
-3.421338114999999789e+02
-3.421233319799999890e+02
-3.421093281899999852e+02
-3.420922308300000054e+02
-3.420725520400000050e+02
-3.420508647099999848e+02
-3.420277705199999900e+02
-3.420038817399999971e+02
-3.419644967799999904e+02
-3.419643870900000024e+02
-3.419634585900000161e+02
-3.419617503000000056e+02
-3.419593540500000017e+02
-3.419563987899999802e+02
-3.419530441200000155e+02
-3.419494858799999975e+02
-3.419459399899999994e+02
-3.419426294200000029e+02
-3.423722095699999954e+02
-3.423688831000000050e+02
-3.423629535599999940e+02
-3.423546913600000039e+02
-3.423444837000000120e+02
-3.423328052200000116e+02
-3.423202044299999898e+02
-3.423072675799999729e+02
-3.422946061900000245e+02
-3.422828190500000005e+02
-3.424379238899999791e+02
-3.424309992799999804e+02
-3.424213940000000207e+02
-3.424093695099999763e+02
-3.423953043399999956e+02
-3.423796735700000227e+02
-3.423630341100000010e+02
-3.423460079299999848e+02
-3.423292607700000190e+02
-3.423134773799999948e+02
-3.416243548799999985e+02
-3.416302607999999736e+02
-3.416313607999999817e+02
-3.416278321600000254e+02
-3.416200374800000077e+02
-3.416084940399999823e+02
-3.415938656299999820e+02
-3.415769158699999934e+02
-3.415584842800000160e+02
-3.415394398700000238e+02
-3.425407985599999847e+02
-3.425489634699999897e+02
-3.425541078800000037e+02
-3.425561792899999887e+02
-3.425552154900000232e+02
-3.425513530599999967e+02
-3.425448147600000084e+02
-3.425358988500000237e+02
-3.425249733499999820e+02
-3.425124514299999987e+02
-3.424953816799999800e+02
-3.424957795799999758e+02
-3.424927349299999833e+02
-3.424864394900000093e+02
-3.424772191100000214e+02
-3.424655171100000075e+02
-3.424518711599999961e+02
-3.424368939899999873e+02
-3.424212437300000147e+02
-3.424055997799999886e+02
-3.424880599599999869e+02
-3.424870930600000065e+02
-3.424819853500000022e+02
-3.424730296899999757e+02
-3.424606309600000031e+02
-3.424452919999999949e+02
-3.424275926199999844e+02
-3.424081525799999781e+02
-3.423876138200000128e+02
-3.423666215000000079e+02
-3.429369737200000259e+02
-3.429338149399999907e+02
-3.429263561299999878e+02
-3.429147567200000140e+02
-3.428993019600000025e+02
-3.428803953899999897e+02
-3.428585322800000199e+02
-3.428342825400000038e+02
-3.428082704500000091e+02
-3.427811419700000215e+02
-3.421960293899999783e+02
-3.421888375600000245e+02
-3.421777046199999859e+02
-3.421630119999999806e+02
-3.421452974800000106e+02
-3.421252146699999912e+02
-3.421035143999999946e+02
-3.420809980799999721e+02
-3.420584869699999899e+02
-3.420367907300000070e+02
-3.423126672299999882e+02
-3.423111031099999764e+02
-3.423108047399999805e+02
-3.423118246000000227e+02
-3.423142595400000232e+02
-3.423182512600000109e+02
-3.423239608800000155e+02
-3.423315646500000184e+02
-3.423412311999999815e+02
-3.423531089400000269e+02
-3.425946123800000009e+02
-3.425923941500000183e+02
-3.425858021799999733e+02
-3.425750485500000195e+02
-3.425604640799999743e+02
-3.425424889399999984e+02
-3.425216500600000131e+02
-3.424985451300000250e+02
-3.424738148999999794e+02
-3.424481274400000075e+02
-3.421642563400000085e+02
-3.421665906299999733e+02
-3.421641357999999968e+02
-3.421570522399999845e+02
-3.421456385800000248e+02
-3.421303272399999855e+02
-3.421116627900000253e+02
-3.420902775299999803e+02
-3.420668629699999883e+02
-3.420421463800000197e+02
-3.426397694400000091e+02
-3.426385041999999999e+02
-3.426331311100000221e+02
-3.426238219699999945e+02
-3.426108400499999789e+02
-3.425945297200000255e+02
-3.425752996499999767e+02
-3.425536044599999741e+02
-3.425299214899999924e+02
-3.425047456500000180e+02
-3.421950727999999913e+02
-3.421998424999999884e+02
-3.422025431700000127e+02
-3.422033311199999730e+02
-3.422024863899999900e+02
-3.422003797599999757e+02
-3.421974737599999798e+02
-3.421942768100000194e+02
-3.421913369100000182e+02
-3.421891994900000213e+02
-3.413090629399999898e+02
-3.413103872199999955e+02
-3.413167678300000034e+02
-3.413282248400000185e+02
-3.413447586300000012e+02
-3.413663394299999823e+02
-3.413928842299999928e+02
-3.414242328000000271e+02
-3.414601325500000257e+02
-3.415002289500000074e+02
-3.423266017199999851e+02
-3.423274305200000072e+02
-3.423247403999999960e+02
-3.423187688099999946e+02
-3.423099077699999953e+02
-3.422986791499999981e+02
-3.422857139800000255e+02
-3.422717105899999979e+02
-3.422574055300000282e+02
-3.422435325600000056e+02
-3.413696601899999905e+02
-3.413773980999999935e+02
-3.413829567299999894e+02
-3.413862778000000162e+02
-3.413874012399999742e+02
-3.413864620499999774e+02
-3.413836792600000081e+02
-3.413793385600000079e+02
-3.413737714700000083e+02
-3.413673355999999899e+02
-3.424177172500000097e+02
-3.424155914199999984e+02
-3.424091397400000005e+02
-3.423986057000000187e+02
-3.423843653299999801e+02
-3.423669288799999890e+02
-3.423469044400000030e+02
-3.423249692100000061e+02
-3.423018415000000232e+02
-3.422782465799999727e+02
-3.427592568200000187e+02
-3.427618988099999910e+02
-3.427600519999999733e+02
-3.427537183499999855e+02
-3.427429983600000014e+02
-3.427281024900000261e+02
-3.427093421199999739e+02
-3.426871135000000095e+02
-3.426618807199999992e+02
-3.426341620499999863e+02
-3.426828737700000147e+02
-3.426838774299999955e+02
-3.426808205400000134e+02
-3.426738741099999856e+02
-3.426633334800000057e+02
-3.426496072599999820e+02
-3.426331852800000206e+02
-3.426146224500000130e+02
-3.425945171199999777e+02
-3.425734813700000245e+02
-3.421044555999999943e+02
-3.421069679199999882e+02
-3.421106467600000087e+02
-3.421155433000000130e+02
-3.421217188300000203e+02
-3.421292276500000185e+02
-3.421381302199999936e+02
-3.421484763999999927e+02
-3.421603142999999818e+02
-3.421736649100000136e+02
-3.426131834600000161e+02
-3.426105966999999737e+02
-3.426062891099999774e+02
-3.426004271200000062e+02
-3.425932670199999848e+02
-3.425851446500000179e+02
-3.425764566299999956e+02
-3.425676456200000075e+02
-3.425591749199999754e+02
-3.425515106600000195e+02
-3.416396726099999910e+02
-3.416402908100000104e+02
-3.416402931700000067e+02
-3.416397150299999907e+02
-3.416386721999999736e+02
-3.416373464999999783e+02
-3.416359742600000118e+02
-3.416348290099999758e+02
-3.416342042200000151e+02
-3.416343908399999805e+02
-3.422199776100000008e+02
-3.422160157600000048e+02
-3.422099836599999776e+02
-3.422021837600000254e+02
-3.421930299100000070e+02
-3.421830283699999882e+02
-3.421727395899999919e+02
-3.421627576999999860e+02
-3.421536721499999771e+02
-3.421460437499999898e+02
-3.421593798299999776e+02
-3.421666508999999792e+02
-3.421740765700000111e+02
-3.421815794099999835e+02
-3.421891189400000144e+02
-3.421966935199999966e+02
-3.422043388100000243e+02
-3.422121296799999755e+02
-3.422201700400000277e+02
-3.422285918200000197e+02
-3.422081842599999959e+02
-3.422031483399999843e+02
-3.421921445699999822e+02
-3.421754706899999974e+02
-3.421535907300000190e+02
-3.421271208200000160e+02
-3.420967930400000228e+02
-3.420634228999999777e+02
-3.420278770699999882e+02
-3.419910397699999862e+02
-3.422220990700000129e+02
-3.422224550799999747e+02
-3.422211375100000055e+02
-3.422182427600000096e+02
-3.422139414000000102e+02
-3.422084780000000137e+02
-3.422021585400000276e+02
-3.421953351799999723e+02
-3.421884029500000111e+02
-3.421817727600000012e+02
-3.423945520799999827e+02
-3.423947707599999717e+02
-3.423922579399999790e+02
-3.423871996400000057e+02
-3.423798740600000201e+02
-3.423706345900000088e+02
-3.423599033599999757e+02
-3.423481497999999874e+02
-3.423358797000000209e+02
-3.423236118099999885e+02
-3.424873796900000116e+02
-3.424928384400000141e+02
-3.424956316999999899e+02
-3.424957495099999960e+02
-3.424932695599999875e+02
-3.424883591999999908e+02
-3.424812687900000014e+02
-3.424723164900000256e+02
-3.424618825100000095e+02
-3.424503889900000217e+02
-3.422030002199999785e+02
-3.422110296999999832e+02
-3.422174612900000170e+02
-3.422222136199999909e+02
-3.422252893699999845e+02
-3.422267739399999869e+02
-3.422268360599999824e+02
-3.422257185000000277e+02
-3.422237250700000004e+02
-3.422212156800000002e+02
-3.422459215200000244e+02
-3.422428146899999888e+02
-3.422355906799999730e+02
-3.422245301799999879e+02
-3.422100463699999864e+02
-3.421926633799999991e+02
-3.421729922900000247e+02
-3.421516961799999876e+02
-3.421294739699999923e+02
-3.421070223799999894e+02
-3.413141142700000046e+02
-3.413091322999999875e+02
-3.413062628000000132e+02
-3.413056171399999812e+02
-3.413073063100000013e+02
-3.413114387800000031e+02
-3.413181203999999980e+02
-3.413274394599999937e+02
-3.413394666199999961e+02
-3.413542436800000246e+02
-3.428603677300000072e+02
-3.428576360000000136e+02
-3.428502976999999987e+02
-3.428385811100000069e+02
-3.428228551899999843e+02
-3.428036043000000177e+02
-3.427814063499999975e+02
-3.427569112400000222e+02
-3.427308082499999955e+02
-3.427038057600000229e+02
-3.422960038200000099e+02
-3.422963168699999983e+02
-3.422951751599999852e+02
-3.422926151199999936e+02
-3.422887160399999971e+02
-3.422835919500000159e+02
-3.422773928400000045e+02
-3.422702939399999877e+02
-3.422624861200000055e+02
-3.422541790000000219e+02
-3.421105463499999928e+02
-3.421176426900000251e+02
-3.421250450300000239e+02
-3.421326119600000197e+02
-3.421402520199999913e+02
-3.421479269000000158e+02
-3.421556464500000061e+02
-3.421634583599999928e+02
-3.421714320099999895e+02
-3.421796605700000100e+02
-3.425799155700000256e+02
-3.425815060400000220e+02
-3.425783263399999896e+02
-3.425705636600000048e+02
-3.425585255899999879e+02
-3.425426218299999732e+02
-3.425233476199999814e+02
-3.425012618100000168e+02
-3.424769670200000178e+02
-3.424510868400000163e+02
-3.424538248299999736e+02
-3.424518076800000017e+02
-3.424456402100000219e+02
-3.424355102000000102e+02
-3.424217021900000191e+02
-3.424046049500000208e+02
-3.423846873699999946e+02
-3.423624763400000006e+02
-3.423385439900000051e+02
-3.423134802700000137e+02
-3.421621965100000011e+02
-3.421554977299999791e+02
-3.421484315800000218e+02
-3.421412454000000025e+02
-3.421342588800000044e+02
-3.421278460099999847e+02
-3.421224048899999843e+02
-3.421183386899999732e+02
-3.421160283599999730e+02
-3.421158146299999885e+02
-3.427641434899999808e+02
-3.427672903700000120e+02
-3.427660154199999738e+02
-3.427604324900000279e+02
-3.427507922500000177e+02
-3.427374690099999839e+02
-3.427209437399999956e+02
-3.427017833500000279e+02
-3.426806151200000272e+02
-3.426581030199999987e+02
-3.421284055099999932e+02
-3.421238782300000025e+02
-3.421161440999999854e+02