1.478361308126896756e-01 -6.787021678945649450e-01 -1.992510331054824890e+00 -6.787021678945649450e-01 9.320054384271857506e-01 3.450518879135440642e+00 -1.992510331054824890e+00 3.450518879135440642e+00 -3.501221190907373160e-01
9.016886582209475420e-02 -6.545178727564674448e-01 -1.988954169674297390e+00 -6.545178727564673338e-01 1.011426494827043943e+00 3.538919597620397095e+00 -1.988954169674297390e+00 3.538919597620397095e+00 -3.433771779472167829e-01
4.572808604329985094e-02 -6.279852227420829047e-01 -1.992506009133465650e+00 -6.279852227420829047e-01 1.103570102317922519e+00 3.631319720329651890e+00 -1.992506009133465650e+00 3.631319720329651890e+00 -3.203756628411627561e-01
1.483039377410648452e-02 -5.994173368002142510e-01 -2.002894129940542278e+00 -5.994173368002142510e-01 1.207848414320109143e+00 3.727792054281632517e+00 -2.002894129940542278e+00 3.727792054281632517e+00 -2.814792328151232703e-01
-3.215733268781571785e-03 -5.691508243235380293e-01 -2.019751077320780297e+00 -5.691508243235379183e-01 1.322638335244592289e+00 3.828249731730613892e+00 -2.019751077320780297e+00 3.828249731730613892e+00 -2.282791876563096678e-01
-9.309122169319417398e-03 -5.376524223844934003e-01 -2.042523246455854036e+00 -5.376524223844932893e-01 1.446126249356217031e+00 3.932602813125909869e+00 -2.042523246455854036e+00 3.932602813125909869e+00 -1.625838225774620116e-01
-4.694598758102244522e-03 -5.053485059876214880e-01 -2.070573885735432107e+00 -5.053485059876213770e-01 1.576157387485627392e+00 4.040796875672324262e+00 -2.070573885735432107e+00 4.040796875672324262e+00 -8.674392135514238933e-02
9.063012457192213406e-03 -4.727353592897832191e-01 -2.103205375872958083e+00 -4.727353592897831636e-01 1.710426822385237244e+00 4.152846756578191467e+00 -2.103205375872958083e+00 4.152846756578191467e+00 -3.471926808460984101e-03
3.033769471825525574e-02 -4.402767345278985611e-01 -2.139661652561850591e+00 -4.402767345278986721e-01 1.846564238393199497e+00 4.268796190987480976e+00 -2.139661652561850591e+00 4.268796190987480976e+00 8.435697167432545940e-02
5.738379399612000831e-02 -4.084062746751666029e-01 -2.179197466479037004e+00 -4.084062746751666584e-01 1.982156210549179010e+00 4.388778679656020643e+00 -2.179197466479037004e+00 4.388778679656020643e+00 1.737410040400683975e-01
-1.210632710346648100e+00 1.510556432621005385e+01 -5.676512637824514762e+00 1.510556432621005385e+01 -2.146231558984404153e-01 5.847384508726081620e+00 -5.676512637824514762e+00 5.847384508726081620e+00 1.559998633525268907e+01
-1.319469446539364821e+00 1.513673531184932841e+01 -5.539862069049215521e+00 1.513673531184932841e+01 -3.593597707457698021e-01 5.991002072554514335e+00 -5.539862069049215521e+00 5.991002072554514335e+00 1.522046559695679413e+01
-1.444496324086122607e+00 1.514844924912778268e+01 -5.402471482664643609e+00 1.514844924912778268e+01 -5.149620100023886149e-01 6.138103133909512898e+00 -5.402471482664643609e+00 6.138103133909512898e+00 1.479174271224939829e+01
-1.585027473007597498e+00 1.514086858093525478e+01 -5.264539419980607704e+00 1.514086858093525478e+01 -6.804552163292577616e-01 6.288362807011398381e+00 -5.264539419980607704e+00 6.288362807011398381e+00 1.431587529106847256e+01
-1.741098991723753819e+00 1.511428209463146111e+01 -5.126535160456642259e+00 1.511428209463146111e+01 -8.554964547367150951e-01 6.441131320300810259e+00 -5.126535160456642259e+00 6.441131320300810259e+00 1.379436141784254133e+01
-1.912963569174342515e+00 1.506919516809590576e+01 -4.988909934342302677e+00 1.506919516809590576e+01 -1.040139872854707326e+00 6.595578410118568158e+00 -4.988909934342302677e+00 6.595578410118568158e+00 1.322833819280048573e+01
-2.100982189559007285e+00 1.500616732683803356e+01 -4.851952528997305336e+00 1.500616732683803356e+01 -1.234421569103198779e+00 6.751000157275364622e+00 -4.851952528997305336e+00 6.751000157275364622e+00 1.261879832249132427e+01
-2.305606083127304640e+00 1.492599273609706323e+01 -4.715825387311489258e+00 1.492599273609706323e+01 -1.438594232421940511e+00 6.906620445741966208e+00 -4.715825387311489258e+00 6.906620445741966208e+00 1.196664426741416953e+01
-2.527448923018628335e+00 1.482964605321203422e+01 -4.580745099804641285e+00 1.482964605321203422e+01 -1.653072994640523152e+00 7.061789503959012393e+00 -4.580745099804641285e+00 7.061789503959012393e+00 1.127250774991839677e+01
-2.767106333162391962e+00 1.471810193552198598e+01 -4.446711666476761415e+00 1.471810193552198598e+01 -1.878200790748608906e+00 7.215947806417053911e+00 -4.446711666476761415e+00 7.215947806417053911e+00 1.053700244314340395e+01
8.940896054545119043e+00 5.963509862657055960e-01 -6.181224728987636752e+00 5.963509862657055960e-01 -1.385063707993445981e+01 2.519762540763650094e+01 -6.181224728987636752e+00 2.519762540763650094e+01 2.557149563000021075e+01
8.958659854584031024e+00 5.997448830211077331e-01 -6.038717170545381485e+00 5.997448830211077331e-01 -1.380797868614182455e+01 2.521244662697791128e+01 -6.038717170545381485e+00 2.521244662697791128e+01 2.567213911091173628e+01
8.939542106371421326e+00 6.001239885097430227e-01 -5.897274717999766658e+00 6.001239885097430227e-01 -1.377297461269116141e+01 2.519502582714299876e+01 -5.897274717999766658e+00 2.519502582714299876e+01 2.569891117946631454e+01
8.883939968038237822e+00 5.973619342353998496e-01 -5.756951529277743340e+00 5.973619342353998496e-01 -1.374643722848668759e+01 2.514547132398566731e+01 -5.756951529277743340e+00 2.514547132398566731e+01 2.565069257184036644e+01
8.791943702796062965e+00 5.914587201980781028e-01 -5.617964236087101604e+00 5.914587201980781028e-01 -1.372944969206736054e+01 2.506407195978296443e+01 -5.617964236087101604e+00 2.506407195978296443e+01 2.552667091912965702e+01
8.663535258002578843e+00 5.824865569670417687e-01 -5.480529470135633296e+00 5.824865569670417687e-01 -1.372370895181088457e+01 2.495106241888500165e+01 -5.480529470135633296e+00 2.495106241888500165e+01 2.532597969450303665e+01
8.498570212519258149e+00 5.705718130385024622e-01 -5.344791652561864836e+00 5.705718130385024622e-01 -1.373112858780274692e+01 2.480656906978798659e+01 -5.344791652561864836e+00 2.480656906978798659e+01 2.504777042377164520e+01
8.296849987280623395e+00 5.557686463394082566e-01 -5.210750783365798888e+00 5.557686463394082566e-01 -1.375380270655160331e+01 2.463077243891508772e+01 -5.210750783365798888e+00 2.463077243891508772e+01 2.469108631689273992e+01
8.058212108505836468e+00 5.382575832929187287e-01 -5.078424915189748923e+00 5.382575832929187287e-01 -1.379416841477010891e+01 2.442378084212019118e+01 -5.078424915189748923e+00 2.442378084212019118e+01 2.425507889967746777e+01
7.782421891844784057e+00 5.182010976798777646e-01 -4.947723784822136928e+00 5.182010976798777646e-01 -1.385455450331702387e+01 2.418554012147635390e+01 -4.947723784822136928e+00 2.418554012147635390e+01 2.373877332944076457e+01
-9.368196786392831044e+00 1.254041066504631807e+01 -3.195992986766945432e+00 1.254041066504631807e+01 -3.847400888162514576e+00 3.831670658993179268e-01 -3.195992986766945432e+00 3.831670658993179268e-01 -3.229748661955207467e+01
-9.217895916794702771e+00 1.246486513687442610e+01 -3.104515088630318775e+00 1.246486513687442610e+01 -3.818641765907829999e+00 6.051176592488917150e-01 -3.104515088630318775e+00 6.051176592488917150e-01 -3.204692391543537866e+01
-9.018713727581586070e+00 1.238106858896301254e+01 -3.008259317147865541e+00 1.238106858896301254e+01 -3.745705691640198509e+00 8.307067869156715689e-01 -3.008259317147865541e+00 8.307067869156715689e-01 -3.167524212200199329e+01
-8.769951914187549491e+00 1.228922316210747567e+01 -2.907482942422823236e+00 1.228922316210747567e+01 -3.627600337818563059e+00 1.059971201771548577e+00 -2.907482942422823236e+00 1.059971201771548577e+00 -3.118330493174135043e+01
-8.473558378822815484e+00 1.218964125571888957e+01 -2.802847516149228557e+00 1.218964125571888957e+01 -3.465446667035599226e+00 1.292543375097612968e+00 -2.802847516149228557e+00 1.292543375097612968e+00 -3.057429146807201192e+01
-8.131370765081928909e+00 1.208276390425994684e+01 -2.695069719328956559e+00 1.208276390425994684e+01 -3.260163501088580773e+00 1.528037401739009482e+00 -2.695069719328956559e+00 1.528037401739009482e+00 -2.985149111302823144e+01
-7.745814762509698248e+00 1.196895863644955504e+01 -2.584902985835770828e+00 1.196895863644955504e+01 -3.013073943365582874e+00 1.766104129412773949e+00 -2.584902985835770828e+00 1.766104129412773949e+00 -2.901914882331340806e+01
-7.319683589369835097e+00 1.184872161605824203e+01 -2.473266137466946457e+00 1.184872161605824203e+01 -2.725850249537644654e+00 2.006486288015669750e+00 -2.473266137466946457e+00 2.006486288015669750e+00 -2.808220786019688830e+01
-6.855990981157399133e+00 1.172245712467681145e+01 -2.361004490275975698e+00 1.172245712467681145e+01 -2.400238181019587191e+00 2.248944983880404980e+00 -2.361004490275975698e+00 2.248944983880404980e+00 -2.704586875505123089e+01
-6.357971190598797229e+00 1.159064294963984487e+01 -2.249018489624186934e+00 1.159064294963984487e+01 -2.038130510713795474e+00 2.493369958391307595e+00 -2.249018489624186934e+00 2.493369958391307595e+00 -2.591603034381494908e+01
-6.645918319497783777e+00 1.047224865459983967e+01 -1.150432168760622265e+00 1.047224865459983967e+01 1.582614094897231105e+01 1.789019744397270406e+00 -1.150432168760622265e+00 1.789019744397270406e+00 2.629272871558995917e+01
-6.689127375868182845e+00 1.044263647790818439e+01 -1.108333792943691609e+00 1.044263647790818439e+01 1.601687346272672130e+01 1.917607889764899154e+00 -1.108333792943691609e+00 1.917607889764899154e+00 2.648068452796069749e+01
-6.747670989557429166e+00 1.039894373807095285e+01 -1.072559130600538424e+00 1.039894373807095285e+01 1.616382366563151862e+01 2.058216464993447126e+00 -1.072559130600538424e+00 2.058216464993447126e+00 2.657774367697181717e+01
-6.821423761148196263e+00 1.034142123392279977e+01 -1.043430637375717396e+00 1.034142123392279977e+01 1.626536136526146237e+01 2.210917126892815610e+00 -1.043430637375717396e+00 2.210917126892815610e+00 2.658179228673123262e+01
-6.910224462818207236e+00 1.027042724951322761e+01 -1.021449910938537098e+00 1.027042724951322761e+01 1.631974888397644108e+01 2.375781532272905672e+00 -1.021449910938537098e+00 2.375781532272905672e+00 2.649139722104091987e+01
-7.014628434844194516e+00 1.018660669613134573e+01 -1.007100634755830226e+00 1.018660669613134573e+01 1.632515897312397968e+01 2.552773852728766890e+00 -1.007100634755830226e+00 2.552773852728766890e+00 2.630489245907068252e+01
-7.135155189097942774e+00 1.009056865666131841e+01 -1.000830663889478833e+00 1.009056865666131841e+01 1.627997935448129851e+01 2.741894088260398821e+00 -1.000830663889478833e+00 2.741894088260398821e+00 2.602104192084971857e+01
-7.272646693095790482e+00 9.983065527607106304e+00 -1.003105767603840626e+00 9.983065527607106304e+00 1.618240069359839595e+01 2.943088496260376274e+00 -1.003105767603840626e+00 2.943088496260376274e+00 2.563825124235772890e+01
-7.428088227973878688e+00 9.864939276485046094e+00 -1.014337972555847234e+00 9.864939276485046094e+00 1.603104359688467540e+01 3.156410819336124884e+00 -1.014337972555847234e+00 3.156410819336124884e+00 2.515499771638431881e+01
-7.602662131095574871e+00 9.736996042406527607e+00 -1.034939305402430287e+00 9.736996042406527607e+00 1.582447492814210932e+01 3.381735658070317285e+00 -1.034939305402430287e+00 3.381735658070317285e+00 2.456997360614878545e+01
-9.297838181035832150e+00 9.032745696240803923e+00 -1.250618488145988572e+01 9.032745696240803923e+00 2.572396027767928928e+01 1.491973921710166628e+00 -1.250618488145988572e+01 1.491973921710166628e+00 3.302184589145466198e+00
-9.229368681913241446e+00 9.073529155440038352e+00 -1.250706522925757902e+01 9.073529155440038352e+00 2.562739151415687289e+01 1.291470219215248738e+00 -1.250706522925757902e+01 1.291470219215248738e+00 3.266449655071775204e+00
-9.136932163155503162e+00 9.104826417962096130e+00 -1.248848809409810379e+01 9.104826417962096130e+00 2.551486869258647161e+01 1.103021891664246024e+00 -1.248848809409810379e+01 1.103021891664246024e+00 3.226061454067422396e+00
-9.020923882957500695e+00 9.126403922146360870e+00 -1.245025584688401921e+01 9.126403922146360870e+00 2.538723622820261028e+01 9.268625007177700992e-01 -1.245025584688401921e+01 9.268625007177700992e-01 3.182026097901199613e+00
-8.882799110127669096e+00 9.138189802866492073e+00 -1.239238645389690952e+01 9.138189802866492073e+00 2.524485344663699848e+01 7.632615405996051594e-01 -1.239238645389690952e+01 7.632615405996051594e-01 3.134020193504567509e+00
-8.724606000766758740e+00 9.139932532180292668e+00 -1.231482601629202200e+01 9.139932532180292668e+00 2.508863662825050156e+01 6.122908764360931455e-01 -1.231482601629202200e+01 6.122908764360931455e-01 3.082313235101307836e+00
-8.548626272636139944e+00 9.132045334564228511e+00 -1.221809555623533328e+01 9.132045334564228511e+00 2.491707660538992997e+01 4.745433955195577092e-01 -1.221809555623533328e+01 4.745433955195577092e-01 3.023455696626993205e+00
-8.357518935410473304e+00 9.114420412328788856e+00 -1.210232083769794542e+01 9.114420412328788856e+00 2.473083813047395196e+01 3.497855361893866810e-01 -1.210232083769794542e+01 3.497855361893866810e-01 2.956926555915642130e+00
-8.153978931327594992e+00 9.087291327134582986e+00 -1.196775338862205551e+01 9.087291327134582986e+00 2.452963374299719845e+01 2.379095007560664832e-01 -1.196775338862205551e+01 2.379095007560664832e-01 2.881126813906138562e+00
-7.940647303780582256e+00 9.050837741797469249e+00 -1.181471660207620467e+01 9.050837741797469249e+00 2.431335564527014981e+01 1.387715589669126504e-01 -1.181471660207620467e+01 1.387715589669126504e-01 2.794403572692611082e+00
-1.182241339266897739e+01 -1.646955874721886559e+01 8.190627344043967639e+00 -1.646955874721886559e+01 -7.411844521781205231e+00 -1.660592541808170353e+01 8.190627344043967639e+00 -1.660592541808170353e+01 -3.379732085194041780e+00
-1.169080902327347538e+01 -1.637130880463883642e+01 8.097341184916439616e+00 -1.637130880463883642e+01 -7.451371623960119095e+00 -1.644472151341227928e+01 8.097341184916439616e+00 -1.644472151341227928e+01 -3.284724170920629405e+00
-1.155098052557475974e+01 -1.625791108008385422e+01 7.977038123233815448e+00 -1.625791108008385422e+01 -7.477234584236590820e+00 -1.624245191685911038e+01 7.977038123233815448e+00 -1.624245191685911038e+01 -3.179440675404228145e+00
-1.140289126648462492e+01 -1.612998833605348992e+01 7.830505770392616860e+00 -1.612998833605348992e+01 -7.488535891949468670e+00 -1.599983097364229323e+01 7.830505770392616860e+00 -1.599983097364229323e+01 -3.065218706364513324e+00
-1.124811646879610727e+01 -1.598856629901762716e+01 7.658861435583257382e+00 -1.598856629901762716e+01 -7.485989892318852590e+00 -1.571792104331993301e+01 7.658861435583257382e+00 -1.571792104331993301e+01 -2.942864191742112556e+00
-1.108799324022888833e+01 -1.583463406235794757e+01 7.463332327260781440e+00 -1.583463406235794757e+01 -7.470475779461791532e+00 -1.539785775162654424e+01 7.463332327260781440e+00 -1.539785775162654424e+01 -2.813476124183333926e+00
-1.092448145100221524e+01 -1.566941883452949646e+01 7.245365452409498808e+00 -1.566941883452949646e+01 -7.443220761833327259e+00 -1.504074009120843769e+01 7.245365452409498808e+00 -1.504074009120843769e+01 -2.678428244496063648e+00
-1.075943107207070959e+01 -1.549401960817858104e+01 7.006462767646029377e+00 -1.549401960817858104e+01 -7.405983227667557678e+00 -1.464777695397655322e+01 7.006462767646029377e+00 -1.464777695397655322e+01 -2.539717055987764205e+00
-1.059491187291825476e+01 -1.530970022484845749e+01 6.748162862675205709e+00 -1.530970022484845749e+01 -7.360576514830890815e+00 -1.422012228220951258e+01 6.748162862675205709e+00 -1.422012228220951258e+01 -2.399192529613054070e+00
-1.043306688920514880e+01 -1.511774284262648926e+01 6.471967694113651248e+00 -1.511774284262648926e+01 -7.308905543910263702e+00 -1.375880180237721007e+01 6.471967694113651248e+00 -1.375880180237721007e+01 -2.259070967208657965e+00
2.771818181023835592e+01 -1.990707651220272822e+00 5.390893407081975397e+00 -1.990707651220272822e+00 1.871869753138343029e+00 -2.309102090704618959e+01 5.390893407081975397e+00 -2.309102090704618959e+01 3.028008435932579800e+01
2.736719958312691858e+01 -2.079494790351155586e+00 5.429968258249001423e+00 -2.079494790351155586e+00 1.762410528498952633e+00 -2.301430725867970750e+01 5.429968258249001423e+00 -2.301430725867970750e+01 2.967671121514821664e+01
2.695950208882704757e+01 -2.162378152059796665e+00 5.445357083481749960e+00 -2.162378152059796665e+00 1.627226435872559218e+00 -2.287206699964475121e+01 5.445357083481749960e+00 -2.287206699964475121e+01 2.894118564783133962e+01
2.649883015927895258e+01 -2.238684032015730629e+00 5.436918050289596849e+00 -2.238684032015730629e+00 1.466512494933771560e+00 -2.266451287867725028e+01 5.436918050289596849e+00 -2.266451287867725028e+01 2.807989011945326752e+01
2.598842821270567427e+01 -2.307880558379115765e+00 5.404775262101839672e+00 -2.307880558379115765e+00 1.279701375720091905e+00 -2.239214130949439507e+01 5.404775262101839672e+00 -2.239214130949439507e+01 2.709784195436983367e+01
2.543177114512751302e+01 -2.369471317432767066e+00 5.349265571083710924e+00 -2.369471317432767066e+00 1.065729334551837271e+00 -2.205594511953055203e+01 5.349265571083710924e+00 -2.205594511953055203e+01 2.600055489065406178e+01
2.483228066538077172e+01 -2.423119457011451150e+00 5.271044952504347236e+00 -2.423119457011451150e+00 8.233553371360439188e-01 -2.165739582087595139e+01 5.271044952504347236e+00 -2.165739582087595139e+01 2.479370222793093603e+01
2.419376852165099834e+01 -2.468683144624543857e+00 5.170946672246167886e+00 -2.468683144624543857e+00 5.515865560383411692e-01 -2.119846133933800658e+01 5.170946672246167886e+00 -2.119846133933800658e+01 2.348366642827854633e+01
2.352004646212370886e+01 -2.506038276842748935e+00 5.050052203050183763e+00 -2.506038276842748935e+00 2.494478928856858901e-01 -2.068144645288936445e+01 5.050052203050183763e+00 -2.068144645288936445e+01 2.207723772218554004e+01
2.281513898372037374e+01 -2.535344415218018010e+00 4.909673495454671688e+00 -2.535344415218018010e+00 -8.389391820434013991e-02 -2.010927645664915531e+01 4.909673495454671688e+00 -2.010927645664915531e+01 2.058198641883899782e+01
1.065997715035055116e+01 1.302148451238450910e+01 2.559286555466306901e-01 1.302148451238450910e+01 1.694507286019797832e+01 1.387790623929141631e+01 2.559286555466306901e-01 1.387790623929141631e+01 2.578118103410858097e+01
1.051365357255398081e+01 1.295539831452516566e+01 8.575935939296700991e-03 1.295539831452516566e+01 1.688924937656827296e+01 1.391071851592872655e+01 8.575935939296700991e-03 1.391071851592872655e+01 2.549845923708700468e+01
1.034847358902752568e+01 1.287168084464155626e+01 -2.483470310205857789e-01 1.287168084464155626e+01 1.680863912985106978e+01 1.392882918809866943e+01 -2.483470310205857789e-01 1.392882918809866943e+01 2.513578414910341507e+01
1.016473904430735686e+01 1.277104232517171312e+01 -5.142188006997343575e-01 1.277104232517171312e+01 1.670263843097405143e+01 1.393213172243554254e+01 -5.142188006997343575e-01 1.393213172243554254e+01 2.469276514781688547e+01
9.962378916149667418e+00 1.265444155640699009e+01 -7.881160839287010278e-01 1.265444155640699009e+01 1.657035950188965856e+01 1.392046631889078334e+01 -7.881160839287010278e-01 1.392046631889078334e+01 2.417011245566546407e+01
9.740594204311664228e+00 1.252294387200443992e+01 -1.069239880464694092e+00 1.252294387200443992e+01 1.641020434211231915e+01 1.389367317741583818e+01 -1.069239880464694092e+00 1.389367317741583818e+01 2.356775505040533858e+01
9.498426108502000531e+00 1.237777440566967968e+01 -1.356915478991578494e+00 1.237777440566967968e+01 1.622061046227834424e+01 1.385155698684024372e+01 -1.356915478991578494e+00 1.385155698684024372e+01 2.288567517647556215e+01
9.234489694966502071e+00 1.222024706891307311e+01 -1.650627968241777266e+00 1.222024706891307311e+01 1.599971352848788797e+01 1.379399345823734713e+01 -1.650627968241777266e+00 1.379399345823734713e+01 2.212351772265711247e+01
8.947329007707194748e+00 1.205172903992784583e+01 -1.950004481435321013e+00 1.205172903992784583e+01 1.574564920684110270e+01 1.372091156936333967e+01 -1.950004481435321013e+00 1.372091156936333967e+01 2.128067899987765799e+01
8.635168490628984728e+00 1.187362300802911896e+01 -2.254689907353191192e+00 1.187362300802911896e+01 1.545651765231624353e+01 1.363224029797442149e+01 -2.254689907353191192e+00 1.363224029797442149e+01 2.035639551901631705e+01
-4.278577535430180490e+00 -5.950531117836367123e+00 -6.601474903580788478e+00 -5.950531117836367123e+00 -3.129767885730256438e+01 2.627617634901190158e+01 -6.601474903580788478e+00 2.627617634901190158e+01 -3.006012225777444158e+01
-4.316468571013414746e+00 -5.879366725699205709e+00 -6.460300539063791980e+00 -5.879366725699205709e+00 -3.128162869874101304e+01 2.625027638316606371e+01 -6.460300539063791980e+00 2.625027638316606371e+01 -3.009119849285474757e+01
-4.315165193868045534e+00 -5.803063303674587559e+00 -6.313912665965317750e+00 -5.803063303674587559e+00 -3.121072498203292511e+01 2.619521800861096494e+01 -6.313912665965317750e+00 2.619521800861096494e+01 -3.000027862712849114e+01
-4.273885377706850619e+00 -5.721881527191587935e+00 -6.162199566244336069e+00 -5.721881527191587935e+00 -3.108394362513551101e+01 2.611047987448845475e+01 -6.162199566244336069e+00 2.611047987448845475e+01 -2.978658063430844649e+01
-4.193709063593135333e+00 -5.636175170046806571e+00 -6.005496394023939644e+00 -5.636175170046806571e+00 -3.090210389368299104e+01 2.599559648896090991e+01 -6.005496394023939644e+00 2.599559648896090991e+01 -2.945174304566308265e+01
-4.075976868019280275e+00 -5.546223527342821313e+00 -5.844007965712687991e+00 -5.546223527342821313e+00 -3.066639744677971180e+01 2.585006512084368069e+01 -5.844007965712687991e+00 2.585006512084368069e+01 -2.899824227776860042e+01
-3.922122505845191398e+00 -5.452305894182212676e+00 -5.677939097719137962e+00 -5.452305894182212676e+00 -3.037842557634712648e+01 2.567336441927861657e+01 -5.677939097719137962e+00 2.567336441927861657e+01 -2.842905747838584318e+01
-3.734101042788921632e+00 -5.354757424688076028e+00 -5.507438747431333326e+00 -5.354757424688076028e+00 -3.004025506614431862e+01 2.546489855471355668e+01 -5.507438747431333326e+00 2.546489855471355668e+01 -2.774813601829792731e+01
-3.513811685548011265e+00 -5.253894653310000606e+00 -5.332693111584324797e+00 -5.253894653310000606e+00 -2.965421337535944701e+01 2.522410893694333467e+01 -5.332693111584324797e+00 2.522410893694333467e+01 -2.696002109784014422e+01
-3.263283978534532892e+00 -5.150071353844586142e+00 -5.153758049198630786e+00 -5.150071353844586142e+00 -2.922262796318067046e+01 2.495034387739527659e+01 -5.153758049198630786e+00 2.495034387739527659e+01 -2.606893938289818990e+01
-1.114190779559508471e+01 -3.597884060717676302e+00 -8.217964377851352253e+00 -3.597884060717676302e+00 -1.141000274277681115e+01 2.316491799286822584e+01 -8.217964377851352253e+00 2.316491799286822584e+01 -3.028431183896107726e+01
-1.098742304614775733e+01 -3.612401637602611348e+00 -8.214787503520298628e+00 -3.612401637602611348e+00 -1.122177293866182701e+01 2.305679344441477951e+01 -8.214787503520298628e+00 2.305679344441477951e+01 -2.982826414065835507e+01
-1.078624563211376675e+01 -3.624351856743264211e+00 -8.204074787752787756e+00 -3.624351856743264211e+00 -1.098834655612771449e+01 2.292351248410728104e+01 -8.204074787752787756e+00 2.292351248410728104e+01 -2.925086723098919350e+01
-1.053926212307387544e+01 -3.633697777740436674e+00 -8.185567647754435683e+00 -3.633697777740436674e+00 -1.071085027735001916e+01 2.276450253575815807e+01 -8.185567647754435683e+00 2.276450253575815807e+01 -2.855601832206900426e+01
-1.024791319459681382e+01 -3.640217758198938114e+00 -8.159062911329648671e+00 -3.640217758198938114e+00 -1.039096489049226513e+01 2.257944960597423290e+01 -8.159062911329648671e+00 2.257944960597423290e+01 -2.774779932800920790e+01
-9.913990456043702437e+00 -3.643616274925182363e+00 -8.124338936083239204e+00 -3.643616274925182363e+00 -1.003064823671196137e+01 2.236805817156191267e+01 -8.124338936083239204e+00 2.236805817156191267e+01 -2.683080932850999289e+01
-9.539617980368442218e+00 -3.643653215324380579e+00 -8.081100198821618008e+00 -3.643653215324380579e+00 -9.632356852555798099e+00 2.213005117952721079e+01 -8.081100198821618008e+00 2.213005117952721079e+01 -2.581106960864067545e+01
-9.127178423319325162e+00 -3.640033056202946593e+00 -8.029106586949998459e+00 -3.640033056202946593e+00 -9.198805857364845906e+00 2.186513310667653798e+01 -8.029106586949998459e+00 2.186513310667653798e+01 -2.469491544686377793e+01
-8.679497725435021849e+00 -3.632552625365288890e+00 -7.968081047474393053e+00 -3.632552625365288890e+00 -8.733061304272569103e+00 2.157310078081430760e+01 -7.968081047474393053e+00 2.157310078081430760e+01 -2.348967951242016028e+01
-8.199438767653401072e+00 -3.620971810216619069e+00 -7.897801937999610722e+00 -3.620971810216619069e+00 -8.238355478208818639e+00 2.125369561914613215e+01 -7.897801937999610722e+00 2.125369561914613215e+01 -2.220286070634707443e+01
-2.853015241935494117e+01 1.048474454579281101e+01 -1.944020051562660889e+00 1.048474454579281101e+01 1.158936104702019021e+00 -1.996081612576203668e+01 -1.944020051562660889e+00 -1.996081612576203668e+01 -4.653851573811428466e+01
-2.832772905808584696e+01 1.044083092530046208e+01 -1.984359524053935120e+00 1.044083092530046208e+01 1.191661897336841802e+00 -1.986842812300513827e+01 -1.984359524053935120e+00 -1.986842812300513827e+01 -4.619966044611674505e+01
-2.805384135214947605e+01 1.039298946507777011e+01 -2.020696695398174647e+00 1.039298946507777011e+01 1.265937160484135404e+00 -1.974081987015433626e+01 -2.020696695398174647e+00 -1.974081987015433626e+01 -4.570843848021930000e+01
-2.770694422714952054e+01 1.034097816552049309e+01 -2.053943717949820336e+00 1.034097816552049309e+01 1.382878815394235295e+00 -1.957773075225122028e+01 -2.053943717949820336e+00 -1.957773075225122028e+01 -4.506620876127654185e+01
-2.728904814133658974e+01 1.028496456481618004e+01 -2.084845205875762719e+00 1.028496456481618004e+01 1.540625326649915694e+00 -1.937927246142081827e+01 -2.084845205875762719e+00 -1.937927246142081827e+01 -4.427660128335204348e+01
-2.680199601477373861e+01 1.022509758579820982e+01 -2.114071311926200902e+00 1.022509758579820982e+01 1.737687465917397089e+00 -1.914583592010075108e+01 -2.114071311926200902e+00 -1.914583592010075108e+01 -4.334384173184290034e+01
-2.624837538169090223e+01 1.016152615129996306e+01 -2.142441111684716404e+00 1.016152615129996306e+01 1.972259543841969887e+00 -1.887784928143698338e+01 -2.142441111684716404e+00 -1.887784928143698338e+01 -4.227347748229247060e+01
-2.563181623615167481e+01 1.009443641486316068e+01 -2.170736450026542474e+00 1.009443641486316068e+01 2.241884333672897522e+00 -1.857618746707560931e+01 -2.170736450026542474e+00 -1.857618746707560931e+01 -4.107286159959878091e+01
-2.495570657261540859e+01 1.002412622215455684e+01 -2.199664710410225155e+00 1.002412622215455684e+01 2.544830607472159389e+00 -1.824232108999623136e+01 -2.199664710410225155e+00 -1.824232108999623136e+01 -3.974979391715999100e+01
-2.422725053314676202e+01 9.950967880257598708e+00 -2.230138045190205087e+00 9.950967880257598708e+00 2.876630680238414950e+00 -1.787654799586561438e+01 -2.230138045190205087e+00 -1.787654799586561438e+01 -3.831445703370835076e+01
8.069973148272108432e+00 -6.555978365008051867e+00 -7.137351092524152563e+00 -6.555978365008051867e+00 3.189860417550616489e+01 -1.068901506529846301e+01 -7.137351092524152563e+00 -1.068901506529846301e+01 3.202422539071219632e+01
8.171936817757330829e+00 -6.543973306412022239e+00 -7.200954985937478625e+00 -6.543973306412022239e+00 3.185368657006903348e+01 -1.078574304843563780e+01 -7.200954985937478625e+00 -1.078574304843563780e+01 3.209992248558936012e+01
8.252252598907862335e+00 -6.527631618719628825e+00 -7.257225392748826387e+00 -6.527631618719628825e+00 3.175373255796993277e+01 -1.083550851160243944e+01 -7.257225392748826387e+00 -1.083550851160243944e+01 3.205918285208653629e+01
8.309809891589265973e+00 -6.507023816225122381e+00 -7.305968398649004492e+00 -6.507023816225122381e+00 3.159877739635597749e+01 -1.083859351197586918e+01 -7.305968398649004492e+00 -1.083859351197586918e+01 3.190017311855321935e+01
8.342740067003926896e+00 -6.482343813237689822e+00 -7.346866689313893417e+00 -6.482343813237689822e+00 3.138882108522717829e+01 -1.079549164961567165e+01 -7.346866689313893417e+00 -1.079549164961567165e+01 3.162211762775266521e+01
8.349033467765723415e+00 -6.453767895492955375e+00 -7.379708721860740894e+00 -6.453767895492955375e+00 3.112396939602490065e+01 -1.070694332461147624e+01 -7.379708721860740894e+00 -1.070694332461147624e+01 3.122424072244812621e+01
8.326222093575909255e+00 -6.421542863020793135e+00 -7.404265324833237294e+00 -6.421542863020793135e+00 3.080423995732270726e+01 -1.057388285136208950e+01 -7.404265324833237294e+00 -1.057388285136208950e+01 3.070567860253504477e+01
8.271714544120808199e+00 -6.386021287292452442e+00 -7.420324955348630347e+00 -6.386021287292452442e+00 3.042977379770910673e+01 -1.039736794428125854e+01 -7.420324955348630347e+00 -1.039736794428125854e+01 3.006570849649735067e+01
8.182796019071799876e+00 -6.347520482632057259e+00 -7.427711327671298491e+00 -6.347520482632057259e+00 3.000080008864040337e+01 -1.017865023209191833e+01 -7.427711327671298491e+00 -1.017865023209191833e+01 2.930355474709830332e+01
8.056610689511769507e+00 -6.306463534805106796e+00 -7.426248156065614836e+00 -6.306463534805106796e+00 2.951770665873497279e+01 -9.918981343517000226e+00 -7.426248156065614836e+00 -9.918981343517000226e+00 2.841863561141034467e+01