0.000000000000000000e+00 2.032270000000000021e+00 9.316940000000000666e+00 -1.760000000000000009e+00 5.080680000000000085e+00 9.316940000000000666e+00 -3.520000000000000018e+00 8.129089999999999705e+00 9.316940000000000666e+00 3.520000000000000018e+00 2.032270000000000021e+00 9.316940000000000666e+00 1.760000000000000009e+00 5.080680000000000085e+00 9.316940000000000666e+00 0.000000000000000000e+00 8.129089999999999705e+00 9.316940000000000666e+00 7.040000000000000036e+00 2.032270000000000021e+00 9.316940000000000666e+00 5.280000000000000249e+00 5.080680000000000085e+00 9.316940000000000666e+00 3.520000000000000018e+00 8.129089999999999705e+00 9.316940000000000666e+00 1.759999999999999898e-01 2.032270000000000021e+00 1.706246000000000151e+01 -1.584000000000000075e+00 5.080680000000000085e+00 1.706246000000000151e+01 -3.343999999999999861e+00 8.129089999999999705e+00 1.706246000000000151e+01 3.696000000000000174e+00 2.032270000000000021e+00 1.706246000000000151e+01 1.935999999999999943e+00 5.080680000000000085e+00 1.706246000000000151e+01 1.759999999999999898e-01 8.129089999999999705e+00 1.706246000000000151e+01 7.216000000000000192e+00 2.032270000000000021e+00 1.706246000000000151e+01 5.456000000000000405e+00 5.080680000000000085e+00 1.706246000000000151e+01 3.696000000000000174e+00 8.129089999999999705e+00 1.706246000000000151e+01 0.000000000000000000e+00 2.032270000000000021e+00 1.293755999999999950e+01 -1.760000000000000009e+00 5.080680000000000085e+00 1.293755999999999950e+01 -3.520000000000000018e+00 8.129089999999999705e+00 1.293755999999999950e+01 3.520000000000000018e+00 2.032270000000000021e+00 1.293755999999999950e+01 1.760000000000000009e+00 5.080680000000000085e+00 1.293755999999999950e+01 0.000000000000000000e+00 8.129089999999999705e+00 1.293755999999999950e+01 7.040000000000000036e+00 2.032270000000000021e+00 1.293755999999999950e+01 5.280000000000000249e+00 5.080680000000000085e+00 1.293755999999999950e+01 3.520000000000000018e+00 8.129089999999999705e+00 1.293755999999999950e+01 1.759999999999999898e-01 2.032270000000000021e+00 2.068308000000000035e+01 -1.584000000000000075e+00 5.080680000000000085e+00 2.068308000000000035e+01 -3.343999999999999861e+00 8.129089999999999705e+00 2.068308000000000035e+01 3.696000000000000174e+00 2.032270000000000021e+00 2.068308000000000035e+01 1.935999999999999943e+00 5.080680000000000085e+00 2.068308000000000035e+01 1.759999999999999898e-01 8.129089999999999705e+00 2.068308000000000035e+01 7.216000000000000192e+00 2.032270000000000021e+00 2.068308000000000035e+01 5.456000000000000405e+00 5.080680000000000085e+00 2.068308000000000035e+01 3.696000000000000174e+00 8.129089999999999705e+00 2.068308000000000035e+01 0.000000000000000000e+00 0.000000000000000000e+00 1.112740999999999936e+01 -1.760000000000000009e+00 3.048410000000000064e+00 1.112740999999999936e+01 -3.520000000000000018e+00 6.096820000000000128e+00 1.112740999999999936e+01 3.520000000000000018e+00 0.000000000000000000e+00 1.112740999999999936e+01 1.760000000000000009e+00 3.048410000000000064e+00 1.112740999999999936e+01 0.000000000000000000e+00 6.096820000000000128e+00 1.112740999999999936e+01 7.040000000000000036e+00 0.000000000000000000e+00 1.112740999999999936e+01 5.280000000000000249e+00 3.048410000000000064e+00 1.112740999999999936e+01 3.520000000000000018e+00 6.096820000000000128e+00 1.112740999999999936e+01 1.759999999999999898e-01 0.000000000000000000e+00 1.887259999999999849e+01 -1.584000000000000075e+00 3.048410000000000064e+00 1.887259999999999849e+01 -3.343999999999999861e+00 6.096820000000000128e+00 1.887259999999999849e+01 3.696000000000000174e+00 0.000000000000000000e+00 1.887259999999999849e+01 1.935999999999999943e+00 3.048410000000000064e+00 1.887259999999999849e+01 1.759999999999999898e-01 6.096820000000000128e+00 1.887259999999999849e+01 7.216000000000000192e+00 0.000000000000000000e+00 1.887259999999999849e+01 5.456000000000000405e+00 3.048410000000000064e+00 1.887259999999999849e+01 3.696000000000000174e+00 6.096820000000000128e+00 1.887259999999999849e+01
-1.499999999999999869e-04 2.031280000000000197e+00 9.317239999999999966e+00 -1.757859999999999978e+00 5.084629999999999761e+00 9.318889999999999674e+00 -3.521329999999999849e+00 8.129630000000000578e+00 9.317579999999999529e+00 3.520779999999999799e+00 2.035719999999999974e+00 9.313840000000000785e+00 1.760380000000000056e+00 5.078409999999999869e+00 9.317030000000000811e+00 1.799999999999999951e-03 8.128890000000000171e+00 9.317170000000000840e+00 7.042810000000000237e+00 2.029910000000000103e+00 9.317230000000000345e+00 5.279060000000000308e+00 5.078380000000000116e+00 9.315630000000000521e+00 3.519219999999999793e+00 8.126419999999999533e+00 9.316209999999999880e+00 1.755400000000000016e-01 2.034279999999999866e+00 1.706349000000000160e+01 -1.582049999999999956e+00 5.079780000000000406e+00 1.706234999999999857e+01 -3.341629999999999878e+00 8.129780000000000229e+00 1.706128999999999962e+01 3.696769999999999889e+00 2.030839999999999979e+00 1.706223999999999918e+01 1.933750000000000080e+00 5.080919999999999881e+00 1.706268000000000029e+01 1.743999999999999995e-01 8.130750000000000810e+00 1.706484000000000023e+01 7.214839999999999698e+00 2.031859999999999999e+00 1.706229000000000084e+01 5.457410000000000316e+00 5.080820000000000114e+00 1.705950999999999951e+01 3.696279999999999788e+00 8.130860000000000198e+00 1.706589999999999918e+01 -1.330000000000000019e-03 2.031029999999999891e+00 1.293687000000000076e+01 -1.757270000000000110e+00 5.079060000000000130e+00 1.293873999999999924e+01 -3.519649999999999945e+00 8.128539999999999210e+00 1.293477999999999994e+01 3.518499999999999961e+00 2.033090000000000064e+00 1.293628999999999962e+01 1.761239999999999917e+00 5.080289999999999750e+00 1.293740000000000023e+01 8.800000000000000313e-04 8.127530000000000143e+00 1.293773000000000017e+01 7.038999999999999702e+00 2.033700000000000063e+00 1.293678000000000061e+01 5.278509999999999813e+00 5.078940000000000232e+00 1.293618000000000023e+01 3.518400000000000194e+00 8.130069999999999908e+00 1.293512999999999913e+01 1.743899999999999895e-01 2.032610000000000028e+00 2.068267000000000166e+01 -1.583949999999999969e+00 5.080219999999999736e+00 2.068499999999999872e+01 -3.341190000000000104e+00 8.126839999999999620e+00 2.068499999999999872e+01 3.694010000000000016e+00 2.032939999999999969e+00 2.068481999999999843e+01 1.935449999999999893e+00 5.078579999999999650e+00 2.068568000000000140e+01 1.753000000000000114e-01 8.129540000000000433e+00 2.068462999999999852e+01 7.214509999999999756e+00 2.033809999999999896e+00 2.068270000000000053e+01 5.454790000000000028e+00 5.081760000000000055e+00 2.068527999999999878e+01 3.699559999999999960e+00 8.129680000000000462e+00 2.068232000000000070e+01 5.278880000000000017e+00 9.143959999999999866e+00 1.112832000000000043e+01 -1.757460000000000022e+00 3.050710000000000033e+00 1.112634000000000079e+01 7.038909999999999556e+00 6.097920000000000229e+00 1.112703999999999915e+01 3.520119999999999916e+00 1.910000000000000022e-03 1.112471999999999994e+01 1.759370000000000100e+00 3.047419999999999796e+00 1.112879000000000040e+01 -1.729999999999999984e-03 6.098740000000000272e+00 1.113096999999999959e+01 1.759330000000000060e+00 9.140459999999999141e+00 1.112829999999999941e+01 5.278349999999999653e+00 3.047740000000000116e+00 1.112936000000000014e+01 3.518050000000000122e+00 6.097520000000000273e+00 1.112550000000000061e+01 -5.105559999999999654e+00 9.142939999999999401e+00 1.887398999999999916e+01 -1.582570000000000032e+00 3.047159999999999869e+00 1.887359999999999971e+01 -3.345779999999999976e+00 6.098980000000000068e+00 1.887077999999999989e+01 3.698980000000000157e+00 1.200000000000000030e-04 1.887192999999999898e+01 1.935040000000000093e+00 3.050310000000000077e+00 1.887021000000000015e+01 1.729199999999999904e-01 6.098550000000000360e+00 1.887353999999999843e+01 1.936690000000000023e+00 9.145070000000000476e+00 1.886993999999999971e+01 5.458370000000000388e+00 3.050229999999999997e+00 1.886896000000000129e+01 3.697890000000000121e+00 6.096709999999999852e+00 1.887367000000000061e+01
-2.999999999999999737e-04 2.030289999999999928e+00 9.317539999999999267e+00 -1.755730000000000013e+00 5.088580000000000325e+00 9.320830000000000837e+00 -3.522660000000000124e+00 8.130179999999999296e+00 9.318210000000000548e+00 3.521570000000000089e+00 2.039169999999999927e+00 9.310750000000000526e+00 1.760750000000000037e+00 5.076150000000000162e+00 9.317119999999999180e+00 3.589999999999999875e-03 8.128700000000000259e+00 9.317410000000000636e+00 7.045600000000000307e+00 2.027540000000000120e+00 9.317529999999999646e+00 5.278120000000000367e+00 5.076080000000000148e+00 9.314329999999999998e+00 3.518440000000000012e+00 8.123749999999999361e+00 9.315480000000000871e+00 1.750899999999999956e-01 2.036280000000000090e+00 1.706453000000000131e+01 -1.580109999999999904e+00 5.078890000000000349e+00 1.706223999999999918e+01 -3.339259999999999895e+00 8.130459999999999354e+00 1.706012000000000128e+01 3.697529999999999983e+00 2.029420000000000002e+00 1.706202000000000041e+01 1.931510000000000060e+00 5.081170000000000186e+00 1.706290999999999869e+01 1.728099999999999914e-01 8.132400000000000517e+00 1.706719999999999970e+01 7.213680000000000092e+00 2.031439999999999912e+00 1.706212000000000018e+01 5.458820000000000228e+00 5.080969999999999764e+00 1.705657000000000068e+01 3.696559999999999846e+00 8.132619999999999294e+00 1.706933000000000078e+01 -2.660000000000000038e-03 2.029790000000000205e+00 1.293619999999999948e+01 -1.754550000000000054e+00 5.077440000000000175e+00 1.293993000000000038e+01 -3.519309999999999938e+00 8.127990000000000492e+00 1.293201999999999963e+01 3.516989999999999839e+00 2.033900000000000041e+00 1.293501999999999974e+01 1.762469999999999981e+00 5.079900000000000304e+00 1.293723999999999918e+01 1.750000000000000036e-03 8.125980000000000203e+00 1.293791000000000047e+01 7.038000000000000256e+00 2.035130000000000106e+00 1.293599999999999994e+01 5.277009999999999756e+00 5.077210000000000001e+00 1.293479999999999919e+01 3.516809999999999992e+00 8.131050000000000111e+00 1.293271000000000015e+01 1.727899999999999991e-01 2.032950000000000035e+00 2.068225999999999942e+01 -1.583900000000000086e+00 5.079749999999999766e+00 2.068692000000000064e+01 -3.338379999999999903e+00 8.124589999999999534e+00 2.068692000000000064e+01 3.692029999999999923e+00 2.033609999999999918e+00 2.068655000000000044e+01 1.934889999999999999e+00 5.076480000000000103e+00 2.068826999999999927e+01 1.746099999999999874e-01 8.129979999999999762e+00 2.068618000000000023e+01 7.213020000000000209e+00 2.035340000000000149e+00 2.068231000000000108e+01 5.453590000000000160e+00 5.082819999999999894e+00 2.068748000000000076e+01 3.703110000000000124e+00 8.130269999999999442e+00 2.068156000000000105e+01 5.277750000000000163e+00 9.142709999999999226e+00 1.112921000000000049e+01 -1.754939999999999944e+00 3.052999999999999936e+00 1.112527000000000044e+01 7.037829999999999586e+00 6.099009999999999820e+00 1.112665999999999933e+01 3.520239999999999814e+00 3.810000000000000019e-03 1.112203000000000053e+01 1.758750000000000036e+00 3.046440000000000037e+00 1.113016000000000005e+01 -3.449999999999999942e-03 6.100660000000000416e+00 1.113451000000000057e+01 1.758659999999999890e+00 9.135709999999999553e+00 1.112917999999999985e+01 5.276709999999999567e+00 3.047070000000000167e+00 1.113127000000000066e+01 3.516119999999999912e+00 6.098220000000000418e+00 1.112359999999999971e+01 -5.107079999999999842e+00 9.140660000000000451e+00 1.887537999999999982e+01 -1.581150000000000055e+00 3.045920000000000183e+00 1.887459000000000131e+01 -3.347550000000000026e+00 6.101119999999999877e+00 1.886897000000000091e+01 3.701929999999999943e+00 2.300000000000000070e-04 1.887126999999999910e+01 1.934090000000000087e+00 3.052189999999999959e+00 1.886784000000000106e+01 1.698600000000000110e-01 6.100270000000000081e+00 1.887447999999999837e+01 1.937380000000000102e+00 9.144920000000000826e+00 1.886731999999999942e+01 5.460720000000000240e+00 3.052059999999999995e+00 1.886534999999999940e+01 3.699770000000000003e+00 6.096599999999999575e+00 1.887472999999999956e+01
-4.499999999999999877e-04 2.029300000000000104e+00 9.317840000000000344e+00 -1.753609999999999891e+00 5.092520000000000380e+00 9.322760000000000602e+00 -3.523979999999999890e+00 8.130720000000000169e+00 9.318830000000000169e+00 3.522339999999999804e+00 2.042600000000000193e+00 9.307679999999999509e+00 1.761100000000000110e+00 5.073900000000000077e+00 9.317220000000000724e+00 5.360000000000000181e-03 8.128489999999999327e+00 9.317640000000000811e+00 7.048390000000000377e+00 2.025189999999999824e+00 9.317849999999999966e+00 5.277190000000000047e+00 5.073789999999999800e+00 9.313040000000000873e+00 3.517669999999999852e+00 8.121100000000000207e+00 9.314740000000000464e+00 1.746399999999999897e-01 2.038260000000000183e+00 1.706555000000000177e+01 -1.578179999999999916e+00 5.077989999999999782e+00 1.706213999999999942e+01 -3.336899999999999977e+00 8.131159999999999499e+00 1.705895999999999901e+01 3.698300000000000143e+00 2.028010000000000090e+00 1.706178999999999846e+01 1.929270000000000040e+00 5.081430000000000113e+00 1.706314000000000064e+01 1.712299999999999933e-01 8.134040000000000603e+00 1.706953999999999994e+01 7.212550000000000239e+00 2.031039999999999957e+00 1.706193999999999988e+01 5.460230000000000139e+00 5.081129999999999924e+00 1.705361999999999867e+01 3.696849999999999969e+00 8.134370000000000545e+00 1.707272000000000034e+01 -3.980000000000000031e-03 2.028560000000000141e+00 1.293552999999999997e+01 -1.751859999999999973e+00 5.075840000000000352e+00 1.294111000000000011e+01 -3.518959999999999866e+00 8.127439999999999998e+00 1.292925999999999931e+01 3.515489999999999782e+00 2.034689999999999888e+00 1.293377000000000088e+01 1.763689999999999980e+00 5.079519999999999591e+00 1.293708999999999953e+01 2.589999999999999854e-03 8.124449999999999505e+00 1.293811000000000000e+01 7.036999999999999922e+00 2.036540000000000017e+00 1.293521999999999927e+01 5.275520000000000209e+00 5.075490000000000279e+00 1.293342999999999954e+01 3.515219999999999789e+00 8.132009999999999295e+00 1.293032000000000004e+01 1.711999999999999911e-01 2.033279999999999976e+00 2.068185000000000073e+01 -1.583869999999999889e+00 5.079290000000000305e+00 2.068881999999999977e+01 -3.335580000000000211e+00 8.122360000000000468e+00 2.068881999999999977e+01 3.690059999999999896e+00 2.034289999999999932e+00 2.068824000000000041e+01 1.934339999999999948e+00 5.074399999999999800e+00 2.069084000000000145e+01 1.739300000000000013e-01 8.130430000000000490e+00 2.068772999999999840e+01 7.211540000000000283e+00 2.036859999999999893e+00 2.068192000000000164e+01 5.452410000000000423e+00 5.083890000000000242e+00 2.068965999999999994e+01 3.706630000000000091e+00 8.130839999999999179e+00 2.068082000000000065e+01 5.276609999999999800e+00 9.141460000000000363e+00 1.113007999999999953e+01 -1.752439999999999998e+00 3.055270000000000152e+00 1.112421999999999933e+01 7.036760000000000126e+00 6.100060000000000038e+00 1.112630000000000052e+01 3.520370000000000221e+00 5.709999999999999798e-03 1.111936000000000035e+01 1.758119999999999905e+00 3.045450000000000212e+00 1.113150000000000084e+01 -5.130000000000000011e-03 6.102549999999999919e+00 1.113799999999999990e+01 1.758000000000000007e+00 9.131019999999999470e+00 1.113005000000000067e+01 5.275079999999999991e+00 3.046400000000000219e+00 1.113313999999999915e+01 3.514209999999999834e+00 6.098889999999999922e+00 1.112171999999999983e+01 -5.108539999999999637e+00 9.138429999999999609e+00 1.887674000000000163e+01 -1.579760000000000053e+00 3.044700000000000184e+00 1.887557999999999936e+01 -3.349279999999999813e+00 6.103229999999999933e+00 1.886718000000000117e+01 3.704849999999999977e+00 3.600000000000000227e-04 1.887065000000000126e+01 1.933149999999999924e+00 3.054050000000000153e+00 1.886551000000000045e+01 1.668399999999999883e-01 6.101980000000000182e+00 1.887544000000000111e+01 1.938050000000000050e+00 9.144769999999999399e+00 1.886477000000000004e+01 5.463029999999999831e+00 3.053889999999999993e+00 1.886180999999999841e+01 3.701630000000000198e+00 6.096479999999999677e+00 1.887577999999999889e+01
-5.900000000000000296e-04 2.028309999999999835e+00 9.318139999999999645e+00 -1.751509999999999900e+00 5.096449999999999925e+00 9.324680000000000746e+00 -3.525300000000000100e+00 8.131270000000000664e+00 9.319440000000000168e+00 3.523109999999999964e+00 2.046019999999999950e+00 9.304619999999999891e+00 1.761430000000000051e+00 5.071659999999999613e+00 9.317339999999999733e+00 7.130000000000000053e-03 8.128280000000000172e+00 9.317849999999999966e+00 7.051160000000000316e+00 2.022839999999999971e+00 9.318189999999999529e+00 5.276259999999999728e+00 5.071509999999999962e+00 9.311769999999999214e+00 3.516900000000000137e+00 8.118460000000000676e+00 9.313990000000000435e+00 1.741999999999999937e-01 2.040200000000000014e+00 1.706655999999999906e+01 -1.576270000000000060e+00 5.077099999999999724e+00 1.706204999999999927e+01 -3.334560000000000191e+00 8.131859999999999644e+00 1.705780999999999992e+01 3.699059999999999793e+00 2.026619999999999866e+00 1.706156000000000006e+01 1.927059999999999995e+00 5.081719999999999793e+00 1.706337999999999866e+01 1.696699999999999875e-01 8.135669999999999291e+00 1.707184000000000168e+01 7.211450000000000138e+00 2.030629999999999935e+00 1.706174000000000035e+01 5.461619999999999919e+00 5.081290000000000084e+00 1.705067999999999984e+01 3.697140000000000093e+00 8.136089999999999378e+00 1.707607000000000141e+01 -5.309999999999999616e-03 2.027320000000000011e+00 1.293487000000000009e+01 -1.749209999999999932e+00 5.074250000000000149e+00 1.294229999999999947e+01 -3.518609999999999793e+00 8.126899999999999125e+00 1.292652999999999963e+01 3.513980000000000103e+00 2.035470000000000113e+00 1.293255000000000088e+01 1.764909999999999979e+00 5.079130000000000145e+00 1.293693999999999988e+01 3.409999999999999837e-03 8.122949999999999449e+00 1.293831999999999915e+01 7.036030000000000229e+00 2.037929999999999797e+00 1.293441999999999936e+01 5.274020000000000152e+00 5.073800000000000310e+00 1.293206999999999951e+01 3.513640000000000096e+00 8.132939999999999614e+00 1.292796000000000056e+01 1.696400000000000130e-01 2.033599999999999852e+00 2.068143999999999849e+01 -1.583860000000000046e+00 5.078839999999999577e+00 2.069069000000000003e+01 -3.332790000000000141e+00 8.120150000000000645e+00 2.069069999999999965e+01 3.688120000000000065e+00 2.034980000000000011e+00 2.068988999999999834e+01 1.933780000000000054e+00 5.072350000000000136e+00 2.069337000000000160e+01 1.732799999999999896e-01 8.130890000000000839e+00 2.068927000000000049e+01 7.210060000000000358e+00 2.038370000000000015e+00 2.068151999999999902e+01 5.451240000000000308e+00 5.084939999999999571e+00 2.069181000000000026e+01 3.710109999999999797e+00 8.131410000000000693e+00 2.068008999999999986e+01 5.275459999999999816e+00 9.140219999999999345e+00 1.113091000000000008e+01 -1.749970000000000026e+00 3.057519999999999794e+00 1.112317000000000000e+01 7.035700000000000287e+00 6.101069999999999993e+00 1.112593999999999994e+01 3.520519999999999872e+00 7.609999999999999577e-03 1.111672000000000082e+01 1.757509999999999906e+00 3.044470000000000010e+00 1.113278999999999996e+01 -6.760000000000000384e-03 6.104400000000000048e+00 1.114142999999999972e+01 1.757349999999999968e+00 9.126400000000000290e+00 1.113089000000000084e+01 5.273469999999999658e+00 3.045729999999999826e+00 1.113493000000000066e+01 3.512329999999999952e+00 6.099540000000000184e+00 1.111984999999999957e+01 -5.109899999999999665e+00 9.136260000000000048e+00 1.887809000000000026e+01 -1.578430000000000000e+00 3.043520000000000003e+00 1.887655000000000172e+01 -3.350979999999999848e+00 6.105269999999999975e+00 1.886543999999999954e+01 3.707699999999999996e+00 5.000000000000000104e-04 1.887010000000000076e+01 1.932229999999999892e+00 3.055860000000000021e+00 1.886324000000000112e+01 1.638699999999999879e-01 6.103670000000000151e+00 1.887642999999999915e+01 1.938700000000000090e+00 9.144629999999999370e+00 1.886232000000000042e+01 5.465290000000000425e+00 3.055719999999999992e+00 1.885835000000000150e+01 3.703450000000000131e+00 6.096330000000000027e+00 1.887681999999999860e+01
-7.200000000000000453e-04 2.027320000000000011e+00 9.318429999999999325e+00 -1.749409999999999910e+00 5.100360000000000227e+00 9.326570000000000249e+00 -3.526619999999999866e+00 8.131809999999999761e+00 9.320029999999999148e+00 3.523870000000000058e+00 2.049420000000000019e+00 9.301579999999999515e+00 1.761710000000000109e+00 5.069440000000000168e+00 9.317470000000000141e+00 8.859999999999999820e-03 8.128069999999999240e+00 9.318059999999999121e+00 7.053910000000000124e+00 2.020500000000000185e+00 9.318569999999999354e+00 5.275339999999999918e+00 5.069239999999999746e+00 9.310510000000000730e+00 3.516129999999999978e+00 8.115840000000000387e+00 9.313230000000000786e+00 1.737499999999999878e-01 2.042110000000000092e+00 1.706756000000000029e+01 -1.574379999999999891e+00 5.076220000000000176e+00 1.706195999999999913e+01 -3.332240000000000091e+00 8.132580000000000808e+00 1.705667000000000044e+01 3.699819999999999887e+00 2.025250000000000217e+00 1.706133000000000166e+01 1.924860000000000015e+00 5.082049999999999734e+00 1.706362000000000023e+01 1.681400000000000117e-01 8.137259999999999494e+00 1.707409000000000177e+01 7.210390000000000299e+00 2.030240000000000045e+00 1.706152000000000157e+01 5.463000000000000078e+00 5.081479999999999997e+00 1.704775000000000063e+01 3.697439999999999838e+00 8.137769999999999726e+00 1.707937000000000083e+01 -6.629999999999999609e-03 2.026089999999999947e+00 1.293424000000000085e+01 -1.746609999999999996e+00 5.072680000000000078e+00 1.294350000000000023e+01 -3.518250000000000099e+00 8.126379999999999271e+00 1.292383000000000060e+01 3.512480000000000047e+00 2.036230000000000206e+00 1.293135000000000012e+01 1.766110000000000069e+00 5.078750000000000320e+00 1.293679999999999986e+01 4.190000000000000148e-03 8.121480000000000032e+00 1.293856000000000073e+01 7.035070000000000157e+00 2.039299999999999891e+00 1.293360999999999983e+01 5.272509999999999586e+00 5.072129999999999583e+00 1.293070999999999948e+01 3.512059999999999960e+00 8.133850000000000691e+00 1.292566000000000059e+01 1.680999999999999994e-01 2.033900000000000041e+00 2.068103999999999942e+01 -1.583879999999999955e+00 5.078389999999999738e+00 2.069254000000000104e+01 -3.330010000000000137e+00 8.117969999999999686e+00 2.069255000000000067e+01 3.686199999999999921e+00 2.035690000000000222e+00 2.069147999999999854e+01 1.933219999999999938e+00 5.070319999999999716e+00 2.069585999999999970e+01 1.726600000000000079e-01 8.131349999999999412e+00 2.069079999999999941e+01 7.208590000000000053e+00 2.039860000000000007e+00 2.068111000000000033e+01 5.450099999999999945e+00 5.085969999999999658e+00 2.069393000000000171e+01 3.713540000000000063e+00 8.131970000000000809e+00 2.067939000000000149e+01 5.274300000000000210e+00 9.138999999999999346e+00 1.113167999999999935e+01 -1.747540000000000093e+00 3.059740000000000126e+00 1.112213999999999992e+01 7.034670000000000201e+00 6.102000000000000313e+00 1.112559000000000076e+01 3.520700000000000163e+00 9.499999999999999764e-03 1.111410000000000053e+01 1.756899999999999906e+00 3.043480000000000185e+00 1.113402999999999921e+01 -8.309999999999999679e-03 6.106209999999999916e+00 1.114476999999999940e+01 1.756709999999999994e+00 9.121869999999999479e+00 1.113169000000000075e+01 5.271880000000000344e+00 3.045049999999999812e+00 1.113662000000000063e+01 3.510499999999999954e+00 6.100139999999999674e+00 1.111801999999999957e+01 -5.111139999999999795e+00 9.134159999999999613e+00 1.887941000000000003e+01 -1.577159999999999895e+00 3.042380000000000084e+00 1.887750000000000128e+01 -3.352640000000000065e+00 6.107230000000000381e+00 1.886373999999999995e+01 3.710459999999999869e+00 6.499999999999999702e-04 1.886962000000000117e+01 1.931319999999999926e+00 3.057620000000000005e+00 1.886105999999999838e+01 1.609800000000000120e-01 6.105339999999999989e+00 1.887744000000000000e+01 1.939319999999999933e+00 9.144500000000000739e+00 1.885999999999999943e+01 5.467469999999999608e+00 3.057549999999999990e+00 1.885500000000000043e+01 3.705220000000000180e+00 6.096160000000000245e+00 1.887782999999999944e+01
-8.499999999999999526e-04 2.026330000000000187e+00 9.318720000000000780e+00 -1.747339999999999893e+00 5.104269999999999641e+00 9.328440000000000509e+00 -3.527930000000000010e+00 8.132360000000000255e+00 9.320600000000000662e+00 3.524620000000000086e+00 2.052799999999999958e+00 9.298569999999999780e+00 1.761959999999999971e+00 5.067239999999999966e+00 9.317619999999999791e+00 1.058000000000000086e-02 8.127840000000000842e+00 9.318250000000000810e+00 7.056639999999999802e+00 2.018170000000000019e+00 9.318979999999999819e+00 5.274440000000000239e+00 5.066980000000000040e+00 9.309279999999999333e+00 3.515369999999999884e+00 8.113239999999999341e+00 9.312459999999999738e+00 1.733200000000000018e-01 2.043969999999999843e+00 1.706853999999999871e+01 -1.572529999999999983e+00 5.075339999999999741e+00 1.706188999999999822e+01 -3.329940000000000122e+00 8.133319999999999439e+00 1.705554000000000059e+01 3.700569999999999915e+00 2.023909999999999876e+00 1.706109000000000009e+01 1.922679999999999945e+00 5.082410000000000316e+00 1.706388000000000105e+01 1.666400000000000103e-01 8.138830000000000453e+00 1.707627000000000095e+01 7.209369999999999834e+00 2.029860000000000220e+00 1.706127000000000038e+01 5.464369999999999727e+00 5.081690000000000040e+00 1.704482000000000141e+01 3.697750000000000092e+00 8.139419999999999433e+00 1.708259999999999934e+01 -7.960000000000000062e-03 2.024859999999999882e+00 1.293363000000000085e+01 -1.744059999999999944e+00 5.071139999999999759e+00 1.294469999999999921e+01 -3.517889999999999961e+00 8.125859999999999417e+00 1.292115000000000080e+01 3.510979999999999990e+00 2.036960000000000104e+00 1.293018999999999963e+01 1.767300000000000093e+00 5.078380000000000116e+00 1.293668000000000085e+01 4.919999999999999894e-03 8.120050000000000878e+00 1.293881999999999977e+01 7.034130000000000216e+00 2.040649999999999853e+00 1.293279000000000067e+01 5.271010000000000417e+00 5.070509999999999629e+00 1.292936000000000085e+01 3.510510000000000019e+00 8.134729999999999350e+00 1.292341000000000051e+01 1.665999999999999981e-01 2.034190000000000165e+00 2.068064000000000036e+01 -1.583939999999999904e+00 5.077950000000000408e+00 2.069434000000000040e+01 -3.327249999999999819e+00 8.115809999999999746e+00 2.069435999999999964e+01 3.684309999999999974e+00 2.036410000000000053e+00 2.069299000000000177e+01 1.932660000000000045e+00 5.068340000000000067e+00 2.069829999999999970e+01 1.720700000000000007e-01 8.131830000000000780e+00 2.069230999999999909e+01 7.207130000000000258e+00 2.041329999999999867e+00 2.068066999999999922e+01 5.448990000000000222e+00 5.086990000000000123e+00 2.069601000000000113e+01 3.716899999999999871e+00 8.132519999999999527e+00 2.067870999999999881e+01 5.273109999999999964e+00 9.137809999999999988e+00 1.113238999999999912e+01 -1.745160000000000045e+00 3.061929999999999819e+00 1.112113000000000085e+01 7.033660000000000245e+00 6.102859999999999729e+00 1.112526000000000082e+01 3.520910000000000206e+00 1.137999999999999949e-02 1.111152000000000051e+01 1.756289999999999907e+00 3.042479999999999851e+00 1.113518999999999970e+01 -9.790000000000000091e-03 6.107969999999999899e+00 1.114800999999999931e+01 1.756089999999999929e+00 9.117459999999999454e+00 1.113245000000000040e+01 5.270319999999999894e+00 3.044369999999999798e+00 1.113818000000000019e+01 3.508729999999999905e+00 6.100699999999999790e+00 1.111622000000000021e+01 -5.112230000000000274e+00 9.132160000000000721e+00 1.888069000000000131e+01 -1.575970000000000093e+00 3.041290000000000049e+00 1.887844000000000122e+01 -3.354220000000000201e+00 6.109090000000000131e+00 1.886210000000000164e+01 3.713119999999999976e+00 8.099999999999999561e-04 1.886923000000000172e+01 1.930430000000000090e+00 3.059309999999999974e+00 1.885896999999999935e+01 1.581799999999999873e-01 6.106969999999999565e+00 1.887849999999999895e+01 1.939910000000000023e+00 9.144370000000000331e+00 1.885784999999999911e+01 5.469560000000000421e+00 3.059400000000000119e+00 1.885180000000000078e+01 3.706929999999999836e+00 6.095950000000000202e+00 1.887881000000000142e+01