-3.379989185700000007e+02
-3.379960247800000275e+02
-3.379872647400000005e+02
-3.379728900299999736e+02
-3.379533017900000118e+02
-3.379290349899999910e+02
-3.379007270199999766e+02
-3.378690922499999942e+02
-3.378348916900000063e+02
-3.377989040499999760e+02
-3.371209612100000186e+02
-3.371210399299999949e+02
-3.371168816900000138e+02
-3.371087383000000273e+02
-3.370969659300000103e+02
-3.370820140199999742e+02
-3.370644022700000164e+02
-3.370447045399999979e+02
-3.370235240200000248e+02
-3.370014672199999950e+02
-3.368457243799999787e+02
-3.368587590899999782e+02
-3.368725080300000059e+02
-3.368867734199999973e+02
-3.369014145099999951e+02
-3.369163431800000126e+02
-3.369315248999999994e+02
-3.369469716300000073e+02
-3.369627295099999742e+02
-3.369788735199999792e+02
-3.371404530099999874e+02
-3.371359233900000163e+02
-3.371287087900000188e+02
-3.371189633600000093e+02
-3.371069144800000004e+02
-3.370928570199999967e+02
-3.370771464900000183e+02
-3.370601815300000226e+02
-3.370423916799999802e+02
-3.370242305500000271e+02
-3.373595023699999729e+02
-3.373591540900000041e+02
-3.373554563899999721e+02
-3.373485781300000212e+02
-3.373387897399999815e+02
-3.373264534900000058e+02
-3.373120068000000060e+02
-3.372959461199999964e+02
-3.372788090700000225e+02
-3.372611556800000017e+02
-3.372898336800000152e+02
-3.372903865600000017e+02
-3.372869438899999750e+02
-3.372796443400000044e+02
-3.372687470800000256e+02
-3.372546252899999786e+02
-3.372377447399999824e+02
-3.372186452999999915e+02
-3.371979147600000033e+02
-3.371761645799999769e+02
-3.374392736300000024e+02
-3.374336467800000037e+02
-3.374250625399999990e+02
-3.374137007100000005e+02
-3.373997908299999722e+02
-3.373835978199999772e+02
-3.373654183500000272e+02
-3.373455660199999784e+02
-3.373243616099999826e+02
-3.373021257099999843e+02
-3.374592818099999931e+02
-3.374606124800000089e+02
-3.374585841200000118e+02
-3.374533214200000089e+02
-3.374450328799999852e+02
-3.374340068000000201e+02
-3.374205947599999718e+02
-3.374052026599999863e+02
-3.373882663300000218e+02
-3.373702445900000271e+02
-3.375975621700000033e+02
-3.375945004299999823e+02
-3.375869243199999801e+02
-3.375750734700000066e+02
-3.375593198500000085e+02
-3.375401465900000062e+02
-3.375181379900000138e+02
-3.374939469400000007e+02
-3.374682760800000096e+02
-3.374418496399999867e+02
-3.373715424700000085e+02
-3.373676893400000267e+02
-3.373613788900000259e+02
-3.373527624100000253e+02
-3.373420876700000122e+02
-3.373297020399999724e+02
-3.373160248600000273e+02
-3.373015271300000109e+02
-3.372867158600000153e+02
-3.372721063999999842e+02
-3.367169199599999843e+02
-3.367121765800000048e+02
-3.367088549399999806e+02
-3.367071664000000055e+02
-3.367073555599999963e+02
-3.367096734900000001e+02
-3.367143784599999776e+02
-3.367217062400000032e+02
-3.367318632199999797e+02
-3.367449904200000219e+02
-3.370652385800000275e+02
-3.370741474199999743e+02
-3.370812091399999986e+02
-3.370864240000000223e+02
-3.370898715800000218e+02
-3.370917156400000181e+02
-3.370921958100000211e+02
-3.370916200099999855e+02
-3.370903470000000084e+02
-3.370887771600000065e+02
-3.373604847999999947e+02
-3.373697850799999856e+02
-3.373754097400000092e+02
-3.373773633499999960e+02
-3.373757693700000004e+02
-3.373708769200000006e+02
-3.373630384800000002e+02
-3.373527007299999809e+02
-3.373403804700000137e+02
-3.373266506499999764e+02
-3.373408360399999992e+02
-3.373412485000000061e+02
-3.373359933400000159e+02
-3.373251889599999913e+02
-3.373091072000000281e+02
-3.372881529599999908e+02
-3.372628424800000175e+02
-3.372337844799999971e+02
-3.372016454000000181e+02
-3.371671285400000215e+02
-3.371971764400000211e+02
-3.371933879000000047e+02
-3.371869732900000258e+02
-3.371781410199999982e+02
-3.371672371399999975e+02
-3.371547258100000022e+02
-3.371411555299999918e+02
-3.371271374799999876e+02
-3.371133056300000135e+02
-3.371002931699999863e+02
-3.375712457399999948e+02
-3.375683217800000193e+02
-3.375601911300000211e+02
-3.375470570900000098e+02
-3.375292386799999917e+02
-3.375071559799999932e+02
-3.374813168200000177e+02
-3.374522814700000026e+02
-3.374206570100000135e+02
-3.373870643399999949e+02
-3.370137080599999990e+02
-3.370168216899999720e+02
-3.370193050999999969e+02
-3.370211448200000177e+02
-3.370223608100000092e+02
-3.370230087099999992e+02
-3.370231807600000025e+02
-3.370229953900000055e+02
-3.370226031799999760e+02
-3.370221723500000053e+02
-3.374162908999999786e+02
-3.374067533699999899e+02
-3.373939041599999769e+02
-3.373781048100000248e+02
-3.373597929300000260e+02
-3.373394619200000193e+02
-3.373176437000000192e+02
-3.372948921899999846e+02
-3.372717663399999992e+02
-3.372488132199999882e+02
-3.374359686799999736e+02
-3.374333368100000143e+02
-3.374273500699999886e+02
-3.374183008399999721e+02
-3.374065920499999720e+02
-3.373927285099999835e+02
-3.373772941199999877e+02
-3.373609215399999925e+02
-3.373442730799999936e+02
-3.373280154899999843e+02
-3.376214127900000221e+02
-3.376176425200000040e+02
-3.376095970200000238e+02
-3.375974526200000128e+02
-3.375814702499999953e+02
-3.375619899999999802e+02
-3.375394130500000074e+02
-3.375141865900000084e+02
-3.374867898599999876e+02
-3.374577155399999810e+02
-3.377943084799999838e+02
-3.377897630499999764e+02
-3.377811148200000275e+02
-3.377685212800000158e+02
-3.377522643099999868e+02
-3.377327249300000176e+02
-3.377103793599999904e+02
-3.376857671000000209e+02
-3.376594719999999938e+02
-3.376321059399999740e+02
-3.372504384900000218e+02
-3.372474457100000222e+02
-3.372421233900000175e+02
-3.372345919699999968e+02
-3.372250599399999942e+02
-3.372138184400000114e+02
-3.372012168599999882e+02
-3.371876535200000262e+02
-3.371735540700000229e+02
-3.371593480199999817e+02
-3.364588301800000067e+02
-3.364721638500000154e+02
-3.364887107800000194e+02
-3.365083129500000041e+02
-3.365308506800000146e+02
-3.365562365999999770e+02
-3.365843915899999956e+02
-3.366152333100000078e+02
-3.366486651700000152e+02
-3.366845359600000052e+02
-3.370762781500000074e+02
-3.370823287599999958e+02
-3.370868973799999821e+02
-3.370899656199999868e+02
-3.370915820700000154e+02
-3.370918672999999899e+02
-3.370910011199999872e+02
-3.370892261700000176e+02
-3.370868166199999791e+02
-3.370840932899999984e+02
-3.375789316799999824e+02
-3.375791862799999876e+02
-3.375742511299999933e+02
-3.375643009600000255e+02
-3.375496437300000139e+02
-3.375306968300000108e+02
-3.375079759600000102e+02
-3.374820649999999773e+02
-3.374535979099999849e+02
-3.374232338400000231e+02
-3.374723075399999743e+02
-3.374727982100000077e+02
-3.374690445100000034e+02
-3.374611420699999940e+02
-3.374493023399999743e+02
-3.374338342500000181e+02
-3.374151370600000064e+02
-3.373936774599999922e+02
-3.373699757699999964e+02
-3.373445821999999907e+02
-3.375983688300000267e+02
-3.376007770699999924e+02
-3.375974603299999899e+02
-3.375885488600000031e+02
-3.375743276900000183e+02
-3.375552193600000237e+02
-3.375317618099999777e+02
-3.375045889200000033e+02
-3.374743901200000096e+02
-3.374418895599999928e+02
-3.370595727900000043e+02
-3.370559504600000196e+02
-3.370509239599999773e+02
-3.370445680999999922e+02
-3.370370026200000098e+02
-3.370283855199999721e+02
-3.370189062000000035e+02
-3.370087862600000221e+02
-3.369982692400000133e+02
-3.369876083999999992e+02
-3.366519645500000024e+02
-3.366700380899999914e+02
-3.366893800000000283e+02
-3.367097443700000099e+02
-3.367309036099999844e+02
-3.367526553999999805e+02
-3.367748302900000112e+02
-3.367972937100000195e+02
-3.368199526899999796e+02
-3.368427523799999790e+02
-3.377008959400000094e+02
-3.377000830900000210e+02
-3.376942755800000100e+02
-3.376836664699999915e+02
-3.376685802900000226e+02
-3.376494501700000228e+02
-3.376267989199999988e+02
-3.376012126200000125e+02
-3.375733089999999947e+02
-3.375437201600000208e+02
-3.369391905699999938e+02
-3.369334411199999977e+02
-3.369276159500000176e+02
-3.369219006199999740e+02
-3.369165363199999774e+02
-3.369118240999999898e+02
-3.369080957400000216e+02
-3.369057041099999878e+02
-3.369049919199999863e+02
-3.369062782400000060e+02
-3.355312755699999911e+02
-3.355572854800000187e+02
-3.355885799299999803e+02
-3.356247356900000227e+02
-3.356652755100000149e+02
-3.357096730800000159e+02
-3.357573663699999997e+02
-3.358077688600000101e+02
-3.358602868599999738e+02
-3.359143479499999785e+02
-3.372043570199999749e+02
-3.372090841899999987e+02
-3.372117951999999832e+02
-3.372126257099999975e+02
-3.372118367200000080e+02
-3.372097989999999754e+02
-3.372069595799999888e+02
-3.372038147100000174e+02
-3.372008795500000247e+02
-3.371986436199999844e+02
-3.374572097000000213e+02
-3.374596426100000031e+02
-3.374580152699999758e+02
-3.374524458700000196e+02
-3.374432043599999815e+02
-3.374307065699999839e+02
-3.374154809699999760e+02
-3.373981450699999982e+02
-3.373793786200000113e+02
-3.373598909500000218e+02
-3.377217956200000231e+02
-3.377198774400000048e+02
-3.377134161600000084e+02
-3.377025933799999962e+02
-3.376877067699999770e+02
-3.376691557799999828e+02
-3.376474250699999970e+02
-3.376230639199999928e+02
-3.375966685199999802e+02
-3.375688628400000084e+02
-3.369638322999999787e+02
-3.369687387199999762e+02
-3.369720977299999731e+02
-3.369739133499999753e+02
-3.369742470599999820e+02
-3.369732209900000157e+02
-3.369710069100000283e+02
-3.369678278000000091e+02
-3.369639446599999815e+02
-3.369596491199999946e+02
-3.369113021499999832e+02
-3.369143456099999980e+02
-3.369163002299999903e+02
-3.369172642099999848e+02
-3.369174254499999961e+02
-3.369170376100000226e+02
-3.369164153799999895e+02
-3.369159049400000185e+02
-3.369158747000000176e+02
-3.369166853300000071e+02
-3.371071531100000129e+02
-3.371052475899999763e+02
-3.370998882000000094e+02
-3.370911353399999939e+02
-3.370791393999999741e+02
-3.370641311599999881e+02
-3.370464132199999767e+02
-3.370263513500000272e+02
-3.370043507699999736e+02
-3.369808489399999871e+02
-3.369483871699999895e+02
-3.369525353500000051e+02
-3.369539061699999820e+02
-3.369525860200000125e+02
-3.369487560599999938e+02
-3.369426887700000179e+02
-3.369347344500000077e+02
-3.369253104300000246e+02
-3.369148851900000068e+02
-3.369039624000000117e+02
-3.365823821899999757e+02
-3.365835467300000232e+02
-3.365858164499999816e+02
-3.365892233000000147e+02
-3.365938182099999949e+02
-3.365996613600000273e+02
-3.366068300900000168e+02
-3.366154101700000183e+02
-3.366254906600000254e+02
-3.366371662399999991e+02
-3.367820238799999970e+02
-3.367761639700000273e+02
-3.367690713700000060e+02
-3.367609058599999798e+02
-3.367518853700000250e+02
-3.367422670199999857e+02
-3.367323532199999931e+02
-3.367224787299999775e+02
-3.367129944600000044e+02
-3.367042619399999808e+02
-3.375128525299999751e+02
-3.375145808099999840e+02
-3.375124696699999731e+02
-3.375065852299999847e+02
-3.374970831699999962e+02
-3.374842085799999722e+02
-3.374682766099999753e+02
-3.374496586099999718e+02
-3.374287709100000257e+02
-3.374060481099999720e+02
-3.373039966200000208e+02
-3.373098904400000038e+02
-3.373135858499999813e+02
-3.373151684800000112e+02
-3.373148090400000001e+02
-3.373127632299999732e+02
-3.373093482500000277e+02
-3.373049305900000263e+02
-3.372998939500000120e+02
-3.372946240699999976e+02
-3.372902362599999719e+02
-3.372908301900000083e+02
-3.372878923100000179e+02
-3.372815423900000269e+02
-3.372720023399999718e+02
-3.372595946399999889e+02
-3.372447132600000259e+02
-3.372278110799999808e+02
-3.372093763099999819e+02
-3.371899121800000216e+02
-3.354389363700000217e+02
-3.354474197200000276e+02
-3.354604485099999920e+02
-3.354778668800000219e+02
-3.354994661599999972e+02
-3.355250032299999816e+02
-3.355541920300000243e+02
-3.355867104000000154e+02
-3.356222110900000075e+02
-3.356603130500000134e+02
-3.375144656499999769e+02
-3.375077613600000177e+02
-3.374955846799999790e+02
-3.374783165499999882e+02
-3.374564867899999854e+02
-3.374307589200000166e+02
-3.374018840100000034e+02
-3.373706791899999757e+02
-3.373379819699999871e+02
-3.373046398000000181e+02
-3.358615974400000255e+02
-3.358584475700000098e+02
-3.358631037499999934e+02
-3.358756882199999723e+02
-3.358962498700000197e+02
-3.359247381800000198e+02
-3.359609829799999829e+02
-3.360046708899999999e+02
-3.360553168600000049e+02
-3.361122573100000182e+02
-3.374425746300000242e+02
-3.374543264900000281e+02
-3.374644926899999859e+02
-3.374729380699999979e+02
-3.374795851000000084e+02
-3.374844121699999846e+02
-3.374874592400000211e+02
-3.374888203500000259e+02
-3.374886444200000142e+02
-3.374871280200000001e+02
-3.369451894000000038e+02
-3.369452721700000097e+02
-3.369433928899999842e+02
-3.369396014199999740e+02
-3.369340601999999762e+02
-3.369270335499999760e+02
-3.369188730000000191e+02
-3.369099949700000138e+02
-3.369008523699999955e+02
-3.368919133300000226e+02
-3.370837210299999924e+02
-3.370766408100000149e+02
-3.370667050499999959e+02
-3.370541048700000033e+02
-3.370391227900000217e+02
-3.370221153900000104e+02
-3.370034984999999779e+02
-3.369837430200000199e+02
-3.369633502300000032e+02
-3.369428491400000212e+02
