2.210000000000000050e-04 2.099999999999999884e-05 -4.390999999999999938e-03 2.200000000000000078e-04 2.199999999999999943e-05 -4.388000000000000407e-03 2.239999999999999966e-04 1.699999999999999987e-05 -4.388000000000000407e-03 2.239999999999999966e-04 2.000000000000000164e-05 -4.390999999999999938e-03 2.239999999999999966e-04 2.199999999999999943e-05 -4.389999999999999805e-03 2.220000000000000022e-04 1.900000000000000105e-05 -4.389999999999999805e-03 2.239999999999999966e-04 2.199999999999999943e-05 -4.392000000000000071e-03 2.239999999999999966e-04 2.300000000000000002e-05 -4.387000000000000274e-03 2.239999999999999966e-04 1.699999999999999987e-05 -4.388999999999999672e-03 8.224000000000000407e-03 -5.099999999999999960e-05 -2.279999999999999909e-03 8.227999999999999203e-03 -5.899999999999999754e-05 -2.281000000000000041e-03 8.234999999999999265e-03 -5.199999999999999680e-05 -2.279999999999999909e-03 8.231999999999999734e-03 -5.700000000000000314e-05 -2.282999999999999873e-03 8.234000000000000000e-03 -5.099999999999999960e-05 -2.279000000000000210e-03 8.226999999999999938e-03 -5.199999999999999680e-05 -2.279000000000000210e-03 8.236000000000000265e-03 -4.899999999999999842e-05 -2.278000000000000077e-03 8.229000000000000203e-03 -5.000000000000000240e-05 -2.276999999999999944e-03 8.231000000000000469e-03 -5.500000000000000196e-05 -2.279000000000000210e-03 -8.252000000000000654e-03 -4.199999999999999768e-05 2.272999999999999847e-03 -8.248999999999999388e-03 -4.000000000000000327e-05 2.272000000000000148e-03 -8.248999999999999388e-03 -4.399999999999999886e-05 2.271000000000000015e-03 -8.248999999999999388e-03 -4.000000000000000327e-05 2.275000000000000112e-03 -8.248000000000000123e-03 -3.899999999999999929e-05 2.272999999999999847e-03 -8.253999999999999185e-03 -4.199999999999999768e-05 2.272999999999999847e-03 -8.250999999999999654e-03 -3.800000000000000209e-05 2.273999999999999980e-03 -8.250000000000000389e-03 -4.100000000000000047e-05 2.269000000000000183e-03 -8.248000000000000123e-03 -4.600000000000000004e-05 2.272000000000000148e-03 -2.449999999999999921e-04 1.399999999999999979e-05 4.379000000000000080e-03 -2.439999999999999949e-04 5.000000000000000409e-06 4.380000000000000213e-03 -2.410000000000000033e-04 9.000000000000000228e-06 4.381000000000000345e-03 -2.449999999999999921e-04 6.000000000000000152e-06 4.380000000000000213e-03 -2.349999999999999930e-04 1.099999999999999971e-05 4.375999999999999682e-03 -2.439999999999999949e-04 1.099999999999999971e-05 4.379000000000000080e-03 -2.369999999999999874e-04 1.200000000000000030e-05 4.375999999999999682e-03 -2.449999999999999921e-04 1.299999999999999920e-05 4.375999999999999682e-03 -2.420000000000000005e-04 1.999999999999999909e-06 4.375999999999999682e-03 -2.513000000000000043e-03 2.099999999999999884e-05 1.242000000000000048e-03 -2.516000000000000007e-03 3.199999999999999855e-05 1.242999999999999964e-03 -2.516000000000000007e-03 2.500000000000000120e-05 1.242000000000000048e-03 -2.514000000000000175e-03 2.300000000000000002e-05 1.242999999999999964e-03 -2.514999999999999875e-03 2.799999999999999958e-05 1.247999999999999977e-03 -2.514000000000000175e-03 2.300000000000000002e-05 1.244000000000000097e-03 -2.518999999999999972e-03 2.000000000000000164e-05 1.242999999999999964e-03 -2.511000000000000211e-03 2.400000000000000061e-05 1.245999999999999929e-03 -2.516000000000000007e-03 2.599999999999999840e-05 1.242999999999999964e-03 2.488000000000000194e-03 2.500000000000000120e-05 -1.219999999999999947e-03 2.488999999999999893e-03 3.100000000000000135e-05 -1.219000000000000031e-03 2.484999999999999796e-03 2.599999999999999840e-05 -1.217999999999999899e-03 2.494999999999999822e-03 2.900000000000000017e-05 -1.222999999999999912e-03 2.488999999999999893e-03 3.100000000000000135e-05 -1.216999999999999983e-03 2.491999999999999858e-03 2.599999999999999840e-05 -1.219999999999999947e-03 2.495999999999999955e-03 2.799999999999999958e-05 -1.221000000000000080e-03 2.492999999999999990e-03 3.100000000000000135e-05 -1.216999999999999983e-03 2.488999999999999893e-03 2.599999999999999840e-05 -1.219000000000000031e-03
6.249000000000000214e-03 -5.000000000000000409e-06 -6.964999999999999837e-03 -1.577399999999999983e-02 -1.224800000000000021e-02 -2.161300000000000027e-02 4.403999999999999929e-03 9.399999999999999719e-04 -1.901299999999999865e-02 -8.758999999999999425e-03 -1.826699999999999852e-02 1.854599999999999999e-02 -3.128500000000000031e-02 1.748999999999999860e-02 1.116999999999999937e-02 -1.964199999999999974e-02 -6.679000000000000041e-03 -1.356899999999999946e-02 -1.980099999999999916e-02 1.078699999999999971e-02 2.431600000000000081e-02 8.358000000000000845e-03 1.162099999999999939e-02 1.425900000000000084e-02 4.656999999999999681e-03 1.844600000000000059e-02 -1.201400000000000037e-02 9.971999999999999961e-03 -3.618299999999999988e-02 -1.429099999999999988e-02 -1.803899999999999948e-02 5.138000000000000206e-03 7.392000000000000133e-03 -1.270300000000000075e-02 1.137299999999999943e-02 8.748000000000000567e-03 2.631000000000000092e-03 2.065399999999999875e-02 -6.446000000000000341e-03 2.388900000000000051e-02 2.815399999999999847e-02 4.558999999999999685e-03 2.888299999999999895e-02 -2.120999999999999969e-02 -4.526000000000000162e-02 3.954699999999999882e-02 7.728999999999999759e-03 -1.975500000000000173e-02 -5.344999999999999925e-03 1.533200000000000014e-02 4.684999999999999928e-03 1.135300000000000024e-02 -2.894000000000000045e-02 -5.137100000000000000e-02 -3.033999999999999805e-03 3.618999999999999821e-03 1.832800000000000054e-02 -4.864999999999999880e-02 1.997799999999999923e-02 4.019000000000000003e-03 -1.708000000000000100e-03 8.845999999999999697e-03 2.534300000000000094e-02 -3.723999999999999880e-03 -1.951699999999999963e-02 2.663799999999999848e-02 -1.730299999999999894e-02 3.239999999999999825e-03 9.856000000000000177e-03 -3.930399999999999866e-02 2.994000000000000133e-02 2.120400000000000063e-02 1.058800000000000019e-02 -2.053500000000000117e-02 -9.815000000000000807e-03 -7.590000000000000392e-03 2.673000000000000029e-02 9.020999999999999505e-03 3.449999999999999942e-03 -2.446999999999999870e-02 4.440399999999999903e-02 2.581599999999999867e-02 -1.188099999999999920e-02 5.530000000000000193e-03 -2.475199999999999970e-02 6.295000000000000248e-03 -2.498999999999999833e-02 -1.343300000000000050e-02 2.404099999999999987e-02 -2.437100000000000030e-02 2.415000000000000133e-02 1.167900000000000015e-02 -5.193300000000000000e-02 -2.265000000000000086e-03 2.886100000000000124e-02 -3.687000000000000000e-02 2.529400000000000051e-02 6.235000000000000091e-03 -7.073000000000000294e-03 6.977999999999999828e-03 -1.563499999999999959e-02 -9.121000000000000635e-03 2.243500000000000008e-02 -1.324000000000000003e-02 -2.758299999999999988e-02 -4.590299999999999936e-02 -9.683999999999999900e-03 2.234399999999999928e-02 -1.175999999999999962e-02 1.223199999999999982e-02 -3.330999999999999933e-02 -2.915500000000000036e-02 -2.130100000000000049e-02 1.158900000000000034e-02 1.314399999999999943e-02 -4.284899999999999820e-02 8.673000000000000154e-03 1.401600000000000068e-02 -4.696999999999999786e-03 2.191999999999999851e-02 3.001999999999999894e-03 -1.168999999999999900e-03 -3.658000000000000140e-02 4.438700000000000284e-02 -2.923699999999999910e-02 -5.568700000000000039e-02 7.753000000000000343e-03 6.348700000000000176e-02 -2.080100000000000005e-02 1.369899999999999937e-02 -1.595999999999999979e-03 -6.492799999999999960e-02 2.920000000000000026e-02 -2.515099999999999975e-02 1.944200000000000095e-02 8.190400000000000458e-02 5.039600000000000329e-02 -1.908299999999999927e-02 -4.045399999999999691e-02 2.820999999999999897e-02 -1.183999999999999983e-02 3.521699999999999831e-02 -5.206800000000000317e-02 3.282199999999999701e-02 -5.286600000000000327e-02 8.507000000000000672e-03 4.911200000000000288e-02 1.406899999999999991e-02 -3.607699999999999796e-02 5.257099999999999967e-02 5.169900000000000190e-02 -1.789900000000000171e-02 1.941899999999999876e-02 -1.618100000000000094e-02 4.832000000000000357e-03 8.725700000000000123e-02 -4.706899999999999973e-02 2.575000000000000032e-03 7.692000000000000226e-02 -3.056999999999999995e-02 -1.713200000000000139e-02 -1.555600000000000038e-02
1.221900000000000069e-02 -2.400000000000000061e-05 -9.660999999999999449e-03 -3.174799999999999844e-02 -2.448200000000000029e-02 -3.880000000000000115e-02 8.604999999999999802e-03 1.786000000000000044e-03 -3.352000000000000118e-02 -1.763599999999999890e-02 -3.656199999999999728e-02 4.120999999999999663e-02 -6.211099999999999954e-02 3.459999999999999881e-02 2.597800000000000109e-02 -3.954099999999999976e-02 -1.335700000000000082e-02 -2.286300000000000138e-02 -3.942099999999999771e-02 2.132099999999999967e-02 5.225400000000000184e-02 1.641400000000000151e-02 2.324299999999999977e-02 3.264299999999999841e-02 9.020999999999999505e-03 3.691200000000000037e-02 -1.990099999999999855e-02 1.173800000000000017e-02 -7.183399999999999508e-02 -2.672899999999999929e-02 -4.412300000000000250e-02 1.034999999999999983e-02 1.682900000000000021e-02 -3.325800000000000284e-02 2.253600000000000048e-02 1.952399999999999969e-02 -2.915000000000000056e-03 4.133599999999999774e-02 -1.055999999999999994e-02 3.932499999999999885e-02 5.611200000000000215e-02 1.110200000000000076e-02 4.982000000000000317e-02 -4.253300000000000136e-02 -8.856600000000000583e-02 7.065699999999999759e-02 1.529400000000000030e-02 -3.734799999999999925e-02 -1.878000000000000155e-02 3.057100000000000095e-02 1.154799999999999924e-02 1.463099999999999991e-02 -5.795800000000000257e-02 -1.007880000000000026e-01 2.134000000000000046e-03 7.293000000000000003e-03 3.429200000000000303e-02 -8.848799999999999721e-02 3.941399999999999765e-02 6.302999999999999575e-03 4.831000000000000225e-03 1.784900000000000028e-02 4.834900000000000309e-02 8.509999999999999769e-04 -3.902300000000000213e-02 5.108700000000000047e-02 -2.633500000000000077e-02 6.500999999999999834e-03 1.737500000000000155e-02 -6.991600000000000592e-02 6.007099999999999940e-02 4.071899999999999825e-02 2.927899999999999947e-02 -4.081800000000000012e-02 -2.142200000000000007e-02 -6.891999999999999689e-03 5.339800000000000102e-02 1.593599999999999878e-02 1.538999999999999917e-02 -4.906699999999999950e-02 8.692500000000000226e-02 5.181600000000000095e-02 -2.374899999999999928e-02 7.074000000000000427e-03 -4.870100000000000123e-02 1.234500000000000007e-02 -5.369299999999999767e-02 -2.651500000000000037e-02 4.764199999999999685e-02 -5.244399999999999756e-02 4.770100000000000035e-02 2.282899999999999860e-02 -1.066290000000000016e-01 -4.133999999999999654e-03 5.716299999999999853e-02 -7.725799999999999335e-02 5.034500000000000086e-02 1.225799999999999980e-02 -1.807299999999999879e-02 1.413099999999999946e-02 -3.090700000000000044e-02 -2.230899999999999897e-02 4.478000000000000036e-02 -2.616999999999999882e-02 -5.892800000000000121e-02 -9.147600000000000176e-02 -1.978200000000000097e-02 4.087500000000000161e-02 -2.090600000000000097e-02 2.448300000000000129e-02 -6.762999999999999567e-02 -5.536200000000000149e-02 -4.220200000000000340e-02 2.164800000000000058e-02 2.843400000000000094e-02 -8.525399999999999645e-02 1.555800000000000065e-02 3.017600000000000143e-02 -9.348999999999999672e-03 4.224300000000000277e-02 8.278000000000000635e-03 -2.347000000000000128e-03 -7.409599999999999520e-02 9.042799999999999450e-02 -5.824100000000000110e-02 -1.119740000000000041e-01 1.758799999999999947e-02 1.264170000000000016e-01 -4.313700000000000173e-02 2.940500000000000058e-02 -3.088000000000000033e-03 -1.302909999999999902e-01 6.070600000000000301e-02 -5.028400000000000231e-02 3.776700000000000196e-02 1.609119999999999995e-01 1.006739999999999996e-01 -3.690899999999999737e-02 -8.321099999999999330e-02 5.616499999999999965e-02 -2.244200000000000014e-02 6.730899999999999384e-02 -1.033680000000000015e-01 6.612600000000000422e-02 -1.080160000000000009e-01 1.720700000000000007e-02 9.916300000000000114e-02 2.566600000000000131e-02 -7.159999999999999698e-02 1.057609999999999939e-01 1.001900000000000013e-01 -3.553100000000000008e-02 3.950399999999999745e-02 -3.493199999999999777e-02 9.835999999999999258e-03 1.748460000000000014e-01 -9.553200000000000580e-02 5.389999999999999826e-03 1.533160000000000078e-01 -6.313100000000000656e-02 -3.380999999999999978e-02 -2.979899999999999910e-02
1.804100000000000148e-02 1.900000000000000105e-05 -1.252900000000000021e-02 -4.769099999999999728e-02 -3.686899999999999900e-02 -5.602399999999999741e-02 1.288599999999999988e-02 2.494999999999999822e-03 -4.782900000000000346e-02 -2.640199999999999839e-02 -5.496399999999999897e-02 6.350899999999999601e-02 -9.206599999999999506e-02 5.134899999999999881e-02 3.986800000000000066e-02 -5.943500000000000172e-02 -1.994900000000000145e-02 -3.228600000000000220e-02 -5.862599999999999756e-02 3.174199999999999938e-02 7.907799999999999552e-02 2.442899999999999933e-02 3.491699999999999665e-02 5.060100000000000015e-02 1.331500000000000045e-02 5.539800000000000280e-02 -2.795800000000000021e-02 1.354299999999999948e-02 -1.068569999999999937e-01 -3.947900000000000020e-02 -6.989800000000000180e-02 1.565300000000000025e-02 2.603899999999999965e-02 -5.338299999999999990e-02 3.327499999999999902e-02 3.011899999999999994e-02 -8.437999999999999320e-03 6.196600000000000025e-02 -1.446399999999999943e-02 5.452800000000000008e-02 8.356900000000000439e-02 1.732699999999999865e-02 7.098999999999999755e-02 -6.396100000000000396e-02 -1.317510000000000070e-01 1.013410000000000005e-01 2.259999999999999856e-02 -5.479599999999999749e-02 -3.204900000000000110e-02 4.555900000000000227e-02 1.843699999999999853e-02 1.807100000000000026e-02 -8.693499999999999839e-02 -1.502370000000000094e-01 7.301000000000000198e-03 1.096399999999999979e-02 5.000299999999999884e-02 -1.276220000000000132e-01 5.827299999999999841e-02 8.991000000000000728e-03 1.126399999999999971e-02 2.694600000000000120e-02 7.119200000000000528e-02 5.564999999999999634e-03 -5.843899999999999789e-02 7.542000000000000093e-02 -3.533300000000000329e-02 9.681000000000000369e-03 2.474700000000000163e-02 -9.991999999999999493e-02 9.024899999999999589e-02 6.056999999999999884e-02 4.771299999999999847e-02 -6.082400000000000306e-02 -3.246799999999999686e-02 -6.071000000000000008e-03 7.980800000000000394e-02 2.300999999999999920e-02 2.760299999999999906e-02 -7.374699999999999311e-02 1.295800000000000007e-01 7.763299999999999368e-02 -3.550600000000000284e-02 9.074999999999999734e-03 -7.189600000000000157e-02 1.813999999999999987e-02 -8.154799999999999549e-02 -3.953199999999999770e-02 7.076599999999999557e-02 -7.964899999999999758e-02 7.039800000000000224e-02 3.338300000000000295e-02 -1.592649999999999899e-01 -5.834999999999999909e-03 8.485700000000000187e-02 -1.165230000000000016e-01 7.475500000000000200e-02 1.804100000000000148e-02 -2.850300000000000056e-02 2.120299999999999963e-02 -4.575800000000000006e-02 -3.489400000000000140e-02 6.671299999999999453e-02 -3.875900000000000178e-02 -8.939500000000000224e-02 -1.367510000000000114e-01 -3.020099999999999868e-02 5.990299999999999792e-02 -2.978899999999999951e-02 3.669599999999999945e-02 -1.014020000000000060e-01 -8.102700000000000180e-02 -6.262900000000000411e-02 3.142699999999999660e-02 4.327199999999999797e-02 -1.268910000000000038e-01 2.189699999999999980e-02 4.582399999999999668e-02 -1.401799999999999921e-02 6.217700000000000310e-02 1.327799999999999987e-02 -3.446999999999999977e-03 -1.109689999999999982e-01 1.354490000000000138e-01 -8.688200000000000089e-02 -1.672309999999999908e-01 2.697400000000000145e-02 1.885419999999999874e-01 -6.552900000000000391e-02 4.460700000000000082e-02 -4.419000000000000185e-03 -1.943130000000000135e-01 9.182600000000000484e-02 -7.520100000000000395e-02 5.617599999999999677e-02 2.389110000000000122e-01 1.505080000000000029e-01 -5.467000000000000332e-02 -1.254180000000000017e-01 8.369999999999999662e-02 -3.304399999999999699e-02 9.866400000000000170e-02 -1.534520000000000051e-01 9.839399999999999535e-02 -1.625959999999999905e-01 2.595799999999999844e-02 1.484199999999999964e-01 3.716300000000000159e-02 -1.063199999999999978e-01 1.578839999999999966e-01 1.476409999999999945e-01 -5.286500000000000227e-02 5.875699999999999673e-02 -5.366100000000000037e-02 1.508999999999999925e-02 2.608199999999999963e-01 -1.426979999999999915e-01 8.241999999999999327e-03 2.274110000000000020e-01 -9.501300000000000023e-02 -4.984100000000000336e-02 -4.392000000000000071e-02
2.365300000000000041e-02 1.569999999999999944e-04 -1.563900000000000012e-02 -6.355700000000000238e-02 -4.948000000000000315e-02 -7.327599999999999392e-02 1.728499999999999828e-02 3.001000000000000195e-03 -6.183500000000000107e-02 -3.505899999999999989e-02 -7.349700000000000677e-02 8.528900000000000370e-02 -1.209540000000000060e-01 6.769799999999999429e-02 5.272199999999999803e-02 -7.921699999999999575e-02 -2.639400000000000079e-02 -4.180799999999999794e-02 -7.736999999999999433e-02 4.206800000000000123e-02 1.045210000000000028e-01 3.241299999999999737e-02 4.665400000000000102e-02 6.798200000000000076e-02 1.749799999999999967e-02 7.381400000000000461e-02 -3.613199999999999745e-02 1.539399999999999970e-02 -1.410289999999999877e-01 -5.243899999999999950e-02 -9.520000000000000684e-02 2.107200000000000045e-02 3.499900000000000233e-02 -7.294899999999999995e-02 4.344400000000000345e-02 4.056300000000000183e-02 -1.392099999999999935e-02 8.246399999999999564e-02 -1.801600000000000076e-02 6.945099999999999885e-02 1.102640000000000009e-01 2.326500000000000096e-02 9.227100000000000579e-02 -8.532599999999999907e-02 -1.743669999999999942e-01 1.313060000000000060e-01 2.958500000000000019e-02 -7.176699999999999746e-02 -4.513699999999999657e-02 6.017399999999999832e-02 2.549999999999999836e-02 2.163899999999999851e-02 -1.156449999999999978e-01 -1.992500000000000104e-01 1.249300000000000063e-02 1.461900000000000005e-02 6.531000000000000694e-02 -1.658300000000000052e-01 7.651700000000000168e-02 1.194699999999999929e-02 1.750300000000000120e-02 3.608499999999999902e-02 9.367999999999999938e-02 1.046700000000000061e-02 -7.760599999999999443e-02 9.942399999999999849e-02 -4.427199999999999885e-02 1.270800000000000055e-02 3.186100000000000043e-02 -1.291009999999999935e-01 1.203010000000000052e-01 8.048099999999999699e-02 6.575699999999999601e-02 -8.045199999999999574e-02 -4.292300000000000282e-02 -5.065000000000000058e-03 1.057339999999999947e-01 3.019300000000000109e-02 4.003899999999999820e-02 -9.836499999999999411e-02 1.720700000000000007e-01 1.030869999999999981e-01 -4.704300000000000148e-02 1.157000000000000042e-02 -9.417599999999999583e-02 2.364399999999999835e-02 -1.083589999999999970e-01 -5.250500000000000306e-02 9.329900000000000693e-02 -1.057980000000000032e-01 9.220299999999999330e-02 4.331200000000000327e-02 -2.094469999999999943e-01 -7.322000000000000383e-03 1.118180000000000007e-01 -1.544310000000000127e-01 9.836699999999999611e-02 2.354600000000000096e-02 -3.821200000000000291e-02 2.816400000000000153e-02 -6.011199999999999877e-02 -4.668400000000000327e-02 8.808399999999999563e-02 -5.091199999999999892e-02 -1.188120000000000009e-01 -1.814030000000000087e-01 -4.087899999999999867e-02 7.923800000000000288e-02 -3.831999999999999990e-02 4.877299999999999691e-02 -1.343040000000000067e-01 -1.059879999999999989e-01 -8.247300000000000464e-02 4.092099999999999904e-02 5.759199999999999736e-02 -1.674329999999999985e-01 2.766499999999999862e-02 6.083000000000000212e-02 -1.872700000000000059e-02 8.165100000000000136e-02 1.798299999999999899e-02 -4.462999999999999953e-03 -1.468329999999999913e-01 1.791270000000000084e-01 -1.149400000000000005e-01 -2.209859999999999880e-01 3.585900000000000198e-02 2.493910000000000016e-01 -8.772900000000000142e-02 5.922100000000000281e-02 -5.579999999999999891e-03 -2.564060000000000228e-01 1.223380000000000023e-01 -9.969400000000000484e-02 7.456999999999999740e-02 3.151930000000000009e-01 1.994440000000000102e-01 -7.225499999999999978e-02 -1.667269999999999863e-01 1.105600000000000055e-01 -4.362400000000000305e-02 1.290540000000000020e-01 -2.019100000000000061e-01 1.293650000000000078e-01 -2.161339999999999928e-01 3.466000000000000331e-02 1.963189999999999935e-01 4.846600000000000213e-02 -1.399249999999999938e-01 2.084580000000000044e-01 1.937349999999999905e-01 -6.980300000000000393e-02 7.693600000000000438e-02 -7.220300000000000329e-02 2.058899999999999966e-02 3.443220000000000169e-01 -1.882830000000000059e-01 1.101700000000000075e-02 2.985240000000000116e-01 -1.259500000000000064e-01 -6.508400000000000296e-02 -5.786800000000000277e-02
2.896699999999999969e-02 4.339999999999999782e-04 -1.905400000000000149e-02 -7.929899999999999449e-02 -6.240699999999999720e-02 -9.054299999999999848e-02 2.184600000000000083e-02 3.246000000000000187e-03 -7.542300000000000393e-02 -4.359500000000000181e-02 -9.219800000000000217e-02 1.064029999999999976e-01 -1.485910000000000009e-01 8.362300000000000288e-02 6.442299999999999416e-02 -9.879699999999999593e-02 -3.261399999999999716e-02 -5.140100000000000224e-02 -9.559499999999999942e-02 5.234199999999999964e-02 1.283430000000000126e-01 4.037000000000000310e-02 5.845899999999999708e-02 8.463400000000000090e-02 2.154000000000000012e-02 9.206799999999999706e-02 -4.437300000000000272e-02 1.729299999999999934e-02 -1.741399999999999892e-01 -6.547600000000000642e-02 -1.198739999999999944e-01 2.663400000000000142e-02 4.370500000000000079e-02 -9.183900000000000396e-02 5.290799999999999670e-02 5.090700000000000086e-02 -1.935500000000000068e-02 1.027480000000000060e-01 -2.106799999999999992e-02 8.405999999999999583e-02 1.359400000000000053e-01 2.895100000000000104e-02 1.135199999999999959e-01 -1.064630000000000021e-01 -2.159560000000000091e-01 1.602639999999999898e-01 3.619399999999999701e-02 -8.795200000000000240e-02 -5.802399999999999919e-02 7.430499999999999605e-02 3.286399999999999738e-02 2.531500000000000070e-02 -1.438740000000000019e-01 -2.473589999999999955e-01 1.771400000000000058e-02 1.824900000000000133e-02 8.006900000000000128e-02 -2.029080000000000050e-01 9.410599999999999521e-02 1.503099999999999922e-02 2.348199999999999940e-02 4.522600000000000231e-02 1.156189999999999996e-01 1.561099999999999988e-02 -9.639699999999999658e-02 1.228879999999999972e-01 -5.311199999999999949e-02 1.550900000000000022e-02 3.864000000000000073e-02 -1.572800000000000031e-01 1.500720000000000109e-01 1.001760000000000012e-01 8.329699999999999604e-02 -9.959400000000000197e-02 -5.277699999999999753e-02 -3.818999999999999912e-03 1.309490000000000098e-01 3.744499999999999912e-02 5.264900000000000135e-02 -1.227960000000000024e-01 2.141109999999999958e-01 1.280050000000000077e-01 -5.825600000000000223e-02 1.456900000000000035e-02 -1.154000000000000026e-01 2.882399999999999893e-02 -1.339730000000000087e-01 -6.544800000000000617e-02 1.151220000000000021e-01 -1.307270000000000099e-01 1.130840000000000040e-01 5.259599999999999692e-02 -2.568420000000000147e-01 -8.555000000000000104e-03 1.379360000000000031e-01 -1.907830000000000081e-01 1.210269999999999957e-01 2.875099999999999878e-02 -4.707200000000000273e-02 3.498500000000000221e-02 -7.388899999999999635e-02 -5.748799999999999744e-02 1.087540000000000034e-01 -6.254700000000000537e-02 -1.470289999999999930e-01 -2.251029999999999975e-01 -5.174100000000000227e-02 9.866600000000000370e-02 -4.640899999999999886e-02 6.061500000000000221e-02 -1.660059999999999869e-01 -1.300890000000000102e-01 -1.016279999999999961e-01 5.012799999999999895e-02 7.132499999999999951e-02 -2.065480000000000094e-01 3.286499999999999838e-02 7.506899999999999684e-02 -2.351299999999999918e-02 1.005989999999999940e-01 2.236300000000000093e-02 -5.390999999999999959e-03 -1.813279999999999892e-01 2.211569999999999925e-01 -1.421959999999999891e-01 -2.727649999999999797e-01 4.419300000000000311e-02 3.085379999999999789e-01 -1.094679999999999959e-01 7.318299999999999805e-02 -6.558999999999999726e-03 -3.159839999999999871e-01 1.520179999999999865e-01 -1.235720000000000013e-01 9.284399999999999598e-02 3.890839999999999854e-01 2.470430000000000126e-01 -8.957099999999999784e-02 -2.067730000000000123e-01 1.365039999999999865e-01 -5.415699999999999681e-02 1.582659999999999900e-01 -2.483370000000000022e-01 1.587739999999999985e-01 -2.681749999999999967e-01 4.320199999999999735e-02 2.422910000000000064e-01 5.946300000000000197e-02 -1.721239999999999992e-01 2.569969999999999755e-01 2.381580000000000086e-01 -8.626499999999999446e-02 9.381000000000000449e-02 -9.038100000000000300e-02 2.632100000000000065e-02 4.245079999999999965e-01 -2.320250000000000090e-01 1.360600000000000004e-02 3.660189999999999833e-01 -1.557040000000000091e-01 -7.940200000000000036e-02 -7.158399999999999486e-02
3.391700000000000270e-02 8.869999999999999846e-04 -2.282800000000000107e-02 -9.488800000000000012e-02 -7.573299999999999477e-02 -1.078250000000000042e-01 2.661200000000000024e-02 3.171000000000000207e-03 -8.848999999999999921e-02 -5.201700000000000074e-02 -1.110949999999999993e-01 1.267250000000000043e-01 -1.748210000000000042e-01 9.910900000000000265e-02 7.488000000000000211e-02 -1.180879999999999985e-01 -3.855100000000000193e-02 -6.104099999999999804e-02 -1.132689999999999947e-01 6.261300000000000199e-02 1.503349999999999964e-01 4.831799999999999984e-02 7.033899999999999875e-02 1.004270000000000024e-01 2.540900000000000103e-02 1.100700000000000012e-01 -5.261400000000000104e-02 1.924299999999999969e-02 -2.060089999999999977e-01 -7.846400000000000596e-02 -1.437779999999999891e-01 3.237500000000000100e-02 5.216599999999999709e-02 -1.099630000000000052e-01 6.153000000000000136e-02 6.121000000000000052e-02 -2.473099999999999951e-02 1.227469999999999950e-01 -2.347899999999999987e-02 9.832499999999999574e-02 1.603590000000000015e-01 3.443800000000000333e-02 1.346019999999999994e-01 -1.272169999999999968e-01 -2.560580000000000078e-01 1.879440000000000000e-01 4.238000000000000100e-02 -1.030370000000000036e-01 -7.068299999999999583e-02 8.784200000000000341e-02 4.066999999999999782e-02 2.905699999999999950e-02 -1.713909999999999878e-01 -2.940940000000000221e-01 2.298000000000000043e-02 2.184200000000000030e-02 9.414200000000000346e-02 -2.386800000000000033e-01 1.110239999999999977e-01 1.809799999999999950e-02 2.912700000000000011e-02 5.432399999999999729e-02 1.368360000000000132e-01 2.104500000000000121e-02 -1.146709999999999952e-01 1.456089999999999884e-01 -6.181699999999999695e-02 1.801200000000000023e-02 4.500599999999999740e-02 -1.842900000000000094e-01 1.794050000000000089e-01 1.193830000000000030e-01 1.002200000000000035e-01 -1.181600000000000011e-01 -6.202699999999999880e-02 -2.273999999999999980e-03 1.552469999999999961e-01 4.471599999999999880e-02 6.537900000000000655e-02 -1.469070000000000098e-01 2.554230000000000111e-01 1.522249999999999992e-01 -6.903700000000000114e-02 1.807100000000000026e-02 -1.354490000000000138e-01 3.366500000000000048e-02 -1.582679999999999920e-01 -7.837700000000000222e-02 1.361350000000000060e-01 -1.543120000000000047e-01 1.330379999999999896e-01 6.123800000000000077e-02 -3.011750000000000260e-01 -9.513000000000000622e-03 1.631189999999999862e-01 -2.254190000000000083e-01 1.426119999999999888e-01 3.362699999999999717e-02 -5.498000000000000109e-02 4.163900000000000240e-02 -8.703299999999999925e-02 -6.714599999999999735e-02 1.286100000000000021e-01 -7.359699999999999576e-02 -1.739279999999999993e-01 -2.675460000000000060e-01 -6.269500000000000073e-02 1.179690000000000044e-01 -5.398200000000000220e-02 7.213400000000000367e-02 -1.961940000000000073e-01 -1.531969999999999998e-01 -1.200080000000000036e-01 5.905400000000000232e-02 8.440999999999999892e-02 -2.439320000000000099e-01 3.751100000000000267e-02 8.842400000000000260e-02 -2.839600000000000110e-02 1.189569999999999933e-01 2.640500000000000139e-02 -6.229000000000000162e-03 -2.141059999999999908e-01 2.612559999999999882e-01 -1.684450000000000114e-01 -3.221169999999999867e-01 5.195799999999999724e-02 3.655990000000000073e-01 -1.304730000000000056e-01 8.644000000000000294e-02 -7.352000000000000028e-03 -3.725049999999999750e-01 1.806659999999999933e-01 -1.466409999999999936e-01 1.108910000000000035e-01 4.599380000000000135e-01 2.928819999999999757e-01 -1.065230000000000066e-01 -2.452120000000000133e-01 1.613100000000000089e-01 -6.461699999999999389e-02 1.861329999999999929e-01 -2.923760000000000248e-01 1.863940000000000041e-01 -3.182749999999999746e-01 5.146200000000000080e-02 2.858069999999999777e-01 7.005599999999999328e-02 -2.026550000000000018e-01 3.030510000000000148e-01 2.806210000000000093e-01 -1.021729999999999999e-01 1.091710000000000041e-01 -1.080239999999999950e-01 3.226500000000000201e-02 5.005929999999999547e-01 -2.736879999999999868e-01 1.589099999999999888e-02 4.293239999999999834e-01 -1.840640000000000054e-01 -9.268300000000000149e-02 -8.501999999999999835e-02