-2.001457306708434913e+00 -4.701567551581947138e-04 4.517844758027822483e-01 -4.701567551581947138e-04 -2.017207558006234525e+00 5.424885636440708706e-05 4.517844758027822483e-01 5.424885636440708706e-05 -2.046990180150294256e-02
-2.043825663529037051e+00 3.743171089144088637e-02 5.518012839866274222e-01 3.743171089144088637e-02 -1.985725138362756992e+00 5.822710583113027000e-02 5.518012839866274222e-01 5.822710583113027000e-02 -5.875151144265287201e-02
-2.070389520195475175e+00 7.424860141075183273e-02 6.500459628625686603e-01 7.424860141075183273e-02 -1.943609942871855623e+00 1.155862299604300397e-01 6.500459628625686603e-01 1.155862299604300397e-01 -7.857042696778293589e-02
-2.081438203941692322e+00 1.096911875688311305e-01 7.466993419518206387e-01 1.096911875688311305e-01 -1.891512957809903250e+00 1.722039530527495477e-01 7.466993419518206387e-01 1.722039530527495477e-01 -8.050530284478010778e-02
-2.077857779421641737e+00 1.435967227965855575e-01 8.418337530628692278e-01 1.435967227965855575e-01 -1.830555326208431310e+00 2.281164410123318331e-01 8.418337530628692278e-01 2.281164410123318331e-01 -6.591236048275461723e-02
-2.060986385092311135e+00 1.757301287164360348e-01 9.356842745732935063e-01 1.757301287164360348e-01 -1.762147518332914053e+00 2.833236938391767712e-01 9.356842745732935063e-01 2.833236938391767712e-01 -3.681689051931093942e-02
-2.032614233213726251e+00 2.059829076156537153e-01 1.028467901908550974e+00 2.059829076156537153e-01 -1.688115912347619707e+00 3.378437944854058572e-01 1.028467901908550974e+00 3.378437944854058572e-01 4.014415370966124483e-03
-1.994603867854398249e+00 2.342284788293883535e-01 1.120564377063192785e+00 2.342284788293883535e-01 -1.610214554608331294e+00 3.917490747595050449e-01 1.120564377063192785e+00 3.917490747595050449e-01 5.368828484864154871e-02
-1.949269906885875425e+00 2.604125935012754911e-01 1.212461939744498451e+00 2.604125935012754911e-01 -1.530486818704774210e+00 4.450937835178386814e-01 1.212461939744498451e+00 4.450937835178386814e-01 1.088955376754865007e-01
-1.898673806850004864e+00 2.844990857270722207e-01 1.304612663755504665e+00 2.844990857270722207e-01 -1.450777165753338593e+00 4.979864184731356280e-01 1.304612663755504665e+00 4.979864184731356280e-01 1.662365788526647681e-01
-3.412359229373660696e+01 5.865209108008132333e+00 4.889215110164303546e+00 5.865209108008132333e+00 -2.237160834196721737e+01 -1.555122539759861588e+01 4.889215110164303546e+00 -1.555122539759861588e+01 -6.512684443234079801e+00
-3.415835469406468405e+01 5.883699349898455111e+00 4.796987572993621995e+00 5.883699349898455111e+00 -2.226003315249597492e+01 -1.533843850100594963e+01 4.796987572993621995e+00 -1.533843850100594963e+01 -6.423457842499225912e+00
-3.416359235330983068e+01 5.897455195175731468e+00 4.699596934004774518e+00 5.897455195175731468e+00 -2.213514946230931812e+01 -1.509582863362244076e+01 4.699596934004774518e+00 -1.509582863362244076e+01 -6.294529411899062232e+00
-3.413930527147203264e+01 5.906439365126472829e+00 4.596838160273575724e+00 5.906439365126472829e+00 -2.199787059988772242e+01 -1.482294845088622637e+01 4.596838160273575724e+00 -1.482294845088622637e+01 -6.128415464594066719e+00
-3.408620174410759063e+01 5.910446826826492028e+00 4.488785809227002765e+00 5.910446826826492028e+00 -2.184985546798141698e+01 -1.451983523151079503e+01 4.488785809227002765e+00 -1.451983523151079503e+01 -5.926886739474944044e+00
-3.400543741133463982e+01 5.909403022848811915e+00 4.375383962794821002e+00 5.909403022848811915e+00 -2.169293072355134910e+01 -1.418658217227986817e+01 4.375383962794821002e+00 -1.418658217227986817e+01 -5.692273156134731060e+00
-3.389848478233597717e+01 5.903158838339479964e+00 4.256558063550055948e+00 5.903158838339479964e+00 -2.152929581069334120e+01 -1.382322655190693261e+01 4.256558063550055948e+00 -1.382322655190693261e+01 -5.427202863874368788e+00
-3.376711459600230825e+01 5.891770191368726373e+00 4.132158996638751525e+00 5.891770191368726373e+00 -2.136111289478973063e+01 -1.342976837039199012e+01 4.132158996638751525e+00 -1.342976837039199012e+01 -5.134434487492010923e+00
-3.361328398479179924e+01 5.875181163866320055e+00 4.002093565277188070e+00 5.875181163866320055e+00 -2.119065597736332052e+01 -1.300620762773504246e+01 4.002093565277188070e+00 -1.300620762773504246e+01 -4.816968963423486016e+00
-3.343891280244908160e+01 5.853391755832261012e+00 3.866100818470942890e+00 5.853391755832261012e+00 -2.102010586315318719e+01 -1.255233929101190071e+01 3.866100818470942890e+00 -1.255233929101190071e+01 -4.477508998396714901e+00
1.311423057228278344e+00 -9.295743275087204438e+00 -2.101829473488207256e+01 -9.295743275087204438e+00 -1.190617329514633616e+00 2.257958272069199879e+01 -2.101829473488207256e+01 2.257958272069199879e+01 3.399180358988309081e+01
1.120229557374335494e+00 -9.229859028515912556e+00 -2.093576000333851539e+01 -9.229859028515912556e+00 -1.451068234533386958e+00 2.243118168491009357e+01 -2.093576000333851539e+01 2.243118168491009357e+01 3.342093238259585064e+01
8.747425580310881355e-01 -9.145960679668592164e+00 -2.079428470807309637e+01 -9.145960679668592164e+00 -1.755208720271392187e+00 2.222324798841916405e+01 -2.079428470807309637e+01 2.222324798841916405e+01 3.270862176470906491e+01
5.775816398083964964e-01 -9.045788634840837616e+00 -2.059553748604962209e+01 -9.045788634840837616e+00 -2.100544802449398674e+00 2.195721701785474878e+01 -2.059553748604962209e+01 2.195721701785474878e+01 3.186195895773573028e+01
2.305230936677419018e-01 -8.930921819331739897e+00 -2.034156376322374271e+01 -8.930921819331739897e+00 -2.485659036764810814e+00 2.163500860284188221e+01 -2.034156376322374271e+01 2.163500860284188221e+01 3.088618312289556656e+01
-1.640826347751789815e-01 -8.803423601429889445e+00 -2.003474986987704298e+01 -8.803423601429889445e+00 -2.908685420591425874e+00 2.125899113132920348e+01 -2.003474986987704298e+01 2.125899113132920348e+01 2.978748436505433261e+01
-6.039568692364460922e-01 -8.665357349423874922e+00 -1.967776921361821962e+01 -8.665357349423874922e+00 -3.367686181971264681e+00 2.083190978025719176e+01 -1.967776921361821962e+01 2.083190978025719176e+01 2.857280636706145316e+01
-1.086372375108533239e+00 -8.519037624263503972e+00 -1.927347462538540057e+01 -8.519037624263503972e+00 -3.860633837281627567e+00 2.035694034255696749e+01 -1.927347462538540057e+01 2.035694034255696749e+01 2.724973873575235928e+01
-1.608368667455639001e+00 -8.366796929231531621e+00 -1.882509572510856088e+01 -8.366796929231531621e+00 -4.384980575244430412e+00 1.983752774615383174e+01 -1.882509572510856088e+01 1.983752774615383174e+01 2.582718086826738713e+01
-2.168312993979836456e+00 -8.211075421608374114e+00 -1.833629274870831694e+01 -8.211075421608374114e+00 -4.939990760208958775e+00 1.927788843928968987e+01 -1.833629274870831694e+01 1.927788843928968987e+01 2.431164583146530234e+01
-2.043229662393568091e+01 -1.399441586223981915e+01 7.715517315156966482e+00 -1.399441586223981915e+01 8.277715557346644104e+00 -5.864436720111105394e+00 7.715517315156966482e+00 -5.864436720111105394e+00 -3.363981840223874542e+01
-2.044346904127924347e+01 -1.394183762232741586e+01 7.769251322380774205e+00 -1.394183762232741586e+01 8.101855470884570920e+00 -5.800227425033152251e+00 7.769251322380774205e+00 -5.800227425033152251e+00 -3.390151714346360023e+01
-2.039500019625182858e+01 -1.388419602086029414e+01 7.812840260982265583e+00 -1.388419602086029414e+01 7.969235758279277881e+00 -5.723634908761594531e+00 7.812840260982265583e+00 -5.723634908761594531e+00 -3.403349476311812083e+01
-2.028536741128444376e+01 -1.382156443988996841e+01 7.846577659167509822e+00 -1.382156443988996841e+01 7.881764352870226809e+00 -5.634824280912345884e+00 7.846577659167509822e+00 -5.634824280912345884e+00 -3.403230230478095564e+01
-2.011537788894378664e+01 -1.375410798903235943e+01 7.870683663091060822e+00 -1.375410798903235943e+01 7.839147726451345832e+00 -5.534070724178597800e+00 7.870683663091060822e+00 -5.534070724178597800e+00 -3.389865524345442083e+01
-1.988631581513141100e+01 -1.368199177790338084e+01 7.885250000317316044e+00 -1.368199177790338084e+01 7.840890550174889562e+00 -5.421686112279301639e+00 7.885250000317316044e+00 -5.421686112279301639e+00 -3.363376438298854509e+01
-1.959964883087766552e+01 -1.360539926163182223e+01 7.890386743923551549e+00 -1.360539926163182223e+01 7.886167275961286194e+00 -5.298019009959164194e+00 7.890386743923551549e+00 -5.298019009959164194e+00 -3.323966607531294670e+01
-1.925713810541898852e+01 -1.352449554983360080e+01 7.886112239422648607e+00 -1.352449554983360080e+01 7.974023937140806595e+00 -5.163381290937136825e+00 7.886112239422648607e+00 -5.163381290937136825e+00 -3.271883696466635172e+01
-1.886074660863346608e+01 -1.343944575212463199e+01 7.872408141301725948e+00 -1.343944575212463199e+01 8.103158002299009510e+00 -5.018103174445048609e+00 7.872408141301725948e+00 -5.018103174445048609e+00 -3.207457924336704735e+01
-1.841240061937343953e+01 -1.335037828709507224e+01 7.849127685457748527e+00 -1.335037828709507224e+01 8.272468740663130760e+00 -4.862459843176091034e+00 7.849127685457748527e+00 -4.862459843176091034e+00 -3.130966308385983865e+01
-2.493184055539647304e+01 -3.617661311115456080e+00 2.893509153539519207e+00 -3.617661311115456080e+00 -4.624825216091839053e+00 2.000804497642169721e+01 2.893509153539519207e+00 2.000804497642169721e+01 -2.187760139251192726e+01
-2.489746957199314537e+01 -3.568733856480125421e+00 2.936108509781216291e+00 -3.568733856480125421e+00 -4.640931425705957736e+00 2.000271313841656706e+01 2.936108509781216291e+00 2.000271313841656706e+01 -2.187173452577963317e+01
-2.481204946831230629e+01 -3.516670026547657812e+00 2.973228433886150324e+00 -3.516670026547657812e+00 -4.630193952629878318e+00 1.995913597105282022e+01 2.973228433886150324e+00 1.995913597105282022e+01 -2.177448844230194780e+01
-2.467528505609069711e+01 -3.461617415449683044e+00 3.004573737591063054e+00 -3.461617415449683044e+00 -4.592852637327498933e+00 1.987681534413621165e+01 3.004573737591063054e+00 1.987681534413621165e+01 -2.158720993852998404e+01
-2.448782205965419223e+01 -3.403852762183007918e+00 3.029886131165600904e+00 -3.403852762183007918e+00 -4.530106682118312911e+00 1.975551141720283610e+01 3.029886131165600904e+00 1.975551141720283610e+01 -2.131167014404330473e+01
-2.425108107251974232e+01 -3.343597457945077345e+00 3.048888875612957960e+00 -3.343597457945077345e+00 -4.443598071716703402e+00 1.959494745125589787e+01 3.048888875612957960e+00 1.959494745125589787e+01 -2.095030436201380653e+01
-2.396685167353334833e+01 -3.281109792466244013e+00 3.061471275334411768e+00 -3.281109792466244013e+00 -4.335042587902869116e+00 1.939501275069666519e+01 3.061471275334411768e+00 1.939501275069666519e+01 -2.050621206920571282e+01
-2.363723707907074356e+01 -3.216721852542674398e+00 3.067541083997693985e+00 -3.216721852542674398e+00 -4.206248258789276662e+00 1.915559661992641693e+01 3.067541083997693985e+00 1.915559661992641693e+01 -1.998278793064651992e+01
-2.326470949083672934e+01 -3.150765724970536752e+00 3.067079852336350054e+00 -3.150765724970536752e+00 -4.059262952952291670e+00 1.887671750821161254e+01 3.067079852336350054e+00 1.887671750821161254e+01 -1.938405388642313909e+01
-2.285181490760191991e+01 -3.083555047279544770e+00 3.060032232551019860e+00 -3.083555047279544770e+00 -3.895802452172112851e+00 1.855837541555224490e+01 3.060032232551019860e+00 1.855837541555224490e+01 -1.871358909422760064e+01
2.466124874503857711e+01 8.698018688944893384e+00 1.982396277807778873e+01 8.698018688944893384e+00 -9.943726178995518694e+00 6.638056888513774290e+00 1.982396277807778873e+01 6.638056888513774290e+00 6.830048804740289192e+00
2.458991032628762241e+01 8.659580882308167915e+00 1.980554130244956212e+01 8.659580882308167915e+00 -9.930375985082065426e+00 6.556181672419043593e+00 1.980554130244956212e+01 6.556181672419043593e+00 6.729375798826478849e+00
2.449957700076047118e+01 8.608007918438474348e+00 1.974034934881580483e+01 8.608007918438474348e+00 -9.903209684447437766e+00 6.456798886588144271e+00 1.974034934881580483e+01 6.456798886588144271e+00 6.605801386440997902e+00
2.439107307573232930e+01 8.543783629866901208e+00 1.962903202721797769e+01 8.543783629866901208e+00 -9.862496072942244396e+00 6.340266925488552197e+00 1.962903202721797769e+01 6.340266925488552197e+00 6.461278817431585608e+00
2.426463150760704224e+01 8.467606885805027517e+00 1.947241364493127591e+01 8.467606885805027517e+00 -9.809435772032527368e+00 6.207159220268228417e+00 1.947241364493127591e+01 6.207159220268228417e+00 6.295951449585232673e+00
2.412034189500149139e+01 8.380230314634550481e+00 1.927149770646462557e+01 8.380230314634550481e+00 -9.745766994885542545e+00 6.058192559862122017e+00 1.927149770646462557e+01 6.058192559862122017e+00 6.109442968711089605e+00
2.395815047874554438e+01 8.282567822247534295e+00 1.902744899383732502e+01 8.282567822247534295e+00 -9.673407151902278400e+00 5.894173331822054607e+00 1.902744899383732502e+01 5.894173331822054607e+00 5.901108264767700895e+00
2.377794974049896837e+01 8.175497475089288812e+00 1.874139644962191653e+01 8.175497475089288812e+00 -9.594542449334340972e+00 5.715907923699843352e+00 1.874139644962191653e+01 5.715907923699843352e+00 5.670051351586379518e+00
2.357956048302802188e+01 8.060058617115496205e+00 1.841455861500782376e+01 8.060058617115496205e+00 -9.511412852603445600e+00 5.524256482217429820e+00 1.841455861500782376e+01 5.524256482217429820e+00 5.415250804934819584e+00
2.336258847241847647e+01 7.937236833111714240e+00 1.804806443256758897e+01 7.937236833111714240e+00 -9.426580882152043372e+00 5.319989555479885723e+00 1.804806443256758897e+01 5.319989555479885723e+00 5.135326806113241993e+00
-2.491923668862477470e+01 5.986910494881636957e+00 -3.973519989154917109e+00 5.986910494881636957e+00 1.412675755972699498e+01 -6.520413258938217105e+00 -3.973519989154917109e+00 -6.520413258938217105e+00 -6.806755006726445067e+00
-2.499836318686854497e+01 5.949897363106466663e+00 -3.856833905418823427e+00 5.949897363106466663e+00 1.414624774230545512e+01 -6.692874052071737800e+00 -3.856833905418823427e+00 -6.692874052071737800e+00 -6.885608278111638114e+00
-2.504087728606305774e+01 5.911080934064691483e+00 -3.733754313192038765e+00 5.911080934064691483e+00 1.415666679317917520e+01 -6.846755418822052519e+00 -3.733754313192038765e+00 -6.846755418822052519e+00 -6.938122480330052078e+00
-2.504634182323458802e+01 5.870679789243172131e+00 -3.603989770492080691e+00 5.870679789243172131e+00 1.415801471234815168e+01 -6.982895254888796366e+00 -3.603989770492080691e+00 -6.982895254888796366e+00 -6.963423287434241438e+00
-2.501506645548952434e+01 5.828876079880958905e+00 -3.467503847071139678e+00 5.828876079880958905e+00 1.415009113344943259e+01 -7.101748938369597752e+00 -3.467503847071139678e+00 -7.101748938369597752e+00 -6.961856786778402473e+00
-2.494772514241235939e+01 5.785888387464914295e+00 -3.324332973177025696e+00 5.785888387464914295e+00 1.413247710863319639e+01 -7.203917568353323198e+00 -3.324332973177025696e+00 -7.203917568353323198e+00 -6.934279089186075495e+00
-2.484528328557005494e+01 5.741935293481899016e+00 -3.174313212694592323e+00 5.741935293481899016e+00 1.410468082955400781e+01 -7.290075104424463603e+00 -3.174313212694592323e+00 -7.290075104424463603e+00 -6.881783102091566739e+00
-2.470888843776863908e+01 5.697180734047059936e+00 -3.017353490004314409e+00 5.697180734047059936e+00 1.406628334836205063e+01 -7.360986581787032357e+00 -3.017353490004314409e+00 -7.360986581787032357e+00 -6.805498163176992854e+00
-2.453972458206194318e+01 5.651861505771162086e+00 -2.853217008495426477e+00 5.651861505771162086e+00 1.401686571720750329e+01 -7.417417035645042844e+00 -2.853217008495426477e+00 -7.417417035645042844e+00 -6.706626470620091318e+00
-2.433912142249503674e+01 5.606196190141067959e+00 -2.681685186681065591e+00 5.606196190141067959e+00 1.395604541848836355e+01 -7.460131501202511117e+00 -2.681685186681065591e+00 -7.460131501202511117e+00 -6.586297362102976116e+00
8.649972185118851575e-01 -1.273838448451721561e+01 1.956157465049162525e+01 -1.273838448451721561e+01 3.882962356174147089e+00 3.983473232770422978e+00 1.956157465049162525e+01 3.983473232770422978e+00 -1.177967230553928246e+01
8.704194920200459817e-01 -1.271676768746467978e+01 1.946811272945595661e+01 -1.271676768746467978e+01 3.876076068818782527e+00 4.108438562888505174e+00 1.946811272945595661e+01 4.108438562888505174e+00 -1.178702852326535400e+01
8.971151519252249518e-01 -1.268262543860829439e+01 1.934249672651689522e+01 -1.268262543860829439e+01 3.894493724501502996e+00 4.230313197106935874e+00 1.934249672651689522e+01 4.230313197106935874e+00 -1.174477093839175268e+01
9.458613907635916584e-01 -1.263606618341821886e+01 1.918434708252886978e+01 -1.263606618341821886e+01 3.938775624818149801e+00 4.348880244485387792e+00 1.918434708252886978e+01 4.348880244485387792e+00 -1.165333333279913219e+01
1.016134055429357419e+00 -1.257727066434472718e+01 1.899353727777668510e+01 -1.257727066434472718e+01 4.008090354497473307e+00 4.463597477673046043e+00 1.899353727777668510e+01 4.463597477673046043e+00 -1.151372786420901662e+01
1.107065582161215866e+00 -1.250656421779830829e+01 1.876988656981007608e+01 -1.250656421779830829e+01 4.101263087612705860e+00 4.573868446584012482e+00 1.876988656981007608e+01 4.573868446584012482e+00 -1.132756314042882373e+01
1.217679961727698990e+00 -1.242443484839469825e+01 1.851325036466881713e+01 -1.242443484839469825e+01 4.216920181541778057e+00 4.679060552642333448e+00 1.851325036466881713e+01 4.679060552642333448e+00 -1.109664658596127751e+01
1.346820442447064892e+00 -1.233142478348471194e+01 1.822337562292253210e+01 -1.233142478348471194e+01 4.353543399702406447e+00 4.778486974536978238e+00 1.822337562292253210e+01 4.778486974536978238e+00 -1.082320133294472342e+01
1.493095307452219300e+00 -1.222814854739927171e+01 1.790006352787592547e+01 -1.222814854739927171e+01 4.509361466081924341e+00 4.871442816711883950e+00 1.790006352787592547e+01 4.871442816711883950e+00 -1.050968547870285796e+01
1.655293582326339941e+00 -1.211531103569444312e+01 1.754293452038341883e+01 -1.211531103569444312e+01 4.682657327402747427e+00 4.957241257856017214e+00 1.754293452038341883e+01 4.957241257856017214e+00 -1.015848482357927551e+01
-3.726738951048102599e+00 -1.451145207765003775e+00 -1.903804418745880511e+01 -1.451145207765003775e+00 1.362751077773841857e+01 -6.987298425529372636e+00 -1.903804418745880511e+01 -6.987298425529372636e+00 -2.307722353126322012e+00
-3.586789818972194066e+00 -1.395895505443669249e+00 -1.905726382031969379e+01 -1.395895505443669249e+00 1.375149448981389000e+01 -6.984619543119388929e+00 -1.905726382031969379e+01 -6.984619543119388929e+00 -1.991128793680706499e+00
-3.428466070634520690e+00 -1.338632146545703394e+00 -1.904144223293187110e+01 -1.338632146545703394e+00 1.388187875315079722e+01 -6.971854398749669279e+00 -1.904144223293187110e+01 -6.971854398749669279e+00 -1.657437132410298108e+00
-3.252954325089169263e+00 -1.279642796296338592e+00 -1.899014792745748892e+01 -1.279642796296338592e+00 1.401738705331217005e+01 -6.948517557352633212e+00 -1.899014792745748892e+01 -6.948517557352633212e+00 -1.309793707716083944e+00
-3.061710887538882098e+00 -1.219358952533424745e+00 -1.890291344790555073e+01 -1.219358952533424745e+00 1.415647318971237745e+01 -6.913997730324660473e+00 -1.890291344790555073e+01 -6.913997730324660473e+00 -9.510931509269721085e-01
-2.856407812105326460e+00 -1.158194134018234678e+00 -1.877923538013189031e+01 -1.158194134018234678e+00 1.429733925469371769e+01 -6.867593733679243861e+00 -1.877923538013189031e+01 -6.867593733679243861e+00 -5.845716958268348806e-01
-2.639004818135402886e+00 -1.096597817665194707e+00 -1.861846647737973370e+01 -1.096597817665194707e+00 1.443795361260297661e+01 -6.808514488046994551e+00 -1.861846647737973370e+01 -6.808514488046994551e+00 -2.140049484968572502e-01
-2.411533541282320670e+00 -1.035037459465309118e+00 -1.841994151381573275e+01 -1.035037459465309118e+00 1.457614079517433225e+01 -6.735879018675633212e+00 -1.841994151381573275e+01 -6.735879018675633212e+00 1.569034012880847762e-01
-2.176205407965059013e+00 -9.739984944861584948e-01 -1.818281547284076538e+01 -9.739984944861584948e-01 1.470968937598880366e+01 -6.648716455430001560e+00 -1.818281547284076538e+01 -6.648716455430001560e+00 5.239462496089568599e-01
-1.935088011989981149e+00 -9.139483787187466790e-01 -1.790608152616651338e+01 -9.139483787187466790e-01 1.483638792862741163e+01 -6.545984011868626773e+00 -1.790608152616651338e+01 -6.545984011868626773e+00 8.834738439206140104e-01
1.844226173848399952e+01 1.115922301335469324e+00 4.341652209292101716e+00 1.115922301335469324e+00 2.943856395777396884e+01 -1.959522346180811070e+01 4.341652209292101716e+00 -1.959522346180811070e+01 2.421144135798377306e+01
1.830049378967819251e+01 1.116080289391344849e+00 4.469218787297526418e+00 1.116080289391344849e+00 2.953597237133556064e+01 -1.968736560684051184e+01 4.469218787297526418e+00 -1.968736560684051184e+01 2.415670727373705162e+01
1.813732723641543743e+01 1.115816975964885271e+00 4.588763082910151780e+00 1.115816975964885271e+00 2.959088199786658535e+01 -1.973033835803870417e+01 4.588763082910151780e+00 -1.973033835803870417e+01 2.400749633207665568e+01
1.795235833144183957e+01 1.115220132198243785e+00 4.699846240419209842e+00 1.115220132198243785e+00 2.960329283736704653e+01 -1.972372041392035769e+01 4.699846240419209842e+00 -1.972372041392035769e+01 2.376217598975853207e+01
1.774751803988475984e+01 1.114395083462003999e+00 4.802924669763898535e+00 1.114395083462003999e+00 2.957113349088212573e+01 -1.966726601528743501e+01 4.802924669763898535e+00 -1.966726601528743501e+01 2.342232612734143871e+01
1.752266592791675492e+01 1.113341829756165691e+00 4.897331310263854043e+00 1.113341829756165691e+00 2.949429863304123245e+01 -1.956090494522621626e+01 4.897331310263854043e+00 -1.956090494522621626e+01 2.298703392494698150e+01
1.727810041742114677e+01 1.112165696451313357e+00 4.982995945005352922e+00 1.112165696451313357e+00 2.937136637134149808e+01 -1.940465475796513317e+01 4.982995945005352922e+00 -1.940465475796513317e+01 2.245635204526045214e+01
1.701373373725578375e+01 1.110866683547446332e+00 5.059620152105074986e+00 1.110866683547446332e+00 2.920158187396039295e+01 -1.919895430921495461e+01 5.059620152105074986e+00 -1.919895430921495461e+01 2.182950810223090699e+01
1.672935523667949198e+01 1.109655441785732499e+00 5.127221485791451094e+00 1.109655441785732499e+00 2.898359346530876834e+01 -1.894359294823450668e+01 5.127221485791451094e+00 -1.894359294823450668e+01 2.110755534956417989e+01
1.642442073461093344e+01 1.108514416937741220e+00 5.185483969952728422e+00 1.108514416937741220e+00 2.871705006081800704e+01 -1.863923773570415676e+01 5.185483969952728422e+00 -1.863923773570415676e+01 2.029009004000636551e+01
2.032096696406111391e+01 9.488842012059295783e+00 -7.213817663680162973e+00 9.488842012059295783e+00 4.342919484821890563e+01 2.268818522072498922e+01 -7.213817663680162973e+00 2.268818522072498922e+01 4.505206093306331638e+01
2.036152950782658522e+01 9.513113611173023898e+00 -7.237655531573131462e+00 9.513113611173023898e+00 4.351495218518756758e+01 2.255912415867564746e+01 -7.237655531573131462e+00 2.255912415867564746e+01 4.519569536413019506e+01
2.034850022195495711e+01 9.524338575166293452e+00 -7.245827027772249629e+00 9.524338575166293452e+00 4.351045872974049900e+01 2.236092634003716029e+01 -7.245827027772249629e+00 2.236092634003716029e+01 4.514854010580916821e+01
2.028184440794856158e+01 9.522360760799626789e+00 -7.238245406033366081e+00 9.522360760799626789e+00 4.341578387887300750e+01 2.209430308401157816e+01 -7.238245406033366081e+00 2.209430308401157816e+01 4.490894697946134784e+01
2.016083339735652302e+01 9.507266914317179740e+00 -7.214771872365834504e+00 9.507266914317179740e+00 4.323101437882925069e+01 2.176079847374480636e+01 -7.214771872365834504e+00 2.176079847374480636e+01 4.447712417607270652e+01
1.998477322022562674e+01 9.479317274451405595e+00 -7.175215585032523435e+00 9.479317274451405595e+00 4.295665335782531002e+01 2.136239032360350976e+01 -7.175215585032523435e+00 2.136239032360350976e+01 4.385390445958709194e+01
1.975397616303482096e+01 9.438910873925404843e+00 -7.119298956052144689e+00 9.438910873925404843e+00 4.259480007496966891e+01 2.090110849570084284e+01 -7.119298956052144689e+00 2.090110849570084284e+01 4.304279237826824556e+01
1.946583983845954435e+01 9.386637587199411215e+00 -7.046900540682888625e+00 9.386637587199411215e+00 4.214529838702284792e+01 2.038066572928651610e+01 -7.046900540682888625e+00 2.038066572928651610e+01 4.204340624864190801e+01
1.912045099274395099e+01 9.323312828968452592e+00 -6.957812147938786218e+00 9.323312828968452592e+00 4.161087212605121266e+01 1.980408079365701468e+01 -6.957812147938786218e+00 1.980408079365701468e+01 4.086027422465280523e+01
1.871770553039505103e+01 9.249908157167032741e+00 -6.851929682326856508e+00 9.249908157167032741e+00 4.099462680759541655e+01 1.917522257130152141e+01 -6.851929682326856508e+00 1.917522257130152141e+01 3.949879192268719663e+01
-2.354025927887372660e+01 -1.836313092280108750e+00 2.012263815182717153e+01 -1.836313092280108750e+00 -3.489944803756217517e+00 1.961712866855632953e+01 2.012263815182717153e+01 1.961712866855632953e+01 -2.355896272396008229e+01
-2.343316637732404928e+01 -1.850165446579765893e+00 2.011175547667830799e+01 -1.850165446579765893e+00 -3.336960214460138019e+00 1.943992551575099625e+01 2.011175547667830799e+01 1.943992551575099625e+01 -2.322622954258656236e+01
-2.327706454718024176e+01 -1.864718718939858189e+00 2.007145268820327288e+01 -1.864718718939858189e+00 -3.154444840565188368e+00 1.922433787653076465e+01 2.007145268820327288e+01 1.922433787653076465e+01 -2.280374195905307744e+01
-2.307309739159354933e+01 -1.879972909360386080e+00 2.000161911512936896e+01 -1.879972909360386080e+00 -2.943542285222606747e+00 1.897045797695622582e+01 2.000161911512936896e+01 1.897045797695622582e+01 -2.229476477590429440e+01
-2.282253763020001713e+01 -1.896038689114049713e+00 1.990205186012331140e+01 -1.896038689114049713e+00 -2.705211699462461095e+00 1.867880228296664313e+01 1.990205186012331140e+01 1.867880228296664313e+01 -2.170176965156384696e+01
-2.252737734590825625e+01 -1.912842277352381881e+00 1.977260336148816577e+01 -1.912842277352381881e+00 -2.441094707163140587e+00 1.835016393868303197e+01 1.977260336148816577e+01 1.835016393868303197e+01 -2.102848251887931497e+01
-2.218982996417226872e+01 -1.930475900135966816e+00 1.961308916710276762e+01 -1.930475900135966816e+00 -2.152906713051498944e+00 1.798544675949911920e+01 1.961308916710276762e+01 1.798544675949911920e+01 -2.027890598888002671e+01
-2.181279138329438894e+01 -1.948847331404220284e+00 1.942338016048229932e+01 -1.948847331404220284e+00 -1.842824252157311049e+00 1.758573901292978192e+01 1.942338016048229932e+01 1.758573901292978192e+01 -1.945794648798903026e+01
-2.139919439200116358e+01 -1.967938125945026151e+00 1.920342100599040691e+01 -1.967938125945026151e+00 -1.513134530783048826e+00 1.715220274733838579e+01 1.920342100599040691e+01 1.715220274733838579e+01 -1.857073178517477530e+01
-2.095243290932207714e+01 -1.987600722061449998e+00 1.895308258714227634e+01 -1.987600722061449998e+00 -1.166198536079653181e+00 1.668625824405791036e+01 1.895308258714227634e+01 1.668625824405791036e+01 -1.762290611534497842e+01
-2.863845210459365731e+01 7.838538336613078528e+00 -1.445470010535840899e+01 7.838538336613078528e+00 -7.890743424018607399e+00 4.998229845347822220e+00 -1.445470010535840899e+01 4.998229845347822220e+00 -2.213934450877923155e+01
-2.841467370155889327e+01 7.787406970863407274e+00 -1.435067869183654210e+01 7.787406970863407274e+00 -7.919770933611467889e+00 4.929937445546760166e+00 -1.435067869183654210e+01 4.929937445546760166e+00 -2.188737165605701662e+01
-2.814144856502761982e+01 7.732017743374989038e+00 -1.422640466639210466e+01 7.732017743374989038e+00 -7.920215232227684865e+00 4.853795770192526504e+00 -1.422640466639210466e+01 4.853795770192526504e+00 -2.154235526812196966e+01
-2.782001702863676940e+01 7.672537266128902189e+00 -1.408102645667734798e+01 7.672537266128902189e+00 -7.891761608347438006e+00 4.769508620207642657e+00 -1.408102645667734798e+01 4.769508620207642657e+00 -2.110797932100022223e+01
-2.745226736150527458e+01 7.609243225760285334e+00 -1.391378505255623210e+01 7.609243225760285334e+00 -7.834743285932888490e+00 4.676946408495712859e+00 -1.391378505255623210e+01 4.676946408495712859e+00 -2.058670596952331877e+01
-2.704099494242682766e+01 7.542413308904270863e+00 -1.372395846877740588e+01 7.542413308904270863e+00 -7.749993324889445923e+00 4.576109135056736221e+00 -1.372395846877740588e+01 4.576109135056736221e+00 -1.998188596575522880e+01
-2.658916176217621086e+01 7.472399251965367029e+00 -1.351073215787780413e+01 7.472399251965367029e+00 -7.638437347334227745e+00 4.466904237679002243e+00 -1.351073215787780413e+01 4.466904237679002243e+00 -1.929746245991487186e+01
-2.610037774701019231e+01 7.399571303790421162e+00 -1.327323603506733463e+01 7.399571303790421162e+00 -7.501297174461832640e+00 4.349387253689535271e+00 -1.327323603506733463e+01 4.349387253689535271e+00 -1.853798951281848773e+01
-2.557847497249364821e+01 7.324281200783937074e+00 -1.301052596578653464e+01 7.324281200783937074e+00 -7.340035289217308190e+00 4.223539670645995336e+00 -1.301052596578653464e+01 4.223539670645995336e+00 -1.770855804611022322e+01
-2.502734105151847288e+01 7.246880679350422128e+00 -1.272163930303360146e+01 7.246880679350422128e+00 -7.156077149661017600e+00 4.089380000990724184e+00 -1.272163930303360146e+01 4.089380000990724184e+00 -1.681444410585766747e+01