0.000000000000000000e+00 2.032270000000000021e+00 9.376329999999999387e+00 -1.760000000000000009e+00 5.080680000000000085e+00 9.376329999999999387e+00 -3.520000000000000018e+00 8.129089999999999705e+00 9.376329999999999387e+00 3.520000000000000018e+00 2.032270000000000021e+00 9.376329999999999387e+00 1.760000000000000009e+00 5.080680000000000085e+00 9.376329999999999387e+00 0.000000000000000000e+00 8.129089999999999705e+00 9.376329999999999387e+00 7.040000000000000036e+00 2.032270000000000021e+00 9.376329999999999387e+00 5.280000000000000249e+00 5.080680000000000085e+00 9.376329999999999387e+00 3.520000000000000018e+00 8.129089999999999705e+00 9.376329999999999387e+00 0.000000000000000000e+00 1.422590000000000021e+00 1.700261000000000067e+01 -1.760000000000000009e+00 4.471000000000000085e+00 1.700261000000000067e+01 -3.520000000000000018e+00 7.519409999999999705e+00 1.700261000000000067e+01 3.520000000000000018e+00 1.422590000000000021e+00 1.700261000000000067e+01 1.760000000000000009e+00 4.471000000000000085e+00 1.700261000000000067e+01 0.000000000000000000e+00 7.519409999999999705e+00 1.700261000000000067e+01 7.040000000000000036e+00 1.422590000000000021e+00 1.700261000000000067e+01 5.280000000000000249e+00 4.471000000000000085e+00 1.700261000000000067e+01 3.520000000000000018e+00 7.519409999999999705e+00 1.700261000000000067e+01 0.000000000000000000e+00 2.032270000000000021e+00 1.299740000000000073e+01 -1.760000000000000009e+00 5.080680000000000085e+00 1.299740000000000073e+01 -3.520000000000000018e+00 8.129089999999999705e+00 1.299740000000000073e+01 3.520000000000000018e+00 2.032270000000000021e+00 1.299740000000000073e+01 1.760000000000000009e+00 5.080680000000000085e+00 1.299740000000000073e+01 0.000000000000000000e+00 8.129089999999999705e+00 1.299740000000000073e+01 7.040000000000000036e+00 2.032270000000000021e+00 1.299740000000000073e+01 5.280000000000000249e+00 5.080680000000000085e+00 1.299740000000000073e+01 3.520000000000000018e+00 8.129089999999999705e+00 1.299740000000000073e+01 0.000000000000000000e+00 1.422590000000000021e+00 2.062371999999999872e+01 -1.760000000000000009e+00 4.471000000000000085e+00 2.062371999999999872e+01 -3.520000000000000018e+00 7.519409999999999705e+00 2.062371999999999872e+01 3.520000000000000018e+00 1.422590000000000021e+00 2.062371999999999872e+01 1.760000000000000009e+00 4.471000000000000085e+00 2.062371999999999872e+01 0.000000000000000000e+00 7.519409999999999705e+00 2.062371999999999872e+01 7.040000000000000036e+00 1.422590000000000021e+00 2.062371999999999872e+01 5.280000000000000249e+00 4.471000000000000085e+00 2.062371999999999872e+01 3.520000000000000018e+00 7.519409999999999705e+00 2.062371999999999872e+01 0.000000000000000000e+00 0.000000000000000000e+00 1.118737999999999921e+01 -1.760000000000000009e+00 3.048410000000000064e+00 1.118737999999999921e+01 -3.520000000000000018e+00 6.096820000000000128e+00 1.118737999999999921e+01 3.520000000000000018e+00 0.000000000000000000e+00 1.118737999999999921e+01 1.760000000000000009e+00 3.048410000000000064e+00 1.118737999999999921e+01 0.000000000000000000e+00 6.096820000000000128e+00 1.118737999999999921e+01 7.040000000000000036e+00 0.000000000000000000e+00 1.118737999999999921e+01 5.280000000000000249e+00 3.048410000000000064e+00 1.118737999999999921e+01 3.520000000000000018e+00 6.096820000000000128e+00 1.118737999999999921e+01 1.760000000000000009e+00 2.438730000000000064e+00 1.881260999999999939e+01 0.000000000000000000e+00 5.487140000000000128e+00 1.881260999999999939e+01 -1.760000000000000009e+00 8.535550000000000637e+00 1.881260999999999939e+01 5.280000000000000249e+00 2.438730000000000064e+00 1.881260999999999939e+01 3.520000000000000018e+00 5.487140000000000128e+00 1.881260999999999939e+01 1.760000000000000009e+00 8.535550000000000637e+00 1.881260999999999939e+01 8.800000000000000711e+00 2.438730000000000064e+00 1.881260999999999939e+01 7.040000000000000036e+00 5.487140000000000128e+00 1.881260999999999939e+01 5.280000000000000249e+00 8.535550000000000637e+00 1.881260999999999939e+01
-7.299999999999999632e-04 2.032109999999999861e+00 9.377010000000000289e+00 -1.761079999999999979e+00 5.080169999999999852e+00 9.378289999999999793e+00 -3.522940000000000182e+00 8.128849999999999909e+00 9.375080000000000524e+00 3.521679999999999922e+00 2.032840000000000202e+00 9.377580000000000027e+00 1.756650000000000045e+00 5.079170000000000407e+00 9.378579999999999472e+00 -7.399999999999999894e-04 8.128000000000000114e+00 9.375000000000000000e+00 7.038780000000000037e+00 2.032970000000000166e+00 9.374399999999999622e+00 5.279639999999999667e+00 5.078459999999999752e+00 9.378099999999999881e+00 3.519680000000000142e+00 8.129160000000000608e+00 9.378780000000000783e+00 1.399999999999999877e-04 1.422709999999999919e+00 1.700381000000000142e+01 -1.756010000000000071e+00 4.470509999999999984e+00 1.700301999999999936e+01 -3.519229999999999858e+00 7.517170000000000130e+00 1.700226999999999933e+01 3.517920000000000158e+00 1.422619999999999996e+00 1.700335000000000107e+01 1.759090000000000042e+00 4.471619999999999706e+00 1.700177000000000049e+01 8.000000000000000654e-05 7.519639999999999880e+00 1.700106999999999857e+01 7.040000000000000036e+00 1.424190000000000067e+00 1.699864000000000175e+01 5.279560000000000031e+00 4.468230000000000146e+00 1.700441999999999965e+01 3.522269999999999790e+00 7.519499999999999851e+00 1.700197999999999965e+01 -1.900000000000000105e-04 2.032439999999999802e+00 1.299620999999999960e+01 -1.761260000000000048e+00 5.081959999999999589e+00 1.299827999999999939e+01 -3.520179999999999865e+00 8.129369999999999763e+00 1.299693000000000076e+01 3.519979999999999887e+00 2.033110000000000195e+00 1.299600000000000044e+01 1.760070000000000023e+00 5.081080000000000041e+00 1.299747999999999948e+01 -6.199999999999999999e-04 8.128420000000000201e+00 1.299747999999999948e+01 7.042119999999999713e+00 2.032770000000000188e+00 1.299579999999999913e+01 5.280249999999999666e+00 5.082580000000000098e+00 1.299843000000000082e+01 3.520199999999999996e+00 8.130470000000000752e+00 1.299874999999999936e+01 5.900000000000000296e-04 1.423040000000000083e+00 2.062282000000000082e+01 -1.758469999999999978e+00 4.471940000000000026e+00 2.062322999999999951e+01 -3.522040000000000060e+00 7.519470000000000098e+00 2.062423000000000073e+01 3.519789999999999974e+00 1.422479999999999967e+00 2.062364000000000175e+01 1.759959999999999969e+00 4.472900000000000098e+00 2.062633999999999901e+01 -3.109999999999999917e-03 7.519879999999999676e+00 2.062518999999999991e+01 7.039939999999999642e+00 1.421899999999999942e+00 2.062393000000000143e+01 5.281780000000000364e+00 4.470080000000000275e+00 2.062443000000000026e+01 3.520770000000000177e+00 7.521239999999999704e+00 2.062490000000000023e+01 -5.278340000000000032e+00 9.143430000000000391e+00 1.118853000000000009e+01 -1.756650000000000045e+00 3.048820000000000086e+00 1.118599999999999994e+01 -3.519080000000000208e+00 6.095830000000000304e+00 1.118295999999999957e+01 -1.758159999999999945e+00 9.142120000000000246e+00 1.118722999999999956e+01 1.762639999999999985e+00 3.043660000000000032e+00 1.118477999999999994e+01 6.899999999999999667e-04 6.099940000000000140e+00 1.118651999999999980e+01 1.757949999999999902e+00 9.144709999999999894e+00 1.118781000000000070e+01 5.281600000000000072e+00 3.049960000000000004e+00 1.118821999999999939e+01 3.520630000000000148e+00 6.094730000000000203e+00 1.119114000000000075e+01 1.759249999999999980e+00 2.438769999999999882e+00 1.881062000000000012e+01 -6.400000000000000524e-04 5.486049999999999649e+00 1.881640000000000157e+01 -1.763570000000000082e+00 8.532579999999999387e+00 1.881229000000000084e+01 5.279300000000000104e+00 2.440949999999999953e+00 1.881463000000000108e+01 3.521770000000000067e+00 5.489239999999999675e+00 1.880996000000000024e+01 1.759670000000000067e+00 8.534580000000000055e+00 1.881138999999999939e+01 8.799189999999999401e+00 2.446740000000000137e+00 1.880960999999999927e+01 7.041050000000000253e+00 5.484549999999999592e+00 1.881259000000000015e+01 5.280269999999999797e+00 8.535280000000000200e+00 1.881034000000000006e+01
-1.459999999999999926e-03 2.031950000000000145e+00 9.377679999999999794e+00 -1.762140000000000040e+00 5.079659999999999620e+00 9.380229999999999180e+00 -3.525869999999999838e+00 8.128610000000000113e+00 9.373839999999999506e+00 3.523369999999999891e+00 2.033389999999999809e+00 9.378819999999999268e+00 1.753309999999999924e+00 5.077670000000000350e+00 9.380839999999999179e+00 -1.490000000000000005e-03 8.126920000000000144e+00 9.373659999999999215e+00 7.037560000000000038e+00 2.033659999999999801e+00 9.372490000000000876e+00 5.279270000000000351e+00 5.076240000000000308e+00 9.379870000000000374e+00 3.519350000000000200e+00 8.129229999999999734e+00 9.381240000000000023e+00 2.799999999999999755e-04 1.422819999999999974e+00 1.700499999999999901e+01 -1.752040000000000042e+00 4.470030000000000392e+00 1.700343000000000160e+01 -3.518470000000000208e+00 7.514929999999999666e+00 1.700193000000000154e+01 3.515839999999999854e+00 1.422639999999999905e+00 1.700407999999999831e+01 1.758180000000000076e+00 4.472229999999999706e+00 1.700093000000000032e+01 1.600000000000000131e-04 7.519849999999999923e+00 1.699953999999999965e+01 7.039990000000000414e+00 1.425780000000000047e+00 1.699468999999999852e+01 5.279130000000000322e+00 4.465449999999999697e+00 1.700621999999999900e+01 3.524529999999999941e+00 7.519569999999999865e+00 1.700134999999999863e+01 -3.800000000000000209e-04 2.032610000000000028e+00 1.299502000000000024e+01 -1.762520000000000087e+00 5.083239999999999981e+00 1.299915000000000020e+01 -3.520350000000000090e+00 8.129640000000000200e+00 1.299646000000000079e+01 3.519960000000000200e+00 2.033939999999999859e+00 1.299460999999999977e+01 1.760150000000000103e+00 5.081479999999999997e+00 1.299756000000000000e+01 -1.240000000000000000e-03 8.127760000000000318e+00 1.299756000000000000e+01 7.044240000000000279e+00 2.033269999999999911e+00 1.299419999999999931e+01 5.280499999999999972e+00 5.084489999999999732e+00 1.299945999999999913e+01 3.520410000000000039e+00 8.131859999999999644e+00 1.300009000000000015e+01 1.170000000000000033e-03 1.423499999999999988e+00 2.062190999999999974e+01 -1.756950000000000012e+00 4.472870000000000346e+00 2.062274999999999991e+01 -3.524080000000000101e+00 7.519529999999999603e+00 2.062472999999999956e+01 3.519569999999999865e+00 1.422360000000000069e+00 2.062356000000000122e+01 1.759919999999999929e+00 4.474789999999999601e+00 2.062894000000000005e+01 -6.199999999999999782e-03 7.520360000000000156e+00 2.062665000000000148e+01 7.039889999999999759e+00 1.421210000000000084e+00 2.062413000000000096e+01 5.283559999999999590e+00 4.469159999999999577e+00 2.062513999999999825e+01 3.521539999999999893e+00 7.523069999999999702e+00 2.062606999999999857e+01 -5.276699999999999946e+00 9.141659999999999897e+00 1.118966999999999956e+01 -1.753330000000000055e+00 3.049240000000000173e+00 1.118463000000000029e+01 -3.518170000000000019e+00 6.094850000000000101e+00 1.117857000000000056e+01 -1.756329999999999947e+00 9.139039999999999608e+00 1.118707000000000029e+01 1.765260000000000051e+00 3.038940000000000197e+00 1.118219999999999992e+01 1.360000000000000098e-03 6.103040000000000020e+00 1.118568999999999924e+01 1.755900000000000016e+00 9.144190000000000040e+00 1.118823000000000079e+01 5.283190000000000275e+00 3.051499999999999879e+00 1.118904999999999994e+01 3.521259999999999835e+00 6.092660000000000409e+00 1.119488999999999912e+01 1.758510000000000018e+00 2.438820000000000210e+00 1.880865999999999971e+01 -1.280000000000000105e-03 5.484980000000000189e+00 1.882017000000000095e+01 -1.767130000000000090e+00 8.529619999999999536e+00 1.881196999999999875e+01 5.278609999999999580e+00 2.443140000000000089e+00 1.881662999999999997e+01 3.523540000000000116e+00 5.491329999999999600e+00 1.880733000000000033e+01 1.759339999999999904e+00 8.533620000000000871e+00 1.881017999999999901e+01 8.798389999999999489e+00 2.454699999999999882e+00 1.880664000000000158e+01 7.042099999999999582e+00 5.481969999999999565e+00 1.881256000000000128e+01 5.280540000000000234e+00 8.535009999999999764e+00 1.880808999999999997e+01
-2.180000000000000080e-03 2.031769999999999854e+00 9.378339999999999677e+00 -1.763190000000000035e+00 5.079150000000000276e+00 9.382149999999999324e+00 -3.528789999999999871e+00 8.128370000000000317e+00 9.372590000000000643e+00 3.525069999999999926e+00 2.033929999999999794e+00 9.380060000000000286e+00 1.749989999999999934e+00 5.076159999999999783e+00 9.383089999999999264e+00 -2.220000000000000185e-03 8.125840000000000174e+00 9.372310000000000585e+00 7.036349999999999660e+00 2.034339999999999815e+00 9.370589999999999975e+00 5.278900000000000148e+00 5.074029999999999596e+00 9.381619999999999848e+00 3.519029999999999880e+00 8.129279999999999617e+00 9.383699999999999264e+00 4.099999999999999912e-04 1.422919999999999963e+00 1.700617000000000090e+01 -1.748070000000000013e+00 4.469560000000000421e+00 1.700381000000000142e+01 -3.517710000000000115e+00 7.512660000000000338e+00 1.700158000000000058e+01 3.513780000000000125e+00 1.422649999999999970e+00 1.700481999999999871e+01 1.757279999999999953e+00 4.472830000000000084e+00 1.700009999999999977e+01 2.300000000000000070e-04 7.520030000000000214e+00 1.699802999999999997e+01 7.039979999999999905e+00 1.427370000000000028e+00 1.699076000000000164e+01 5.278699999999999726e+00 4.462670000000000137e+00 1.700800999999999874e+01 3.526790000000000092e+00 7.519639999999999880e+00 1.700071000000000154e+01 -5.500000000000000331e-04 2.032789999999999875e+00 1.299384000000000050e+01 -1.763770000000000060e+00 5.084539999999999615e+00 1.300000000000000000e+01 -3.520509999999999806e+00 8.129920000000000258e+00 1.299597999999999942e+01 3.519950000000000134e+00 2.034769999999999968e+00 1.299322000000000088e+01 1.760210000000000052e+00 5.081879999999999953e+00 1.299762999999999913e+01 -1.860000000000000108e-03 8.127119999999999678e+00 1.299765000000000015e+01 7.046359999999999957e+00 2.033790000000000209e+00 1.299259999999999948e+01 5.280770000000000408e+00 5.086409999999999876e+00 1.300048999999999921e+01 3.520599999999999952e+00 8.133259999999999934e+00 1.300142999999999915e+01 1.740000000000000010e-03 1.423969999999999958e+00 2.062097999999999942e+01 -1.755439999999999889e+00 4.473810000000000286e+00 2.062229999999999919e+01 -3.526120000000000143e+00 7.519580000000000375e+00 2.062524000000000157e+01 3.519340000000000135e+00 1.422239999999999949e+00 2.062347000000000108e+01 1.759900000000000020e+00 4.476670000000000371e+00 2.063153000000000148e+01 -9.289999999999999647e-03 7.520830000000000126e+00 2.062810999999999950e+01 7.039850000000000385e+00 1.420530000000000070e+00 2.062432000000000087e+01 5.285319999999999574e+00 4.468259999999999899e+00 2.062584000000000017e+01 3.522299999999999986e+00 7.524899999999999700e+00 2.062723000000000084e+01 -5.275079999999999991e+00 9.139910000000000423e+00 1.119079999999999941e+01 -1.750029999999999974e+00 3.049659999999999815e+00 1.118327000000000027e+01 -3.517290000000000028e+00 6.093890000000000029e+00 1.117425000000000068e+01 -1.754529999999999923e+00 9.135979999999999990e+00 1.118689000000000000e+01 1.767840000000000078e+00 3.034269999999999801e+00 1.117966000000000015e+01 2.010000000000000068e-03 6.106119999999999770e+00 1.118487000000000009e+01 1.753859999999999975e+00 9.143689999999999429e+00 1.118863999999999947e+01 5.284779999999999589e+00 3.053040000000000198e+00 1.118989999999999974e+01 3.521879999999999900e+00 6.090609999999999857e+00 1.119857999999999976e+01 1.757779999999999898e+00 2.438899999999999846e+00 1.880674000000000134e+01 -1.889999999999999970e-03 5.483939999999999593e+00 1.882388999999999868e+01 -1.770650000000000057e+00 8.526690000000000325e+00 1.881165000000000020e+01 5.277919999999999945e+00 2.445279999999999898e+00 1.881859999999999999e+01 3.525279999999999969e+00 5.493400000000000283e+00 1.880477000000000132e+01 1.759020000000000028e+00 8.532669999999999533e+00 1.880896999999999863e+01 8.797589999999999577e+00 2.462559999999999860e+00 1.880370999999999881e+01 7.043149999999999800e+00 5.479400000000000048e+00 1.881253999999999849e+01 5.280800000000000161e+00 8.534729999999999706e+00 1.880587999999999838e+01
-2.880000000000000181e-03 2.031559999999999810e+00 9.378980000000000317e+00 -1.764219999999999899e+00 5.078649999999999665e+00 9.384029999999999205e+00 -3.531680000000000152e+00 8.128140000000000143e+00 9.371340000000000003e+00 3.526780000000000026e+00 2.034450000000000092e+00 9.381280000000000285e+00 1.746709999999999985e+00 5.074670000000000236e+00 9.385329999999999728e+00 -2.949999999999999931e-03 8.124769999999999825e+00 9.370960000000000178e+00 7.035160000000000302e+00 2.035019999999999829e+00 9.368710000000000093e+00 5.278509999999999813e+00 5.071839999999999904e+00 9.383350000000000080e+00 3.518699999999999939e+00 8.129319999999999879e+00 9.386160000000000281e+00 5.199999999999999544e-04 1.423030000000000017e+00 1.700732999999999961e+01 -1.744119999999999893e+00 4.469109999999999694e+00 1.700415999999999883e+01 -3.516970000000000152e+00 7.510379999999999612e+00 1.700122000000000000e+01 3.511740000000000084e+00 1.422639999999999905e+00 1.700555999999999912e+01 1.756380000000000052e+00 4.473429999999999573e+00 1.699928999999999846e+01 2.900000000000000017e-04 7.520199999999999996e+00 1.699654999999999916e+01 7.039950000000000152e+00 1.428940000000000099e+00 1.698688999999999893e+01 5.278279999999999639e+00 4.459900000000000198e+00 1.700976999999999961e+01 3.529020000000000046e+00 7.519709999999999894e+00 1.700005000000000166e+01 -7.100000000000000191e-04 2.032979999999999787e+00 1.299266000000000076e+01 -1.765009999999999968e+00 5.085840000000000138e+00 1.300081999999999915e+01 -3.520659999999999901e+00 8.130179999999999296e+00 1.299549999999999983e+01 3.519960000000000200e+00 2.035600000000000076e+00 1.299183999999999983e+01 1.760259999999999936e+00 5.082250000000000156e+00 1.299769000000000041e+01 -2.469999999999999973e-03 8.126500000000000057e+00 1.299775999999999954e+01 7.048470000000000013e+00 2.034320000000000128e+00 1.299100999999999928e+01 5.281060000000000088e+00 5.088320000000000398e+00 1.300151999999999930e+01 3.520799999999999930e+00 8.134650000000000603e+00 1.300276999999999994e+01 2.279999999999999909e-03 1.424439999999999928e+00 2.062002999999999986e+01 -1.753949999999999898e+00 4.474739999999999718e+00 2.062188000000000088e+01 -3.528169999999999806e+00 7.519619999999999749e+00 2.062573000000000079e+01 3.519099999999999895e+00 1.422120000000000051e+00 2.062336000000000169e+01 1.759900000000000020e+00 4.478530000000000122e+00 2.063408000000000087e+01 -1.237000000000000079e-02 7.521309999999999718e+00 2.062953999999999866e+01 7.039819999999999744e+00 1.419859999999999900e+00 2.062446999999999875e+01 5.287069999999999936e+00 4.467380000000000351e+00 2.062655000000000172e+01 3.523060000000000080e+00 7.526709999999999567e+00 2.062836000000000070e+01 -5.273489999999999789e+00 9.138199999999999434e+00 1.119191000000000003e+01 -1.746799999999999908e+00 3.050079999999999902e+00 1.118194000000000088e+01 -3.516449999999999854e+00 6.092950000000000088e+00 1.117004000000000019e+01 -1.752750000000000030e+00 9.132960000000000633e+00 1.118670000000000009e+01 1.770359999999999934e+00 3.029679999999999929e+00 1.117717999999999989e+01 2.629999999999999959e-03 6.109149999999999636e+00 1.118410000000000082e+01 1.751829999999999998e+00 9.143200000000000216e+00 1.118903000000000070e+01 5.286369999999999791e+00 3.054559999999999942e+00 1.119073999999999991e+01 3.522489999999999899e+00 6.088599999999999568e+00 1.120220999999999911e+01 1.757069999999999910e+00 2.439000000000000057e+00 1.880489000000000033e+01 -2.480000000000000000e-03 5.482929999999999637e+00 1.882753999999999905e+01 -1.774119999999999919e+00 8.523799999999999599e+00 1.881134000000000128e+01 5.277239999999999931e+00 2.447340000000000071e+00 1.882054000000000116e+01 3.527000000000000135e+00 5.495440000000000325e+00 1.880228999999999928e+01 1.758699999999999930e+00 8.531739999999999213e+00 1.880777000000000143e+01 8.796799999999999287e+00 2.470270000000000188e+00 1.880085000000000051e+01 7.044209999999999638e+00 5.476860000000000284e+00 1.881251999999999924e+01 5.281049999999999578e+00 8.534449999999999648e+00 1.880371999999999844e+01
-3.559999999999999797e-03 2.031330000000000080e+00 9.379590000000000316e+00 -1.765209999999999946e+00 5.078149999999999942e+00 9.385870000000000601e+00 -3.534539999999999793e+00 8.127900000000000347e+00 9.370079999999999742e+00 3.528509999999999813e+00 2.034930000000000128e+00 9.382469999999999644e+00 1.743479999999999919e+00 5.073170000000000179e+00 9.387560000000000571e+00 -3.670000000000000085e-03 8.123720000000000496e+00 9.369579999999999131e+00 7.033990000000000187e+00 2.035690000000000222e+00 9.366860000000000852e+00 5.278100000000000236e+00 5.069670000000000343e+00 9.385049999999999670e+00 3.518369999999999997e+00 8.129329999999999501e+00 9.388629999999999143e+00 6.300000000000000261e-04 1.423130000000000006e+00 1.700845999999999947e+01 -1.740189999999999904e+00 4.468709999999999738e+00 1.700446000000000168e+01 -3.516239999999999810e+00 7.508070000000000022e+00 1.700084000000000017e+01 3.509720000000000173e+00 1.422600000000000087e+00 1.700630999999999915e+01 1.755479999999999929e+00 4.474029999999999951e+00 1.699849000000000032e+01 3.400000000000000244e-04 7.520330000000000403e+00 1.699511000000000038e+01 7.039920000000000400e+00 1.430490000000000039e+00 1.698307000000000144e+01 5.277870000000000061e+00 4.457130000000000258e+00 1.701148999999999845e+01 3.531239999999999934e+00 7.519779999999999909e+00 1.699937999999999860e+01 -8.400000000000000348e-04 2.033180000000000209e+00 1.299149000000000065e+01 -1.766219999999999901e+00 5.087150000000000283e+00 1.300160999999999945e+01 -3.520789999999999864e+00 8.130420000000000869e+00 1.299502000000000024e+01 3.519989999999999952e+00 2.036399999999999988e+00 1.299047000000000018e+01 1.760299999999999976e+00 5.082609999999999850e+00 1.299773000000000067e+01 -3.069999999999999812e-03 8.125890000000000057e+00 1.299789999999999957e+01 7.050589999999999691e+00 2.034860000000000113e+00 1.298940999999999946e+01 5.281380000000000408e+00 5.090239999999999654e+00 1.300254999999999939e+01 3.520980000000000221e+00 8.136049999999999116e+00 1.300408999999999970e+01 2.809999999999999998e-03 1.424940000000000095e+00 2.061905000000000143e+01 -1.752480000000000038e+00 4.475679999999999659e+00 2.062152000000000029e+01 -3.530209999999999848e+00 7.519630000000000258e+00 2.062621000000000038e+01 3.518839999999999968e+00 1.421990000000000087e+00 2.062323999999999913e+01 1.759940000000000060e+00 4.480380000000000251e+00 2.063659000000000177e+01 -1.542999999999999927e-02 7.521799999999999820e+00 2.063096000000000174e+01 7.039799999999999613e+00 1.419210000000000083e+00 2.062458000000000169e+01 5.288789999999999658e+00 4.466520000000000046e+00 2.062725999999999971e+01 3.523820000000000174e+00 7.528520000000000323e+00 2.062944999999999851e+01 -5.271950000000000358e+00 9.136540000000000106e+00 1.119299999999999962e+01 -1.743630000000000013e+00 3.050499999999999989e+00 1.118064999999999998e+01 -3.515660000000000007e+00 6.092060000000000031e+00 1.116596000000000011e+01 -1.751009999999999955e+00 9.130000000000000782e+00 1.118648999999999916e+01 1.772799999999999931e+00 3.025189999999999824e+00 1.117478999999999978e+01 3.210000000000000180e-03 6.112119999999999997e+00 1.118337999999999965e+01 1.749819999999999931e+00 9.142720000000000624e+00 1.118939999999999912e+01 5.287939999999999863e+00 3.056070000000000064e+00 1.119159999999999933e+01 3.523089999999999833e+00 6.086640000000000050e+00 1.120575999999999972e+01 1.756380000000000052e+00 2.439140000000000086e+00 1.880312999999999946e+01 -3.040000000000000167e-03 5.481980000000000075e+00 1.883109999999999928e+01 -1.777530000000000054e+00 8.520960000000000534e+00 1.881103999999999843e+01 5.276570000000000427e+00 2.449310000000000098e+00 1.882243000000000066e+01 3.528680000000000039e+00 5.497429999999999595e+00 1.879992000000000019e+01 1.758389999999999898e+00 8.530849999999999156e+00 1.880658999999999992e+01 8.796020000000000394e+00 2.477780000000000094e+00 1.879807999999999879e+01 7.045279999999999987e+00 5.474359999999999893e+00 1.881250000000000000e+01 5.281299999999999883e+00 8.534159999999999968e+00 1.880161999999999978e+01
-4.219999999999999793e-03 2.031060000000000088e+00 9.380179999999999296e+00 -1.766150000000000109e+00 5.077659999999999840e+00 9.387639999999999318e+00 -3.537360000000000060e+00 8.127670000000000172e+00 9.368809999999999860e+00 3.530269999999999797e+00 2.035369999999999902e+00 9.383639999999999759e+00 1.740299999999999958e+00 5.071690000000000254e+00 9.389780000000000015e+00 -4.380000000000000213e-03 8.122690000000000410e+00 9.368190000000000239e+00 7.032840000000000202e+00 2.036350000000000104e+00 9.365050000000000097e+00 5.277669999999999639e+00 5.067529999999999646e+00 9.386710000000000775e+00 3.518029999999999990e+00 8.129310000000000258e+00 9.391120000000000800e+00 7.100000000000000191e-04 1.423240000000000061e+00 1.700955000000000084e+01 -1.736280000000000046e+00 4.468359999999999665e+00 1.700470999999999933e+01 -3.515519999999999978e+00 7.505729999999999791e+00 1.700044000000000111e+01 3.507719999999999949e+00 1.422549999999999981e+00 1.700705999999999918e+01 1.754590000000000094e+00 4.474630000000000329e+00 1.699772000000000105e+01 3.699999999999999947e-04 7.520439999999999792e+00 1.699370000000000047e+01 7.039869999999999628e+00 1.432050000000000045e+00 1.697932000000000130e+01 5.277479999999999727e+00 4.454379999999999562e+00 1.701317999999999842e+01 3.533440000000000136e+00 7.519849999999999923e+00 1.699868000000000023e+01 -9.399999999999999719e-04 2.033370000000000122e+00 1.299033999999999978e+01 -1.767419999999999991e+00 5.088470000000000049e+00 1.300235999999999947e+01 -3.520890000000000075e+00 8.130639999999999645e+00 1.299452999999999925e+01 3.520049999999999901e+00 2.037189999999999834e+00 1.298911000000000016e+01 1.760320000000000107e+00 5.082919999999999661e+00 1.299775999999999954e+01 -3.670000000000000085e-03 8.125310000000000699e+00 1.299806000000000061e+01 7.052710000000000257e+00 2.035419999999999785e+00 1.298783000000000065e+01 5.281740000000000101e+00 5.092150000000000176e+00 1.300359000000000087e+01 3.521150000000000002e+00 8.137449999999999406e+00 1.300539999999999985e+01 3.299999999999999982e-03 1.425450000000000106e+00 2.061803000000000097e+01 -1.751030000000000086e+00 4.476619999999999600e+00 2.062121000000000137e+01 -3.532270000000000021e+00 7.519619999999999749e+00 2.062668000000000035e+01 3.518569999999999975e+00 1.421850000000000058e+00 2.062311000000000050e+01 1.760010000000000074e+00 4.482210000000000250e+00 2.063904000000000138e+01 -1.847000000000000031e-02 7.522300000000000431e+00 2.063234999999999886e+01 7.039810000000000123e+00 1.418579999999999952e+00 2.062465999999999866e+01 5.290490000000000137e+00 4.465700000000000003e+00 2.062796000000000163e+01 3.524570000000000203e+00 7.530319999999999681e+00 2.063050000000000139e+01 -5.270459999999999923e+00 9.134949999999999903e+00 1.119406000000000034e+01 -1.740550000000000042e+00 3.050910000000000011e+00 1.117939999999999934e+01 -3.514940000000000175e+00 6.091199999999999726e+00 1.116205000000000069e+01 -1.749309999999999921e+00 9.127100000000000435e+00 1.118624999999999936e+01 1.775150000000000006e+00 3.020820000000000061e+00 1.117248999999999981e+01 3.729999999999999809e-03 6.115029999999999966e+00 1.118272999999999939e+01 1.747829999999999995e+00 9.142269999999999897e+00 1.118974000000000046e+01 5.289500000000000313e+00 3.057549999999999990e+00 1.119247000000000014e+01 3.523670000000000080e+00 6.084730000000000416e+00 1.120919999999999916e+01 1.755719999999999947e+00 2.439329999999999998e+00 1.880146999999999835e+01 -3.559999999999999797e-03 5.481090000000000018e+00 1.883455999999999975e+01 -1.780860000000000110e+00 8.518190000000000595e+00 1.881073999999999913e+01 5.275900000000000034e+00 2.451159999999999783e+00 1.882425999999999888e+01 3.530320000000000125e+00 5.499380000000000379e+00 1.879768999999999934e+01 1.758099999999999996e+00 8.529980000000000118e+00 1.880543000000000120e+01 8.795239999999999725e+00 2.485069999999999890e+00 1.879542000000000002e+01 7.046359999999999957e+00 5.471890000000000143e+00 1.881248000000000076e+01 5.281530000000000058e+00 8.533870000000000289e+00 1.879961000000000126e+01