3.000000000000000076e-06 -1.185000000000000072e-03 3.518999999999999993e-03 -5.000000000000000409e-06 -1.180999999999999975e-03 3.520999999999999824e-03 3.999999999999999819e-06 -1.188000000000000037e-03 3.526000000000000054e-03 -1.999999999999999909e-06 -1.188000000000000037e-03 3.520000000000000125e-03 5.000000000000000409e-06 -1.183999999999999940e-03 3.520000000000000125e-03 -3.000000000000000076e-06 -1.182000000000000108e-03 3.520999999999999824e-03 -9.999999999999999547e-07 -1.188999999999999953e-03 3.520000000000000125e-03 1.999999999999999909e-06 -1.182000000000000108e-03 3.521999999999999957e-03 -1.999999999999999909e-06 -1.188000000000000037e-03 3.521999999999999957e-03 3.000000000000000076e-06 -3.418899999999999717e-02 3.899999999999999821e-03 -3.999999999999999819e-06 -3.418600000000000111e-02 3.900999999999999954e-03 0.000000000000000000e+00 -3.418700000000000211e-02 3.908000000000000015e-03 0.000000000000000000e+00 -3.418700000000000211e-02 3.903999999999999918e-03 5.000000000000000409e-06 -3.418899999999999717e-02 3.902999999999999785e-03 -1.999999999999999909e-06 -3.418500000000000011e-02 3.902999999999999785e-03 0.000000000000000000e+00 -3.418800000000000311e-02 3.897999999999999989e-03 -3.000000000000000076e-06 -3.418800000000000311e-02 3.905000000000000051e-03 9.999999999999999547e-07 -3.418999999999999817e-02 3.905000000000000051e-03 0.000000000000000000e+00 3.515000000000000069e-02 -3.530000000000000152e-03 -6.000000000000000152e-06 3.515599999999999975e-02 -3.533999999999999815e-03 9.999999999999999547e-07 3.514899999999999969e-02 -3.539000000000000045e-03 -3.000000000000000076e-06 3.515100000000000169e-02 -3.533000000000000116e-03 9.999999999999999547e-07 3.515000000000000069e-02 -3.533000000000000116e-03 9.999999999999999547e-07 3.515800000000000175e-02 -3.536000000000000081e-03 0.000000000000000000e+00 3.514799999999999869e-02 -3.530000000000000152e-03 3.000000000000000076e-06 3.515900000000000275e-02 -3.533999999999999815e-03 -1.999999999999999909e-06 3.515299999999999675e-02 -3.534999999999999948e-03 3.999999999999999819e-06 5.779999999999999548e-04 -3.644999999999999803e-03 0.000000000000000000e+00 5.779999999999999548e-04 -3.642999999999999971e-03 1.999999999999999909e-06 5.820000000000000520e-04 -3.648999999999999900e-03 -3.000000000000000076e-06 5.779999999999999548e-04 -3.648000000000000201e-03 1.999999999999999909e-06 5.789999999999999791e-04 -3.645999999999999935e-03 -9.999999999999999547e-07 5.810000000000000277e-04 -3.648999999999999900e-03 -1.999999999999999909e-06 5.779999999999999548e-04 -3.644000000000000104e-03 -1.999999999999999909e-06 5.820000000000000520e-04 -3.647000000000000068e-03 9.999999999999999547e-07 5.789999999999999791e-04 -3.645999999999999935e-03 1.999999999999999909e-06 9.535000000000000073e-03 -6.797000000000000090e-03 -3.000000000000000076e-06 9.542999999999999400e-03 -6.798000000000000223e-03 3.000000000000000076e-06 9.544999999999999665e-03 -6.798000000000000223e-03 -9.999999999999999547e-07 9.537999999999999604e-03 -6.798000000000000223e-03 1.999999999999999909e-06 9.539999999999999869e-03 -6.799000000000000356e-03 -5.000000000000000409e-06 9.542999999999999400e-03 -6.801999999999999887e-03 -1.999999999999999909e-06 9.542000000000000134e-03 -6.797000000000000090e-03 9.999999999999999547e-07 9.537000000000000338e-03 -6.798000000000000223e-03 5.000000000000000409e-06 9.542999999999999400e-03 -6.799000000000000356e-03 3.000000000000000076e-06 -1.002300000000000066e-02 6.509000000000000029e-03 0.000000000000000000e+00 -1.001699999999999986e-02 6.505999999999999631e-03 -1.000000000000000082e-05 -1.001299999999999933e-02 6.507999999999999896e-03 -3.000000000000000076e-06 -1.001400000000000033e-02 6.505000000000000365e-03 3.000000000000000076e-06 -1.001800000000000086e-02 6.505999999999999631e-03 -3.000000000000000076e-06 -1.002100000000000039e-02 6.509000000000000029e-03 0.000000000000000000e+00 -1.001699999999999986e-02 6.511000000000000294e-03 -3.999999999999999819e-06 -1.001499999999999960e-02 6.505000000000000365e-03 6.000000000000000152e-06 -1.002300000000000066e-02 6.507999999999999896e-03
1.641300000000000051e-02 -2.499399999999999886e-02 -1.903900000000000037e-02 2.862500000000000114e-02 5.505000000000000344e-03 -3.864999999999999686e-02 2.969000000000000111e-02 1.523999999999999964e-03 -1.051999999999999984e-03 1.441199999999999946e-02 -2.852599999999999927e-02 -1.582199999999999926e-02 4.089600000000000180e-02 6.210000000000000242e-03 -6.348999999999999609e-03 9.117999999999999369e-03 1.187500000000000014e-02 -1.024300000000000037e-02 1.704999999999999918e-02 -8.906000000000000721e-03 3.027699999999999836e-02 -1.539500000000000070e-02 1.818000000000000171e-02 -2.424199999999999966e-02 -1.907999999999999974e-03 -2.163500000000000145e-02 7.400000000000000328e-03 -1.220700000000000084e-02 -2.435599999999999918e-02 -2.007000000000000103e-02 -2.102000000000000049e-02 7.199999999999999803e-03 -3.221500000000000058e-02 -1.231900000000000009e-02 -4.350300000000000000e-02 -9.620999999999999344e-03 2.078699999999999992e-02 -4.178899999999999976e-02 6.612999999999999955e-03 4.478000000000000209e-03 -2.767899999999999874e-02 2.021099999999999980e-02 -1.114599999999999966e-02 -5.130200000000000038e-02 3.593799999999999772e-02 -1.099600000000000057e-02 -3.528499999999999692e-02 5.724699999999999928e-02 1.054899999999999935e-02 -1.517100000000000046e-02 -2.655799999999999828e-02 -1.886099999999999929e-02 -2.652900000000000050e-02 -1.289700000000000048e-02 2.071500000000000077e-02 3.083699999999999983e-02 4.980000000000000052e-03 1.667899999999999938e-02 3.281300000000000189e-02 -3.376900000000000041e-02 1.513499999999999915e-02 1.081400000000000070e-02 -6.625999999999999945e-03 1.727100000000000163e-02 1.168199999999999968e-02 6.952999999999999979e-03 -1.198300000000000060e-02 4.069999999999999833e-03 -1.666099999999999873e-02 6.977999999999999828e-03 4.356600000000000056e-02 1.679599999999999843e-02 -2.262999999999999821e-03 3.765600000000000197e-02 1.525000000000000097e-03 2.397099999999999925e-02 2.444899999999999851e-02 -1.894000000000000067e-03 -6.912999999999999874e-03 2.537500000000000172e-02 -1.185600000000000022e-02 -2.224999999999999895e-02 1.355400000000000008e-02 -3.032699999999999979e-02 -1.879199999999999968e-02 -5.000000000000000409e-06 3.739200000000000162e-02 -1.407999999999999963e-03 -1.652999999999999955e-02 -1.253600000000000027e-02 -1.405400000000000052e-02 -4.270999999999999623e-03 -1.675300000000000053e-02 2.667999999999999886e-02 -1.675499999999999906e-02 -4.247700000000000087e-02 1.775699999999999848e-02 5.610999999999999668e-03 -2.159600000000000061e-02 1.541999999999999968e-02 1.544200000000000086e-02 -3.576599999999999918e-02 -2.097699999999999912e-02 2.315700000000000050e-02 -4.662000000000000345e-03 -4.589000000000000197e-03 -8.777999999999999345e-03 -3.357999999999999874e-02 -3.016200000000000131e-02 4.145200000000000273e-02 -1.982400000000000134e-02 -4.676600000000000201e-02 5.658999999999999968e-03 1.741600000000000092e-02 -3.362699999999999717e-02 2.983099999999999988e-02 8.358999999999999764e-02 -2.563800000000000107e-02 4.269499999999999684e-02 -1.943399999999999989e-02 -5.049800000000000122e-02 7.336800000000000266e-02 4.879900000000000210e-02 -2.853999999999999940e-02 -3.163400000000000239e-02 2.989999999999999949e-02 1.177199999999999948e-02 1.721100000000000060e-02 -2.162299999999999986e-02 -7.173999999999999821e-03 -5.233999999999999937e-03 -1.749999999999999982e-04 -8.215999999999999345e-03 3.850699999999999956e-02 -6.160100000000000298e-02 1.529999999999999936e-02 1.879300000000000068e-02 6.247099999999999875e-02 2.136599999999999958e-02 2.683999999999999928e-02 -5.434300000000000241e-02 4.311099999999999655e-02 2.885000000000000064e-02 9.792000000000000356e-03 5.798000000000000202e-03 -7.040899999999999936e-02 -2.809599999999999945e-02 -2.375199999999999881e-02 -3.436000000000000165e-02 7.884700000000000042e-02 6.295000000000000248e-03 1.212700000000000063e-02 1.524900000000000040e-02 6.794999999999999825e-03 -1.337150000000000005e-01 6.217099999999999710e-02 4.448999999999999830e-03 1.609800000000000120e-02 6.451000000000000137e-03 -6.344999999999999946e-03 -1.052299999999999937e-02 4.958599999999999813e-02
3.281900000000000095e-02 -4.870700000000000029e-02 -4.195600000000000024e-02 5.753599999999999687e-02 1.213299999999999969e-02 -8.126400000000000290e-02 5.903699999999999920e-02 4.044999999999999984e-03 -5.813999999999999724e-03 2.906900000000000109e-02 -5.574300000000000088e-02 -3.553900000000000114e-02 8.151600000000000512e-02 1.333200000000000010e-02 -1.659499999999999864e-02 1.820599999999999996e-02 2.491600000000000065e-02 -2.411599999999999855e-02 3.383900000000000102e-02 -1.655299999999999827e-02 5.652100000000000180e-02 -3.076500000000000068e-02 3.764399999999999691e-02 -5.219499999999999834e-02 -3.854999999999999920e-03 -4.175899999999999751e-02 1.106200000000000065e-02 -2.443700000000000039e-02 -1.457899999999999995e-02 -4.399499999999999938e-02 -4.172900000000000220e-02 4.957899999999999807e-02 -6.940499999999999448e-02 -2.472399999999999945e-02 -5.267899999999999666e-02 -2.314199999999999938e-02 4.140599999999999836e-02 -4.941000000000000253e-02 9.083000000000000795e-03 9.181999999999999190e-03 -2.120500000000000163e-02 3.635300000000000337e-02 -2.200900000000000079e-02 -6.773400000000000254e-02 6.734999999999999321e-02 -2.168199999999999988e-02 -3.652500000000000191e-02 1.093969999999999942e-01 2.097100000000000006e-02 3.917000000000000343e-03 -5.701400000000000218e-02 -3.772400000000000059e-02 -1.885200000000000070e-02 -2.968799999999999911e-02 4.126400000000000207e-02 2.643399999999999916e-02 1.366999999999999986e-02 3.306100000000000011e-02 3.044300000000000131e-02 -6.339300000000000490e-02 3.025999999999999870e-02 -1.314300000000000017e-02 -9.284999999999999851e-03 3.449699999999999989e-02 -1.167200000000000008e-02 1.766200000000000062e-02 -2.398600000000000038e-02 -2.629799999999999846e-02 -2.896599999999999869e-02 1.399300000000000023e-02 5.198400000000000243e-02 3.718099999999999877e-02 -4.510000000000000120e-03 3.998100000000000265e-02 6.633000000000000007e-03 4.776299999999999990e-02 1.360399999999999977e-02 6.899999999999999667e-05 -1.383999999999999987e-02 1.561500000000000041e-02 -2.019100000000000061e-02 -4.385599999999999915e-02 2.614000000000000004e-02 -5.604599999999999860e-02 -3.779600000000000320e-02 -7.960000000000000495e-04 7.893600000000000616e-02 -2.716999999999999797e-03 -3.341199999999999726e-02 -2.114200000000000107e-02 -2.793999999999999956e-02 -9.067999999999999672e-03 -2.945800000000000154e-02 5.271699999999999997e-02 -3.378599999999999659e-02 -8.013800000000000090e-02 3.531200000000000311e-02 1.053600000000000023e-02 -3.922799999999999898e-02 3.013499999999999859e-02 2.985399999999999859e-02 -6.695900000000000463e-02 -4.154999999999999666e-02 4.546000000000000041e-02 -5.318999999999999943e-03 -9.244999999999999746e-03 -1.794300000000000062e-02 -6.312800000000000356e-02 -6.013899999999999801e-02 7.309000000000000219e-02 -3.266999999999999765e-02 -9.309599999999999820e-02 1.845999999999999985e-03 4.184199999999999725e-02 -6.723099999999999909e-02 5.017800000000000038e-02 1.734269999999999978e-01 -5.096900000000000042e-02 7.561199999999999866e-02 -3.186200000000000143e-02 -1.008899999999999936e-01 1.362669999999999992e-01 1.036239999999999939e-01 -5.682199999999999751e-02 -7.249600000000000488e-02 6.626799999999999358e-02 2.341000000000000025e-02 2.485499999999999862e-02 -3.613100000000000339e-02 -1.420800000000000014e-02 -2.017499999999999849e-02 6.636999999999999671e-03 -1.630900000000000058e-02 6.738600000000000145e-02 -1.158060000000000062e-01 3.052600000000000105e-02 4.711499999999999716e-02 1.175400000000000056e-01 4.279399999999999871e-02 6.349100000000000577e-02 -1.146680000000000060e-01 8.583200000000000551e-02 6.729000000000000259e-02 1.316699999999999988e-02 1.125699999999999965e-02 -1.301339999999999997e-01 -6.188199999999999951e-02 -4.703800000000000342e-02 -5.830699999999999772e-02 1.498639999999999972e-01 1.254800000000000013e-02 3.379100000000000159e-02 2.392100000000000129e-02 1.355699999999999961e-02 -2.573230000000000239e-01 1.175920000000000021e-01 8.618999999999999925e-03 4.205300000000000010e-02 6.243000000000000285e-03 -1.238599999999999944e-02 -1.121199999999999974e-02 9.221200000000000230e-02
4.911000000000000087e-02 -7.213100000000000067e-02 -6.505500000000000171e-02 8.651499999999999468e-02 1.869499999999999981e-02 -1.239589999999999997e-01 8.798300000000000565e-02 6.368999999999999662e-03 -1.061100000000000064e-02 4.375799999999999829e-02 -8.266700000000000437e-02 -5.546299999999999841e-02 1.216969999999999996e-01 2.023300000000000098e-02 -2.724800000000000139e-02 2.718599999999999836e-02 3.783799999999999664e-02 -3.789000000000000007e-02 5.035400000000000292e-02 -2.406499999999999959e-02 8.219799999999999329e-02 -4.598200000000000204e-02 5.720700000000000091e-02 -8.018799999999999539e-02 -5.827999999999999847e-03 -6.144000000000000156e-02 1.426400000000000064e-02 -3.659199999999999953e-02 -4.902000000000000107e-03 -6.768100000000000505e-02 -6.216399999999999704e-02 9.257500000000000451e-02 -1.072550000000000031e-01 -3.715000000000000246e-02 -6.155999999999999667e-02 -3.649399999999999866e-02 6.173200000000000215e-02 -5.702600000000000030e-02 1.119799999999999962e-02 1.417299999999999983e-02 -1.479100000000000033e-02 5.220400000000000040e-02 -3.255799999999999667e-02 -8.338900000000000479e-02 9.794999999999999540e-02 -3.191399999999999793e-02 -3.793699999999999850e-02 1.601140000000000063e-01 3.122799999999999881e-02 2.314499999999999891e-02 -8.732499999999999984e-02 -5.654399999999999704e-02 -1.126300000000000044e-02 -4.635800000000000337e-02 6.146299999999999680e-02 2.197299999999999948e-02 2.261799999999999922e-02 4.909000000000000169e-02 2.794200000000000156e-02 -9.219399999999999817e-02 4.529299999999999993e-02 -3.651399999999999785e-02 -1.142800000000000066e-02 5.159699999999999703e-02 -3.485200000000000103e-02 2.861199999999999855e-02 -3.591400000000000148e-02 -5.575299999999999701e-02 -4.025700000000000112e-02 2.097800000000000012e-02 6.040199999999999736e-02 5.747700000000000031e-02 -6.813999999999999745e-03 4.210099999999999953e-02 1.190899999999999945e-02 7.113700000000000578e-02 2.599000000000000182e-03 2.376000000000000074e-03 -2.077400000000000080e-02 5.839999999999999705e-03 -2.847500000000000031e-02 -6.474800000000000000e-02 3.825599999999999834e-02 -8.051800000000000623e-02 -5.691199999999999731e-02 -1.863000000000000073e-03 1.205119999999999941e-01 -3.778999999999999807e-03 -4.998600000000000265e-02 -2.946199999999999861e-02 -4.156200000000000172e-02 -1.381499999999999916e-02 -4.158400000000000291e-02 7.791700000000000015e-02 -5.041600000000000248e-02 -1.163759999999999933e-01 5.269200000000000272e-02 1.531899999999999928e-02 -5.650899999999999673e-02 4.409400000000000125e-02 4.378599999999999853e-02 -9.692000000000000615e-02 -6.160399999999999904e-02 6.734300000000000008e-02 -5.636000000000000384e-03 -1.397400000000000031e-02 -2.691999999999999948e-02 -9.198900000000000132e-02 -8.974200000000000232e-02 1.043380000000000002e-01 -4.529999999999999999e-02 -1.388459999999999972e-01 -1.853999999999999962e-03 6.623199999999999921e-02 -1.005390000000000034e-01 7.044899999999999773e-02 2.619859999999999967e-01 -7.592899999999999650e-02 1.081509999999999971e-01 -4.402699999999999669e-02 -1.508970000000000034e-01 1.979370000000000018e-01 1.572479999999999989e-01 -8.472899999999999876e-02 -1.128289999999999987e-01 1.019469999999999960e-01 3.488200000000000328e-02 3.245499999999999774e-02 -5.020299999999999763e-02 -2.107799999999999951e-02 -3.519499999999999712e-02 1.352399999999999956e-02 -2.429600000000000162e-02 9.602800000000000225e-02 -1.690790000000000071e-01 4.545799999999999841e-02 7.470799999999999663e-02 1.712279999999999913e-01 6.405700000000000283e-02 9.964499999999999746e-02 -1.741119999999999890e-01 1.278739999999999877e-01 1.050579999999999986e-01 1.655500000000000027e-02 1.650300000000000031e-02 -1.887989999999999946e-01 -9.468699999999999339e-02 -6.974400000000000044e-02 -8.174399999999999722e-02 2.189770000000000050e-01 1.869099999999999928e-02 5.482200000000000267e-02 3.239399999999999918e-02 2.024899999999999964e-02 -3.800140000000000184e-01 1.723109999999999919e-01 1.250000000000000069e-02 6.770199999999999829e-02 5.819999999999999653e-03 -1.796000000000000027e-02 -1.204799999999999968e-02 1.339380000000000015e-01
6.519500000000000295e-02 -9.507200000000000373e-02 -8.813500000000000500e-02 1.152880000000000016e-01 2.521299999999999930e-02 -1.663729999999999931e-01 1.163860000000000033e-01 8.455000000000000709e-03 -1.529699999999999983e-02 5.825400000000000023e-02 -1.090529999999999972e-01 -7.538499999999999368e-02 1.612260000000000082e-01 2.692400000000000002e-02 -3.825499999999999734e-02 3.601499999999999840e-02 5.051300000000000234e-02 -5.136399999999999993e-02 6.652600000000000180e-02 -3.139999999999999736e-02 1.072319999999999940e-01 -6.088699999999999668e-02 7.680499999999999827e-02 -1.080320000000000030e-01 -7.820000000000000562e-03 -8.053599999999999648e-02 1.686400000000000052e-02 -4.852000000000000063e-02 4.615000000000000178e-03 -9.090700000000000169e-02 -8.231900000000000328e-02 1.357760000000000078e-01 -1.453720000000000012e-01 -4.955899999999999889e-02 -6.999299999999999966e-02 -4.952800000000000258e-02 8.162700000000000511e-02 -6.456800000000000039e-02 1.293599999999999958e-02 1.951200000000000156e-02 -8.474000000000000629e-03 6.774499999999999966e-02 -4.270299999999999790e-02 -9.811300000000000576e-02 1.275519999999999987e-01 -4.162799999999999834e-02 -3.960000000000000325e-02 2.092189999999999883e-01 4.124200000000000088e-02 4.246599999999999681e-02 -1.172099999999999947e-01 -7.526599999999999957e-02 -3.864999999999999946e-03 -6.267200000000000548e-02 8.114499999999999491e-02 1.746299999999999936e-02 3.186100000000000043e-02 6.467399999999999538e-02 2.526300000000000073e-02 -1.199380000000000029e-01 6.010000000000000064e-02 -5.906900000000000345e-02 -1.302200000000000059e-02 6.845600000000000296e-02 -5.773699999999999666e-02 3.976199999999999873e-02 -4.768599999999999922e-02 -8.411000000000000421e-02 -5.047100000000000197e-02 2.788900000000000060e-02 6.881900000000000517e-02 7.751299999999999857e-02 -9.235999999999999419e-03 4.395899999999999808e-02 1.742900000000000005e-02 9.385200000000000486e-02 -8.564999999999999697e-03 5.006000000000000033e-03 -2.770200000000000093e-02 -3.909000000000000148e-03 -3.674000000000000182e-02 -8.480699999999999350e-02 4.980699999999999711e-02 -1.034739999999999965e-01 -7.598599999999999799e-02 -3.230999999999999931e-03 1.617570000000000119e-01 -4.500999999999999793e-03 -6.616700000000000359e-02 -3.745199999999999918e-02 -5.481400000000000161e-02 -1.847899999999999890e-02 -5.298699999999999938e-02 1.020889999999999992e-01 -6.653599999999999792e-02 -1.510090000000000043e-01 6.994200000000000417e-02 1.994599999999999845e-02 -7.336600000000000066e-02 5.718499999999999972e-02 5.713599999999999929e-02 -1.254059999999999897e-01 -8.102199999999999680e-02 8.858800000000000008e-02 -5.707000000000000267e-03 -1.881899999999999892e-02 -3.568500000000000144e-02 -1.199550000000000061e-01 -1.187300000000000022e-01 1.349720000000000086e-01 -5.764199999999999879e-02 -1.836869999999999892e-01 -5.428999999999999798e-03 9.029099999999999626e-02 -1.332780000000000076e-01 9.048599999999999699e-02 3.484360000000000235e-01 -1.003620000000000068e-01 1.401030000000000053e-01 -5.583699999999999775e-02 -2.000850000000000128e-01 2.579609999999999959e-01 2.091919999999999891e-01 -1.120239999999999986e-01 -1.523599999999999954e-01 1.365470000000000017e-01 4.613300000000000040e-02 3.996100000000000346e-02 -6.370499999999999774e-02 -2.777100000000000055e-02 -5.018700000000000244e-02 2.034700000000000050e-02 -3.214499999999999996e-02 1.242029999999999940e-01 -2.209980000000000000e-01 5.997399999999999953e-02 1.013860000000000039e-01 2.230100000000000138e-01 8.502700000000000535e-02 1.350190000000000001e-01 -2.322150000000000047e-01 1.689120000000000066e-01 1.419140000000000124e-01 1.990899999999999961e-02 2.154299999999999965e-02 -2.459310000000000107e-01 -1.263120000000000076e-01 -9.171999999999999598e-02 -1.045470000000000010e-01 2.855610000000000093e-01 2.468400000000000108e-02 7.508099999999999496e-02 4.058599999999999708e-02 2.680199999999999944e-02 -5.008629999999999471e-01 2.258630000000000082e-01 1.601100000000000093e-02 9.285999999999999810e-02 5.167999999999999851e-03 -2.298800000000000149e-02 -1.302999999999999992e-02 1.743230000000000057e-01
8.096699999999999731e-02 -1.173280000000000017e-01 -1.110130000000000006e-01 1.435680000000000012e-01 3.170200000000000101e-02 -2.081439999999999957e-01 1.441300000000000081e-01 1.027600000000000041e-02 -1.972199999999999995e-02 7.231999999999999540e-02 -1.346860000000000002e-01 -9.508500000000000285e-02 1.999150000000000094e-01 3.343000000000000138e-02 -4.953899999999999970e-02 4.463500000000000106e-02 6.282799999999999496e-02 -6.434199999999999642e-02 8.231199999999999628e-02 -3.852300000000000169e-02 1.315479999999999983e-01 -7.534000000000000419e-02 9.639999999999999958e-02 -1.355379999999999918e-01 -9.837000000000000258e-03 -9.893200000000000605e-02 1.873100000000000112e-02 -6.009400000000000158e-02 1.390699999999999922e-02 -1.134460000000000052e-01 -1.021809999999999941e-01 1.787259999999999960e-01 -1.833299999999999930e-01 -6.190099999999999769e-02 -7.782000000000000028e-02 -6.208000000000000324e-02 1.009629999999999972e-01 -7.198400000000000631e-02 1.426099999999999937e-02 2.526499999999999926e-02 -2.268000000000000051e-03 8.295399999999999996e-02 -5.236799999999999788e-02 -1.117790000000000034e-01 1.560290000000000010e-01 -5.075000000000000344e-02 -4.156900000000000178e-02 2.565500000000000003e-01 5.092100000000000098e-02 6.185500000000000026e-02 -1.464010000000000034e-01 -9.383600000000000274e-02 3.233999999999999896e-03 -7.837500000000000022e-02 1.001439999999999969e-01 1.293799999999999985e-02 4.145299999999999679e-02 7.972799999999999332e-02 2.235699999999999840e-02 -1.464020000000000044e-01 7.457700000000000440e-02 -8.061300000000000410e-02 -1.404799999999999972e-02 8.495700000000000474e-02 -8.023399999999999976e-02 5.107500000000000234e-02 -5.919599999999999862e-02 -1.112070000000000003e-01 -5.955599999999999783e-02 3.466799999999999743e-02 7.724100000000000410e-02 9.711999999999999800e-02 -1.181899999999999964e-02 4.549799999999999678e-02 2.328300000000000161e-02 1.156660000000000049e-01 -1.985599999999999865e-02 7.938000000000000611e-03 -3.462400000000000200e-02 -1.361899999999999916e-02 -4.499800000000000327e-02 -1.039569999999999939e-01 6.070400000000000101e-02 -1.246909999999999963e-01 -9.485499999999999488e-02 -4.935000000000000150e-03 2.022809999999999886e-01 -4.787999999999999722e-03 -8.185599999999999821e-02 -4.508299999999999808e-02 -6.759300000000000030e-02 -2.304900000000000004e-02 -6.352700000000000014e-02 1.250789999999999957e-01 -8.202600000000000169e-02 -1.838819999999999899e-01 8.709300000000000375e-02 2.441199999999999967e-02 -8.976399999999999657e-02 6.933100000000000374e-02 6.982199999999999518e-02 -1.522100000000000120e-01 -9.971499999999999808e-02 1.090050000000000047e-01 -5.612999999999999934e-03 -2.380799999999999930e-02 -4.422199999999999742e-02 -1.468420000000000003e-01 -1.468760000000000066e-01 1.647760000000000058e-01 -6.963500000000000245e-02 -2.273060000000000080e-01 -8.873000000000000678e-03 1.137210000000000026e-01 -1.651710000000000123e-01 1.101400000000000018e-01 4.319810000000000039e-01 -1.241120000000000001e-01 1.712490000000000123e-01 -6.721299999999999497e-02 -2.480489999999999917e-01 3.159779999999999811e-01 2.590140000000000220e-01 -1.384799999999999920e-01 -1.908070000000000044e-01 1.696979999999999877e-01 5.710900000000000004e-02 4.730899999999999689e-02 -7.650400000000000256e-02 -3.427899999999999697e-02 -6.504200000000000259e-02 2.697700000000000098e-02 -3.982999999999999735e-02 1.516800000000000093e-01 -2.711620000000000141e-01 7.393800000000000372e-02 1.269649999999999945e-01 2.724050000000000082e-01 1.055520000000000069e-01 1.693260000000000043e-01 -2.885229999999999739e-01 2.086300000000000099e-01 1.776139999999999941e-01 2.318500000000000075e-02 2.640599999999999892e-02 -3.010889999999999955e-01 -1.565630000000000077e-01 -1.128370000000000067e-01 -1.265680000000000138e-01 3.490300000000000069e-01 3.048800000000000121e-02 9.444099999999999717e-02 4.841000000000000164e-02 3.317300000000000110e-02 -6.189149999999999929e-01 2.777640000000000109e-01 1.910099999999999992e-02 1.173749999999999932e-01 4.276000000000000287e-03 -2.742999999999999952e-02 -1.413500000000000000e-02 2.129340000000000122e-01
9.632999999999999896e-02 -1.387210000000000110e-01 -1.334899999999999975e-01 1.710770000000000068e-01 3.819899999999999685e-02 -2.488970000000000071e-01 1.711050000000000071e-01 1.180900000000000005e-02 -2.373799999999999868e-02 8.572599999999999665e-02 -1.593430000000000124e-01 -1.143509999999999943e-01 2.375750000000000084e-01 3.977900000000000186e-02 -6.103599999999999998e-02 5.301000000000000156e-02 7.465900000000000314e-02 -7.663399999999999379e-02 9.766299999999999981e-02 -4.540000000000000285e-02 1.551049999999999929e-01 -8.920100000000000251e-02 1.159319999999999934e-01 -1.625260000000000038e-01 -1.187200000000000061e-02 -1.165080000000000005e-01 1.973799999999999860e-02 -7.117400000000000115e-02 2.291199999999999834e-02 -1.350649999999999906e-01 -1.217420000000000030e-01 2.209569999999999868e-01 -2.206909999999999983e-01 -7.413100000000000245e-02 -8.489099999999999424e-02 -7.399600000000000621e-02 1.196379999999999943e-01 -7.920699999999999963e-02 1.518700000000000085e-02 3.147400000000000198e-02 3.794000000000000063e-03 9.781099999999999517e-02 -6.147400000000000087e-02 -1.242800000000000016e-01 1.832630000000000092e-01 -5.924299999999999705e-02 -4.389799999999999952e-02 3.020059999999999967e-01 6.019399999999999751e-02 8.125100000000000378e-02 -1.746419999999999917e-01 -1.122039999999999982e-01 9.950000000000000511e-03 -9.323800000000000143e-02 1.183040000000000064e-01 8.413000000000000339e-03 5.143099999999999755e-02 9.418999999999999595e-02 1.917999999999999913e-02 -1.714009999999999978e-01 8.859200000000000408e-02 -1.009599999999999942e-01 -1.449100000000000041e-02 1.010039999999999966e-01 -1.022419999999999995e-01 6.252299999999999525e-02 -7.037300000000000499e-02 -1.369019999999999959e-01 -6.747000000000000219e-02 4.127900000000000319e-02 8.566100000000000103e-02 1.161429999999999962e-01 -1.461699999999999978e-02 4.666599999999999915e-02 2.953799999999999829e-02 1.363679999999999892e-01 -3.125700000000000006e-02 1.114500000000000039e-02 -4.152399999999999841e-02 -2.325599999999999890e-02 -5.327300000000000091e-02 -1.221269999999999994e-01 7.087000000000000244e-02 -1.439840000000000009e-01 -1.133509999999999934e-01 -6.997999999999999880e-03 2.417060000000000042e-01 -4.551999999999999623e-03 -9.697100000000000164e-02 -5.233999999999999764e-02 -7.980500000000000094e-02 -2.749400000000000108e-02 -7.310899999999999344e-02 1.467380000000000073e-01 -9.679599999999999316e-02 -2.148770000000000124e-01 1.041860000000000008e-01 2.871200000000000141e-02 -1.056700000000000000e-01 8.046100000000000474e-02 8.177600000000000147e-02 -1.771840000000000082e-01 -1.175999999999999962e-01 1.283890000000000031e-01 -5.453000000000000382e-03 -2.896900000000000169e-02 -5.250500000000000306e-02 -1.724829999999999974e-01 -1.739709999999999868e-01 1.935570000000000068e-01 -8.121100000000000541e-02 -2.694079999999999808e-01 -1.218699999999999992e-02 1.362339999999999940e-01 -1.959579999999999933e-01 1.292439999999999978e-01 5.118489999999999984e-01 -1.470410000000000050e-01 2.013909999999999867e-01 -7.807600000000000651e-02 -2.943879999999999830e-01 3.716320000000000179e-01 3.062819999999999987e-01 -1.638940000000000119e-01 -2.279180000000000095e-01 2.010550000000000115e-01 6.777099999999999791e-02 5.445099999999999940e-02 -8.848499999999999421e-02 -4.057899999999999702e-02 -7.964200000000000446e-02 3.328899999999999915e-02 -4.732299999999999701e-02 1.782459999999999878e-01 -3.191849999999999965e-01 8.724500000000000310e-02 1.512789999999999968e-01 3.189739999999999798e-01 1.254909999999999914e-01 2.023030000000000106e-01 -3.426040000000000196e-01 2.467310000000000059e-01 2.119530000000000025e-01 2.633599999999999830e-02 3.112399999999999889e-02 -3.538979999999999904e-01 -1.852769999999999972e-01 -1.329899999999999971e-01 -1.477040000000000020e-01 4.088620000000000032e-01 3.605599999999999777e-02 1.128170000000000006e-01 5.578799999999999731e-02 3.930000000000000160e-02 -7.332410000000000316e-01 3.275449999999999751e-01 2.172200000000000172e-02 1.410869999999999902e-01 3.135000000000000200e-03 -3.123499999999999888e-02 -1.532599999999999935e-02 2.493670000000000053e-01