-2.190930479037187517e+00 0.000000000000000000e+00 -1.808295212146902902e-05 0.000000000000000000e+00 -1.960336673584214484e+00 -1.811839470762710791e+00 -1.808295212146902902e-05 -1.811839470762710791e+00 -8.307308204602872892e-02
-2.162974235057396388e+00 -6.858863739673203008e-02 -5.564124367776020208e-02 -6.858863739673203008e-02 -1.996773822108974583e+00 -2.010209455535226120e+00 -5.564124367776020208e-02 -2.010209455535226120e+00 -1.060565141924158516e-01
-2.122739666587127871e+00 -1.367252009904273147e-01 -1.128195382858452750e-01 -1.367252009904273147e-01 -2.018003207899579099e+00 -2.211273800173840343e+00 -1.128195382858452750e-01 -2.211273800173840343e+00 -1.077743946439554124e-01
-2.070479934956082069e+00 -2.038491192653203721e-01 -1.713902202072834779e-01 -2.038491192653203721e-01 -2.023880167339056957e+00 -2.414942089917945900e+00 -1.713902202072834779e-01 -2.414942089917945900e+00 -8.920320281520671690e-02
-2.007352349100033795e+00 -2.695264013704958828e-01 -2.311182110644956766e-01 -2.695264013704958828e-01 -2.015363096889844385e+00 -2.620888831629356819e+00 -2.311182110644956766e-01 -2.620888831629356819e+00 -5.180765782800876573e-02
-1.934785462236578768e+00 -3.332688075986741660e-01 -2.916961006714169358e-01 -3.332688075986741660e-01 -1.993645471391960466e+00 -2.828716200361400368e+00 -2.916961006714169358e-01 -2.828716200361400368e+00 2.314617871548035714e-03
-1.854605652529984994e+00 -3.946242641468186152e-01 -3.527983958898607275e-01 -3.946242641468186152e-01 -1.960445171296943512e+00 -3.038026371167404260e+00 -3.527983958898607275e-01 -3.038026371167404260e+00 7.046926441736479918e-02
-1.768802044713614574e+00 -4.531949460682568320e-01 -4.140815206295193063e-01 -4.531949460682568320e-01 -1.917697072481790554e+00 -3.248530016813425014e+00 -4.140815206295193063e-01 -3.248530016813425014e+00 1.494917651881844389e-01
-1.679399929425071658e+00 -5.086191943205594646e-01 -4.750753181352343479e-01 -5.086191943205594646e-01 -1.867498797392592502e+00 -3.459992058921883995e+00 -4.750753181352343479e-01 -3.459992058921883995e+00 2.359825251851708494e-01
-1.588659675679540140e+00 -5.605353498612969387e-01 -5.354542952688193802e-01 -5.605353498612969387e-01 -1.812237295709383300e+00 -3.672213585019444171e+00 -5.354542952688193802e-01 -3.672213585019444171e+00 3.261441244628153768e-01
2.116031621234929005e+01 6.103456511605043211e-01 -2.279196411229361985e+01 6.103456511605043211e-01 -1.342945718302968316e+01 -3.531402481043314445e+00 -2.279196411229361985e+01 -3.531402481043314445e+00 3.956408415621936570e+00
2.112730656662204964e+01 5.545980260331383471e-01 -2.260358427030143247e+01 5.545980260331383471e-01 -1.348590637555942529e+01 -3.522048249011616949e+00 -2.260358427030143247e+01 -3.522048249011616949e+00 3.825269278100639436e+00
2.108319776481104313e+01 4.993181125073570814e-01 -2.236069803781686005e+01 4.993181125073570814e-01 -1.352350319276374790e+01 -3.514420952124232667e+00 -2.236069803781686005e+01 -3.514420952124232667e+00 3.684631997285619853e+00
2.102831360725583565e+01 4.447037885684467229e-01 -2.206377312644147892e+01 4.447037885684467229e-01 -1.354219366791939017e+01 -3.508376679119135755e+00 -2.206377312644147892e+01 -3.508376679119135755e+00 3.534856351331941315e+00
2.096260012723315924e+01 3.908629876629266531e-01 -2.171369099265520575e+01 3.908629876629266531e-01 -1.354253545716670182e+01 -3.503717552011040848e+00 -2.171369099265520575e+01 -3.503717552011040848e+00 3.376176196040396871e+00
2.088551765751042311e+01 3.379935877760829044e-01 -2.131163890436974384e+01 3.379935877760829044e-01 -1.352551795043211413e+01 -3.500227703906907184e+00 -2.131163890436974384e+01 -3.500227703906907184e+00 3.208447620148960677e+00
2.079640060850075045e+01 2.862035223544349694e-01 -2.085893005185109672e+01 2.862035223544349694e-01 -1.349261623815139366e+01 -3.497493389928411300e+00 -2.085893005185109672e+01 -3.497493389928411300e+00 3.031094978609527590e+00
2.069438551263198889e+01 2.356367026600090231e-01 -2.035703952553502205e+01 2.356367026600090231e-01 -1.344566518891537399e+01 -3.495172820828240212e+00 -2.035703952553502205e+01 -3.495172820828240212e+00 2.843290781665448463e+00
2.057851895779321438e+01 1.864550288625844710e-01 -1.980740643804178447e+01 1.864550288625844710e-01 -1.338667956039241957e+01 -3.492834262820315505e+00 -1.980740643804178447e+01 -3.492834262820315505e+00 2.643973683759280213e+00
2.044779356515024205e+01 1.387844233164340635e-01 -1.921166777997693131e+01 1.387844233164340635e-01 -1.331794394386719738e+01 -3.490027993210806478e+00 -1.921166777997693131e+01 -3.490027993210806478e+00 2.431812505717280803e+00
2.299181272823443933e+01 8.986762081513422373e+00 -4.592140620211464075e+00 8.986762081513422373e+00 -8.234826208443413620e+00 1.363085398086632694e+01 -4.592140620211464075e+00 1.363085398086632694e+01 -1.076290600400530373e+01
2.298141887591746269e+01 8.934325276398698890e+00 -4.704836593343827644e+00 8.934325276398698890e+00 -8.119181114584433701e+00 1.363425266267931768e+01 -4.704836593343827644e+00 1.363425266267931768e+01 -1.062717452080711134e+01
2.298150878813473597e+01 8.871458654080088380e+00 -4.814349673984658295e+00 8.871458654080088380e+00 -7.971257534723764415e+00 1.361353688781917981e+01 -4.814349673984658295e+00 1.361353688781917981e+01 -1.044675666562329219e+01
2.299222632443390424e+01 8.798575810757052196e+00 -4.920302230821404166e+00 8.798575810757052196e+00 -7.791289240626318779e+00 1.356832902497336057e+01 -4.920302230821404166e+00 1.356832902497336057e+01 -1.022318094614751871e+01
2.301308595884168184e+01 8.716180254846332076e+00 -5.022082860776594160e+00 8.716180254846332076e+00 -7.580660880438131244e+00 1.349823346038584404e+01 -5.022082860776594160e+00 1.349823346038584404e+01 -9.958119729621104810e+00
2.304342234095023301e+01 8.624847424538485186e+00 -5.118864371451298467e+00 8.624847424538485186e+00 -7.340847014522511316e+00 1.340272870319644305e+01 -5.118864371451298467e+00 1.340272870319644305e+01 -9.653479155050280980e+00
2.308230038369990211e+01 8.525206705354438697e+00 -5.209765623116225264e+00 8.525206705354438697e+00 -7.073843694102960100e+00 1.328123931521459511e+01 -5.209765623116225264e+00 1.328123931521459511e+01 -9.311776764518741700e+00
2.312853324582265557e+01 8.418049324806208489e+00 -5.293743634050984248e+00 8.418049324806208489e+00 -6.781916707054806537e+00 1.313308196358901014e+01 -5.293743634050984248e+00 1.313308196358901014e+01 -8.935979661196558510e+00
2.318093408605047046e+01 8.304040633301633889e+00 -5.369737440091731706e+00 8.304040633301633889e+00 -6.467367806140288167e+00 1.295750138569458088e+01 -5.369737440091731706e+00 1.295750138569458088e+01 -8.529018983366894346e+00
2.323820816845458381e+01 8.184007823239639379e+00 -5.436632129744259245e+00 8.184007823239639379e+00 -6.132678568556189980e+00 1.275359845935855674e+01 -5.436632129744259245e+00 1.275359845935855674e+01 -8.094185518182008821e+00
2.179017659451629285e+01 9.320624026056163913e+00 3.633526360443783965e+00 9.320624026056163913e+00 -2.130014217777241115e+01 1.062528128250306558e+01 3.633526360443783965e+00 1.062528128250306558e+01 4.774941161451106808e+00
2.188254458711620742e+01 9.342243988344412386e+00 3.784667416774653681e+00 9.342243988344412386e+00 -2.117044046583264816e+01 1.070581880283998544e+01 3.784667416774653681e+00 1.070581880283998544e+01 5.066295891335576229e+00
2.195428601586216644e+01 9.348746232641628851e+00 3.923598703258525777e+00 9.348746232641628851e+00 -2.102589196274756489e+01 1.076101563220747259e+01 3.923598703258525777e+00 1.076101563220747259e+01 5.339010854234691905e+00
2.200491321243189091e+01 9.339823708522668966e+00 4.050139601998256289e+00 9.339823708522668966e+00 -2.086718301652632235e+01 1.079067309091866811e+01 4.050139601998256289e+00 1.079067309091866811e+01 5.589997484107271930e+00
2.203339665481164289e+01 9.315440292408105449e+00 4.163910815409841426e+00 9.315440292408105449e+00 -2.069588500287408195e+01 1.079446606675871223e+01 4.163910815409841426e+00 1.079446606675871223e+01 5.816871624711006383e+00
2.203885131530541841e+01 9.275523737139078406e+00 4.264695602016707277e+00 9.275523737139078406e+00 -2.051360542107542884e+01 1.077208750930245529e+01 4.264695602016707277e+00 1.077208750930245529e+01 6.017483923069868901e+00
2.202048247516578172e+01 9.220128228084732314e+00 4.352331405711422185e+00 9.220128228084732314e+00 -2.032220463547095690e+01 1.072319424454532744e+01 4.352331405711422185e+00 1.072319424454532744e+01 6.189666964418121253e+00
2.197744123027614904e+01 9.149470506721637975e+00 4.426745979335128922e+00 9.149470506721637975e+00 -2.012365138113954544e+01 1.064740697490331911e+01 4.426745979335128922e+00 1.064740697490331911e+01 6.331271395779737965e+00
2.190891480009936387e+01 9.063767314526375074e+00 4.488047693626115553e+00 9.063767314526375074e+00 -1.991993245494979092e+01 1.054436446458214149e+01 4.488047693626115553e+00 1.054436446458214149e+01 6.440310420286126103e+00
2.181425296020571025e+01 8.963289578344655339e+00 4.536399104691810180e+00 8.963289578344655339e+00 -1.971319720987771618e+01 1.041359710704921859e+01 4.536399104691810180e+00 1.041359710704921859e+01 6.514815302858405488e+00
-1.218252879984268944e+01 -2.769595113010821397e+00 1.121293190498100323e+01 -2.769595113010821397e+00 -4.561511833375137215e+00 -1.480854019768570318e+01 1.121293190498100323e+01 -1.480854019768570318e+01 -1.444505563668532133e+01
-1.217825035983896420e+01 -2.753724660347424358e+00 1.106340591203024104e+01 -2.753724660347424358e+00 -4.594038947762445702e+00 -1.473121745078074341e+01 1.106340591203024104e+01 -1.473121745078074341e+01 -1.448520715056644903e+01
-1.214330976647519478e+01 -2.734288841014254956e+00 1.089565083923454125e+01 -2.734288841014254956e+00 -4.601590211529707375e+00 -1.463319729325946383e+01 1.089565083923454125e+01 -1.463319729325946383e+01 -1.446096265721199714e+01
-1.207723163752874740e+01 -2.711433926464432265e+00 1.070953869907242328e+01 -2.711433926464432265e+00 -4.583507403137887515e+00 -1.451453457691678217e+01 1.070953869907242328e+01 -1.451453457691678217e+01 -1.437272440311804189e+01
-1.198056449094881515e+01 -2.685287904219434640e+00 1.050527061479192703e+01 -2.685287904219434640e+00 -4.540028213698304782e+00 -1.437537557320582060e+01 1.050527061479192703e+01 -1.437537557320582060e+01 -1.422115060982361534e+01
-1.185418595545411513e+01 -2.656051897527301087e+00 1.028306599357272866e+01 -2.656051897527301087e+00 -4.471865716544912495e+00 -1.421577513392149683e+01 1.028306599357272866e+01 -1.421577513392149683e+01 -1.400785026331302774e+01
-1.169928448660123443e+01 -2.623945313567709992e+00 1.004301625507302731e+01 -2.623945313567709992e+00 -4.379860972533145436e+00 -1.403586124658529144e+01 1.004301625507302731e+01 -1.403586124658529144e+01 -1.373463347281862568e+01
-1.151710339174168674e+01 -2.589150991657059642e+00 9.785176251087746024e+00 -2.589150991657059642e+00 -4.264928178244995038e+00 -1.383561562726556282e+01 9.785176251087746024e+00 -1.383561562726556282e+01 -1.340367602620554877e+01
-1.130926994079141679e+01 -2.551888338975027981e+00 9.509527697685241421e+00 -2.551888338975027981e+00 -4.128420344621813953e+00 -1.361496514023575166e+01 9.509527697685241421e+00 -1.361496514023575166e+01 -1.301766566142485892e+01
-1.107735655187145341e+01 -2.512395046632934115e+00 9.215942607344036475e+00 -2.512395046632934115e+00 -3.971525927220189267e+00 -1.337380008190602076e+01 9.215942607344036475e+00 -1.337380008190602076e+01 -1.257923526463269681e+01
2.660653679620805789e+00 5.175353355503442998e+00 -7.191426044398883555e+00 5.175353355503442998e+00 -3.382712781531751034e+01 -7.657991851090713453e+00 -7.191426044398883555e+00 -7.657991851090713453e+00 -1.637068216144912824e+01
2.524513569966143844e+00 5.161112140780759638e+00 -7.222103686994507221e+00 5.161112140780759638e+00 -3.390408940576185870e+01 -7.662603643423189226e+00 -7.222103686994507221e+00 -7.662603643423189226e+00 -1.668007808545021220e+01
2.407226467366639699e+00 5.140783360179210781e+00 -7.237248813014355520e+00 5.140783360179210781e+00 -3.393742344074098582e+01 -7.657014151116229073e+00 -7.237248813014355520e+00 -7.657014151116229073e+00 -1.691749315472602788e+01
2.309567152934149270e+00 5.114477696714772925e+00 -7.236935211135747004e+00 5.114477696714772925e+00 -3.392707457874691102e+01 -7.641370951524473654e+00 -7.236935211135747004e+00 -7.641370951524473654e+00 -1.708215258816471405e+01
2.231720098361971161e+00 5.082250491895438316e+00 -7.221033751173372650e+00 5.082250491895438316e+00 -3.387343021033556312e+01 -7.615655597478593108e+00 -7.221033751173372650e+00 -7.615655597478593108e+00 -1.717337384050106763e+01
2.173076547062219088e+00 5.044267770245173921e+00 -7.189544433127233347e+00 5.044267770245173921e+00 -3.377770784868271647e+01 -7.579997219163896460e+00 -7.189544433127233347e+00 -7.579997219163896460e+00 -1.719204237586292905e+01
2.132953953769686883e+00 5.000658661949289652e+00 -7.142356573981349044e+00 5.000658661949289652e+00 -3.364127258431877010e+01 -7.534543393935023481e+00 -7.142356573981349044e+00 -7.534543393935023481e+00 -1.713952328478070442e+01
2.110485301525868440e+00 4.951515402854436587e+00 -7.079433279397060907e+00 4.951515402854436587e+00 -3.346569242663677812e+01 -7.479404804807952445e+00 -7.079433279397060907e+00 -7.479404804807952445e+00 -1.701743991815542145e+01
2.104711337525609682e+00 4.896985570315251834e+00 -7.000737655035707441e+00 4.896985570315251834e+00 -3.325259072653777537e+01 -7.414765923475981957e+00 -7.000737655035707441e+00 -7.414765923475981957e+00 -1.682771078159739986e+01
2.114728150471745227e+00 4.837179847347716333e+00 -6.906177465050639341e+00 4.837179847347716333e+00 -3.300353549341480175e+01 -7.340774327293753565e+00 -6.906177465050639341e+00 -7.340774327293753565e+00 -1.657214369770096951e+01
2.968092499321464217e+01 1.310334837257520846e+01 -1.351896421843990503e-01 1.310334837257520846e+01 -3.873371406435863307e+00 8.544425604426679755e+00 -1.351896421843990503e-01 8.544425604426679755e+00 2.142851682623223297e+01
2.949337066557279385e+01 1.312026482858909304e+01 -1.151135543022358126e-01 1.312026482858909304e+01 -3.964929727652660496e+00 8.529869996943590493e+00 -1.151135543022358126e-01 8.529869996943590493e+00 2.106689873398163471e+01
2.926356957474831333e+01 1.311648392079165681e+01 -1.027767894232760604e-01 1.311648392079165681e+01 -4.063002570755182674e+00 8.489966331550926171e+00 -1.027767894232760604e-01 8.489966331550926171e+00 2.062313021315574346e+01
2.899354530519617512e+01 1.309227191029539483e+01 -9.755807161836360653e-02 1.309227191029539483e+01 -4.167021912036770637e+00 8.424838863434519709e+00 -9.755807161836360653e-02 8.424838863434519709e+00 2.010069040895783843e+01
2.868446940581135962e+01 1.304796606117614033e+01 -9.858761458667966715e-02 1.304796606117614033e+01 -4.277626778167415544e+00 8.334736102966029847e+00 -9.858761458667966715e-02 8.334736102966029847e+00 1.950165615806538710e+01
2.833747792400717813e+01 1.298422315084470746e+01 -1.047471216557430140e-01 1.298422315084470746e+01 -4.395899964337931287e+00 8.219906560517122429e+00 -1.047471216557430140e-01 8.219906560517122429e+00 1.882794454048835320e+01
2.795360040275195246e+01 1.290184196263859029e+01 -1.147940409672411621e-01 1.290184196263859029e+01 -4.523226028333295901e+00 8.080616497200292514e+00 -1.147940409672411621e-01 8.080616497200292514e+00 1.808133063031004539e+01
2.753386638501399375e+01 1.280172778434026881e+01 -1.273970669586964310e-01 1.280172778434026881e+01 -4.661309041273479892e+00 7.917061171164703204e+00 -1.273970669586964310e-01 7.917061171164703204e+00 1.726357175087292717e+01
2.707912790635328548e+01 1.268489240817722852e+01 -1.410473866593008052e-01 1.268489240817722852e+01 -4.812119335390949715e+00 7.729524594263680548e+00 -1.410473866593008052e-01 7.729524594263680548e+00 1.637614121366614484e+01
2.659036125751565294e+01 1.255256063526694987e+01 -1.543426915432444535e-01 1.255256063526694987e+01 -4.977715996622339212e+00 7.518131021683060133e+00 -1.543426915432444535e-01 7.518131021683060133e+00 1.542067208684634139e+01
3.205495124864032874e+01 7.586333374443108291e+00 -1.077436600487108009e+01 7.586333374443108291e+00 4.230268463674327251e+01 -1.764214930035392470e+01 -1.077436600487108009e+01 -1.764214930035392470e+01 2.249331628366742208e+01
3.206508046670813172e+01 7.646640379959783296e+00 -1.058727032799205148e+01 7.646640379959783296e+00 4.229494896678053095e+01 -1.764462957121641651e+01 -1.058727032799205148e+01 -1.764462957121641651e+01 2.248218108161343665e+01
3.205316475983727997e+01 7.698691378969142463e+00 -1.037450471491380632e+01 7.698691378969142463e+00 4.225238543743399333e+01 -1.761188305801092824e+01 -1.037450471491380632e+01 -1.761188305801092824e+01 2.238876332731006613e+01
3.201996728829315231e+01 7.742278236853354478e+00 -1.013665888038686624e+01 7.742278236853354478e+00 4.217601737724131539e+01 -1.754396179439191528e+01 -1.013665888038686624e+01 -1.754396179439191528e+01 2.221360070185338031e+01
3.196396173154499465e+01 7.776967339825270997e+00 -9.874131749095406363e+00 7.776967339825270997e+00 4.206473473490741100e+01 -1.744098719221978655e+01 -9.874131749095406363e+00 -1.744098719221978655e+01 2.195530564112449312e+01
3.188426351746701570e+01 7.802463830509628551e+00 -9.587426313032525016e+00 7.802463830509628551e+00 4.191822530850552653e+01 -1.730304597425196178e+01 -9.587426313032525016e+00 -1.730304597425196178e+01 2.161337515313032398e+01
3.178019620855127059e+01 7.818559574288597602e+00 -9.277114942397252761e+00 7.818559574288597602e+00 4.173636768617525661e+01 -1.713036361965776422e+01 -9.277114942397252761e+00 -1.713036361965776422e+01 2.118777454876788724e+01
3.165012941695806958e+01 7.825098470198804890e+00 -8.943735318285655822e+00 7.825098470198804890e+00 4.151832932944527954e+01 -1.692313091850354212e+01 -8.943735318285655822e+00 -1.692313091850354212e+01 2.067730705398466284e+01
3.149290105773786053e+01 7.822011140034303978e+00 -8.587773088139343258e+00 7.822011140034303978e+00 4.126372865818290592e+01 -1.668160803906157952e+01 -8.587773088139343258e+00 -1.668160803906157952e+01 2.008153905499349889e+01
3.130792141614012181e+01 7.809349617449554692e+00 -8.209575142988031260e+00 7.809349617449554692e+00 4.097296459707230554e+01 -1.640600311594970862e+01 -8.209575142988031260e+00 -1.640600311594970862e+01 1.940081744282410625e+01
4.186440999441626509e+00 7.117676705903460688e-01 -2.411600568047638227e+00 7.117676705903460688e-01 4.540830625940996867e+01 1.003632960145326791e+01 -2.411600568047638227e+00 1.003632960145326791e+01 4.493428381055187515e+01
4.112779127227467413e+00 7.493063898112275467e-01 -2.121514348146608331e+00 7.493063898112275467e-01 4.522540112190263528e+01 9.704772533921348199e+00 -2.121514348146608331e+00 9.704772533921348199e+00 4.459192649698712785e+01
4.003116434903895460e+00 7.840489288294364423e-01 -1.826587241269701067e+00 7.840489288294364423e-01 4.493882760338121329e+01 9.333177661112406653e+00 -1.826587241269701067e+00 9.333177661112406653e+00 4.406196296794931300e+01
3.857680112112379156e+00 8.156282889933716973e-01 -1.527098865437183983e+00 8.156282889933716973e-01 4.455178383495250927e+01 8.923816879441117678e+00 -1.527098865437183983e+00 8.923816879441117678e+00 4.334841273247975835e+01
3.676050731822518625e+00 8.437299000302327379e-01 -1.223870598583591818e+00 8.437299000302327379e-01 4.406786989862745685e+01 8.479870843888020815e+00 -1.223870598583591818e+00 8.479870843888020815e+00 4.245632639106955963e+01
3.457581677362444150e+00 8.680741439197522391e-01 -9.180034366637274124e-01 8.680741439197522391e-01 4.349155968273034034e+01 8.004764875201388463e+00 -9.180034366637274124e-01 8.004764875201388463e+00 4.139189049241710450e+01
3.201626332060287794e+00 8.883988787679296673e-01 -6.106682801374598846e-01 8.883988787679296673e-01 4.282813097739369823e+01 7.502116531518428388e+00 -6.106682801374598846e-01 7.502116531518428388e+00 4.016235762892310390e+01
2.907503126991648923e+00 9.045293433120982218e-01 -3.031234100959917521e-01 9.045293433120982218e-01 4.208361304617954346e+01 6.975788036744086540e+00 -3.031234100959917521e-01 6.975788036744086540e+00 3.877634353083702479e+01
2.574687778368526025e+00 9.162907762895904362e-01 3.250559485607061160e-03 9.162907762895904362e-01 4.126466429319550144e+01 6.429624138657032972e+00 3.250559485607061160e-03 6.429624138657032972e+00 3.724335521084796596e+01
2.202673478529184603e+00 9.236307493216063813e-01 3.070205862534668984e-01 9.236307493216063813e-01 4.037860721534730857e+01 5.867522013414744997e+00 3.070205862534668984e-01 5.867522013414744997e+00 3.557426281949381064e+01
9.746459394682755573e+00 -7.943197980351722975e+00 3.686241121891653538e+00 -7.943197980351722975e+00 2.681638445773350909e+01 -4.281854447488711912e+00 3.686241121891653538e+00 -4.281854447488711912e+00 9.066349986916709014e+00
9.880662177336075658e+00 -7.968502566215944327e+00 3.702025520906258471e+00 -7.968502566215944327e+00 2.691386904761182564e+01 -4.235332939630644944e+00 3.702025520906258471e+00 -4.235332939630644944e+00 9.356326384509003447e+00
1.002369502176998672e+01 -7.986428122495983217e+00 3.709227595344536610e+00 -7.986428122495983217e+00 2.700082480630887360e+01 -4.182122527257420508e+00 3.709227595344536610e+00 -4.182122527257420508e+00 9.629226610521595120e+00
1.017407150475889921e+01 -7.996833085075116365e+00 3.708148168954524593e+00 -7.996833085075116365e+00 2.707606613434710141e+01 -4.122010864193955015e+00 3.708148168954524593e+00 -4.122010864193955015e+00 9.881405388948870439e+00
1.033002207484377699e+01 -7.999575889836622267e+00 3.699034978940487051e+00 -7.999575889836622267e+00 2.713823047710305048e+01 -4.055033341469427732e+00 3.699034978940487051e+00 -4.055033341469427732e+00 1.011019069708768647e+01
1.048937018373000285e+01 -7.994603450236731135e+00 3.682100371477508460e+00 -7.994603450236731135e+00 2.718579602032194487e+01 -3.981296132171381341e+00 3.682100371477508460e+00 -3.981296132171381341e+00 1.031253890642849669e+01
1.064962076386033729e+01 -7.981898070760849784e+00 3.657680561342806058e+00 -7.981898070760849784e+00 2.721695782151557808e+01 -3.901100060047852036e+00 3.657680561342806058e+00 -3.901100060047852036e+00 1.048498169611159270e+01
1.080808409701704598e+01 -7.961442055894388581e+00 3.626076372284416482e+00 -7.961442055894388581e+00 2.722978706959359130e+01 -3.814710557817695413e+00 3.626076372284416482e+00 -3.814710557817695413e+00 1.062396226770431085e+01
1.096184042329271868e+01 -7.933341578724890653e+00 3.587553237021194441e+00 -7.933341578724890653e+00 2.722214260729055368e+01 -3.722623099889441622e+00 3.587553237021194441e+00 -3.722623099889441622e+00 1.072539295733627540e+01
1.110795228726535377e+01 -7.897685116825307716e+00 3.542376588271995530e+00 -7.897685116825307716e+00 2.719202484145775500e+01 -3.625280074127850582e+00 3.542376588271995530e+00 -3.625280074127850582e+00 1.078541614282679006e+01
4.544629799285984717e+01 1.001030387973959712e+01 -2.387323127908387477e+01 1.001030387973959712e+01 2.244527467867830239e+01 -9.691718225773902518e+00 -2.387323127908387477e+01 -9.691718225773902518e+00 5.732809594784346530e+01
4.534670648206184040e+01 1.001621609926622725e+01 -2.364906826562828357e+01 1.001621609926622725e+01 2.253776115372938804e+01 -9.914792146158802666e+00 -2.364906826562828357e+01 -9.914792146158802666e+00 5.729815453199515218e+01
4.513473093868307018e+01 9.998877046093097576e+00 -2.334847857811645255e+01 9.998877046093097576e+00 2.255765871125906941e+01 -1.011642994896176972e+01 -2.334847857811645255e+01 -1.011642994896176972e+01 5.702499961754987368e+01
4.481158146613541504e+01 9.958459592136193805e+00 -2.297306992536703518e+01 9.958459592136193805e+00 2.250323863210751441e+01 -1.029664892137439836e+01 -2.297306992536703518e+01 -1.029664892137439836e+01 5.650868306608244751e+01
4.437992029192501775e+01 9.895637937867849843e+00 -2.252524522701219567e+01 9.895637937867849843e+00 2.237311794094685524e+01 -1.045536262743870282e+01 -2.252524522701219567e+01 -1.045536262743870282e+01 5.575216098735615589e+01
4.384299740807237100e+01 9.811449314783963871e+00 -2.200806431596484103e+01 9.811449314783963871e+00 2.216601738559881696e+01 -1.059264021592107063e+01 -2.200806431596484103e+01 -1.059264021592107063e+01 5.475992805118659135e+01
4.320490987898626400e+01 9.707345846978796544e+00 -2.142538223595139968e+01 9.707345846978796544e+00 2.188088244737589960e+01 -1.070887929222826784e+01 -2.142538223595139968e+01 -1.070887929222826784e+01 5.353791376429196447e+01
4.247074013899663214e+01 9.585177263953370996e+00 -2.078171094397903929e+01 9.585177263953370996e+00 2.151709078738056391e+01 -1.080461575929984086e+01 -2.078171094397903929e+01 -1.080461575929984086e+01 5.209427768110670343e+01
4.164664242831245389e+01 9.447225474998667494e+00 -2.008221931033565610e+01 9.447225474998667494e+00 2.107459054403801346e+01 -1.088059296637451823e+01 -2.008221931033565610e+01 -1.088059296637451823e+01 5.043921924467381501e+01
4.073984279302185740e+01 9.295979835704844874e+00 -1.933290599050587488e+01 9.295979835704844874e+00 2.055422878973656609e+01 -1.093767527303221776e+01 -1.933290599050587488e+01 -1.093767527303221776e+01 4.858534081766850221e+01
3.062202962121865113e+01 -9.552044507582056809e+00 -7.427268680641515353e+00 -9.552044507582056809e+00 1.504345414037646833e+01 -2.149034637716435014e+01 -7.427268680641515353e+00 -2.149034637716435014e+01 4.608855658181881410e+01
3.062953451039645003e+01 -9.573824430720433654e+00 -7.524045013815412020e+00 -9.573824430720433654e+00 1.486844502304609072e+01 -2.140915712151358363e+01 -7.524045013815412020e+00 -2.140915712151358363e+01 4.586893798336164707e+01
3.056081841554701839e+01 -9.581294332069901998e+00 -7.602802615396916153e+00 -9.581294332069901998e+00 1.463883739959934616e+01 -2.128718955193867046e+01 -7.602802615396916153e+00 -2.128718955193867046e+01 4.547088146039728684e+01
3.041495415921947654e+01 -9.574751608171304440e+00 -7.663419027986856591e+00 -9.574751608171304440e+00 1.435491117266291639e+01 -2.112533585806215441e+01 -7.663419027986856591e+00 -2.112533585806215441e+01 4.489482436077992844e+01
3.019083962482128669e+01 -9.554108789453806594e+00 -7.705789288100228340e+00 -9.554108789453806594e+00 1.401724364140432044e+01 -2.092454071124907244e+01 -7.705789288100228340e+00 -2.092454071124907244e+01 4.414190378893044908e+01
2.988934950806082114e+01 -9.519890693342428989e+00 -7.730193298363711385e+00 -9.519890693342428989e+00 1.362810901466532165e+01 -2.068531143501027003e+01 -7.730193298363711385e+00 -2.068531143501027003e+01 4.321712300430071707e+01
2.951027388196805745e+01 -9.472639631176360098e+00 -7.736508601378131011e+00 -9.472639631176360098e+00 1.318797962812843672e+01 -2.040880262768080655e+01 -7.736508601378131011e+00 -2.040880262768080655e+01 4.212305361227333833e+01
2.905413756396802683e+01 -9.413125335178964548e+00 -7.724735197143491661e+00 -9.413125335178964548e+00 1.269792261055787286e+01 -2.009604643019655157e+01 -7.724735197143491661e+00 -2.009604643019655157e+01 4.086391164616264859e+01
2.852206016456743853e+01 -9.342222501058611073e+00 -7.694925567402290945e+00 -9.342222501058611073e+00 1.215893511506117441e+01 -1.974830240437754725e+01 -7.694925567402290945e+00 -1.974830240437754725e+01 3.944473535324884494e+01
2.791589603866803770e+01 -9.260980763665338955e+00 -7.647237157382037687e+00 -9.260980763665338955e+00 1.157246913651423093e+01 -1.936695256944302912e+01 -7.647237157382037687e+00 -1.936695256944302912e+01 3.787170008523301590e+01
-2.611105324836438513e+01 4.681328010586144117e+00 -1.338303125175858987e+01 4.681328010586144117e+00 5.358032954597788944e+00 -4.546468337906398816e+00 -1.338303125175858987e+01 -4.546468337906398816e+00 8.088827378416958425e+00
-2.608166379421273717e+01 4.727928162454392513e+00 -1.325413333559720108e+01 4.727928162454392513e+00 5.204959842279397009e+00 -4.591154164287100770e+00 -1.325413333559720108e+01 -4.591154164287100770e+00 7.919655700331874826e+00
-2.603867351326385915e+01 4.769952164823840768e+00 -1.309770559575777682e+01 4.769952164823840768e+00 5.033472741937948136e+00 -4.631172682812454866e+00 -1.309770559575777682e+01 -4.631172682812454866e+00 7.731778327482776270e+00
-2.598213710053168413e+01 4.807381786023181114e+00 -1.291385742226817790e+01 4.807381786023181114e+00 4.845030187278241307e+00 -4.665612309916962630e+00 -1.291385742226817790e+01 -4.665612309916962630e+00 7.525632819981100674e+00
-2.591329430966529301e+01 4.840198794381103120e+00 -1.270300814356853536e+01 4.840198794381103120e+00 4.640215591782193449e+00 -4.693543230363815155e+00 -1.270300814356853536e+01 -4.693543230363815155e+00 7.301693201280909484e+00
-2.583354897935554462e+01 4.868330263212365061e+00 -1.246561355144159577e+01 4.868330263212365061e+00 4.419594137260412836e+00 -4.714163250615375667e+00 -1.246561355144159577e+01 -4.714163250615375667e+00 7.060141788095299908e+00
-2.574488836177522444e+01 4.891721497503039195e+00 -1.220220236435534744e+01 4.891721497503039195e+00 4.183475762125170583e+00 -4.726779567161865536e+00 -1.220220236435534744e+01 -4.726779567161865536e+00 6.800741568697242556e+00
-2.564926324575450423e+01 4.910336033910503772e+00 -1.191326683743516135e+01 4.910336033910503772e+00 3.932115709774804291e+00 -4.730863461535295578e+00 -1.191326683743516135e+01 -4.730863461535295578e+00 6.523054982975299509e+00
-2.554860618845223641e+01 4.924082714078211076e+00 -1.159924453079247542e+01 4.924082714078211076e+00 3.665805686950273312e+00 -4.725940910281607010e+00 -1.159924453079247542e+01 -4.725940910281607010e+00 6.226735629174582343e+00
-2.544537846549526350e+01 4.932925074663540244e+00 -1.126055477286742068e+01 4.932925074663540244e+00 3.384490998637649462e+00 -4.711774901673771332e+00 -1.126055477286742068e+01 -4.711774901673771332e+00 5.910726070359110906e+00