0.000000000000000000e+00 2.032270000000000021e+00 9.584059999999999135e+00 -1.760000000000000009e+00 5.080680000000000085e+00 9.584059999999999135e+00 -3.520000000000000018e+00 8.129089999999999705e+00 9.584059999999999135e+00 3.520000000000000018e+00 2.032270000000000021e+00 9.584059999999999135e+00 1.760000000000000009e+00 5.080680000000000085e+00 9.584059999999999135e+00 0.000000000000000000e+00 8.129089999999999705e+00 9.584059999999999135e+00 7.040000000000000036e+00 2.032270000000000021e+00 9.584059999999999135e+00 5.280000000000000249e+00 5.080680000000000085e+00 9.584059999999999135e+00 3.520000000000000018e+00 8.129089999999999705e+00 9.584059999999999135e+00 0.000000000000000000e+00 5.080700000000000216e-01 1.679731999999999914e+01 -1.760000000000000009e+00 3.556480000000000086e+00 1.679731999999999914e+01 -3.520000000000000018e+00 6.604890000000000150e+00 1.679731999999999914e+01 3.520000000000000018e+00 5.080700000000000216e-01 1.679731999999999914e+01 1.760000000000000009e+00 3.556480000000000086e+00 1.679731999999999914e+01 0.000000000000000000e+00 6.604890000000000150e+00 1.679731999999999914e+01 7.040000000000000036e+00 5.080700000000000216e-01 1.679731999999999914e+01 5.280000000000000249e+00 3.556480000000000086e+00 1.679731999999999914e+01 3.520000000000000018e+00 6.604890000000000150e+00 1.679731999999999914e+01 0.000000000000000000e+00 2.032270000000000021e+00 1.320321999999999996e+01 -1.760000000000000009e+00 5.080680000000000085e+00 1.320321999999999996e+01 -3.520000000000000018e+00 8.129089999999999705e+00 1.320321999999999996e+01 3.520000000000000018e+00 2.032270000000000021e+00 1.320321999999999996e+01 1.760000000000000009e+00 5.080680000000000085e+00 1.320321999999999996e+01 0.000000000000000000e+00 8.129089999999999705e+00 1.320321999999999996e+01 7.040000000000000036e+00 2.032270000000000021e+00 1.320321999999999996e+01 5.280000000000000249e+00 5.080680000000000085e+00 1.320321999999999996e+01 3.520000000000000018e+00 8.129089999999999705e+00 1.320321999999999996e+01 0.000000000000000000e+00 5.080700000000000216e-01 2.041626000000000118e+01 -1.760000000000000009e+00 3.556480000000000086e+00 2.041626000000000118e+01 -3.520000000000000018e+00 6.604890000000000150e+00 2.041626000000000118e+01 3.520000000000000018e+00 5.080700000000000216e-01 2.041626000000000118e+01 1.760000000000000009e+00 3.556480000000000086e+00 2.041626000000000118e+01 0.000000000000000000e+00 6.604890000000000150e+00 2.041626000000000118e+01 7.040000000000000036e+00 5.080700000000000216e-01 2.041626000000000118e+01 5.280000000000000249e+00 3.556480000000000086e+00 2.041626000000000118e+01 3.520000000000000018e+00 6.604890000000000150e+00 2.041626000000000118e+01 0.000000000000000000e+00 0.000000000000000000e+00 1.139376999999999995e+01 -1.760000000000000009e+00 3.048410000000000064e+00 1.139376999999999995e+01 -3.520000000000000018e+00 6.096820000000000128e+00 1.139376999999999995e+01 3.520000000000000018e+00 0.000000000000000000e+00 1.139376999999999995e+01 1.760000000000000009e+00 3.048410000000000064e+00 1.139376999999999995e+01 0.000000000000000000e+00 6.096820000000000128e+00 1.139376999999999995e+01 7.040000000000000036e+00 0.000000000000000000e+00 1.139376999999999995e+01 5.280000000000000249e+00 3.048410000000000064e+00 1.139376999999999995e+01 3.520000000000000018e+00 6.096820000000000128e+00 1.139376999999999995e+01 1.760000000000000009e+00 1.524199999999999999e+00 1.860541999999999874e+01 0.000000000000000000e+00 4.572610000000000063e+00 1.860541999999999874e+01 -1.760000000000000009e+00 7.621019999999999683e+00 1.860541999999999874e+01 5.280000000000000249e+00 1.524199999999999999e+00 1.860541999999999874e+01 3.520000000000000018e+00 4.572610000000000063e+00 1.860541999999999874e+01 1.760000000000000009e+00 7.621019999999999683e+00 1.860541999999999874e+01 8.800000000000000711e+00 1.524199999999999999e+00 1.860541999999999874e+01 7.040000000000000036e+00 4.572610000000000063e+00 1.860541999999999874e+01 5.280000000000000249e+00 7.621019999999999683e+00 1.860541999999999874e+01
-2.200000000000000078e-04 2.030580000000000052e+00 9.584809999999999164e+00 -1.761379999999999946e+00 5.081949999999999967e+00 9.585110000000000241e+00 -3.519620000000000193e+00 8.125489999999999213e+00 9.584459999999999980e+00 3.521329999999999849e+00 2.032509999999999817e+00 9.585100000000000620e+00 1.759449999999999958e+00 5.080040000000000333e+00 9.581839999999999691e+00 -3.000000000000000062e-03 8.130280000000000840e+00 9.583569999999999922e+00 7.039900000000000269e+00 2.031130000000000102e+00 9.585470000000000823e+00 5.282269999999999577e+00 5.080779999999999852e+00 9.584770000000000678e+00 3.519509999999999916e+00 8.128750000000000142e+00 9.583660000000000068e+00 1.160000000000000007e-03 5.083400000000000141e-01 1.679692000000000007e+01 -1.761710000000000109e+00 3.556449999999999889e+00 1.679635000000000034e+01 -3.521760000000000002e+00 6.603270000000000195e+00 1.679466999999999999e+01 3.518959999999999866e+00 5.071099999999999497e-01 1.679742999999999853e+01 1.760450000000000070e+00 3.556109999999999882e+00 1.679598999999999975e+01 -9.499999999999999981e-04 6.606069999999999887e+00 1.679610999999999876e+01 7.038470000000000226e+00 5.062900000000000178e-01 1.679634000000000071e+01 5.280630000000000379e+00 3.557370000000000143e+00 1.679406000000000176e+01 3.518149999999999888e+00 6.603720000000000034e+00 1.679816999999999894e+01 1.700000000000000122e-04 2.032140000000000057e+00 1.320541000000000054e+01 -1.758140000000000036e+00 5.082239999999999647e+00 1.320241000000000042e+01 -3.521419999999999995e+00 8.129210000000000491e+00 1.320158999999999949e+01 3.521669999999999856e+00 2.030860000000000110e+00 1.320443000000000033e+01 1.762559999999999905e+00 5.082239999999999647e+00 1.320223999999999975e+01 4.200000000000000174e-04 8.133749999999999147e+00 1.320603000000000016e+01 7.038979999999999571e+00 2.030310000000000059e+00 1.320114000000000054e+01 5.279309999999999725e+00 5.080230000000000246e+00 1.320481000000000016e+01 3.520599999999999952e+00 8.129170000000000229e+00 1.320532000000000039e+01 1.990000000000000015e-03 5.104699999999999793e-01 2.041847999999999885e+01 -1.758270000000000000e+00 3.556430000000000202e+00 2.041771999999999920e+01 -3.517830000000000013e+00 6.603769999999999918e+00 2.041664000000000101e+01 3.522499999999999964e+00 5.089099999999999735e-01 2.041681000000000168e+01 1.759530000000000038e+00 3.555860000000000021e+00 2.041460000000000008e+01 1.469999999999999953e-03 6.604260000000000019e+00 2.041595999999999833e+01 7.040020000000000167e+00 5.113400000000000167e-01 2.041406999999999883e+01 5.277720000000000411e+00 3.556909999999999794e+00 2.041913999999999874e+01 3.522780000000000022e+00 6.603909999999999947e+00 2.041420000000000101e+01 -5.279410000000000380e+00 9.145020000000000593e+00 1.139218999999999937e+01 -1.760089999999999932e+00 3.049789999999999779e+00 1.139441000000000059e+01 7.038859999999999673e+00 6.095480000000000231e+00 1.139603999999999928e+01 3.519940000000000069e+00 2.569999999999999802e-03 1.139484999999999992e+01 1.759660000000000002e+00 3.047829999999999817e+00 1.139588999999999963e+01 4.600000000000000139e-04 6.095659999999999634e+00 1.139245999999999981e+01 7.041400000000000325e+00 2.670000000000000064e-03 1.139287000000000027e+01 5.286069999999999602e+00 3.046689999999999898e+00 1.139508999999999972e+01 3.522289999999999921e+00 6.097220000000000084e+00 1.139100999999999964e+01 1.759020000000000028e+00 1.523090000000000055e+00 1.860352999999999923e+01 1.399999999999999877e-04 4.573409999999999975e+00 1.860715000000000074e+01 -1.762459999999999916e+00 7.620350000000000179e+00 1.860475999999999885e+01 5.274919999999999831e+00 1.524750000000000050e+00 1.860493999999999915e+01 3.514380000000000059e+00 4.573550000000000004e+00 1.860579999999999856e+01 1.759980000000000100e+00 7.618330000000000268e+00 1.860469000000000150e+01 8.797390000000000043e+00 1.527670000000000083e+00 1.860636999999999830e+01 7.039069999999999716e+00 4.571589999999999598e+00 1.860744000000000042e+01 5.280800000000000161e+00 7.619640000000000413e+00 1.860569999999999879e+01
-4.299999999999999894e-04 2.028890000000000082e+00 9.585570000000000590e+00 -1.762769999999999948e+00 5.083210000000000228e+00 9.586169999999999192e+00 -3.519239999999999924e+00 8.121900000000000119e+00 9.584860000000000824e+00 3.522660000000000124e+00 2.032750000000000057e+00 9.586149999999999949e+00 1.758899999999999908e+00 5.079379999999999562e+00 9.579629999999999868e+00 -5.989999999999999665e-03 8.131470000000000198e+00 9.583090000000000330e+00 7.039810000000000123e+00 2.029980000000000118e+00 9.586869999999999337e+00 5.284530000000000172e+00 5.080869999999999997e+00 9.585470000000000823e+00 3.519019999999999815e+00 8.128399999999999181e+00 9.583259999999999224e+00 2.299999999999999961e-03 5.085899999999999865e-01 1.679653000000000063e+01 -1.763409999999999922e+00 3.556410000000000071e+00 1.679539000000000115e+01 -3.523519999999999985e+00 6.601630000000000109e+00 1.679203000000000046e+01 3.517910000000000093e+00 5.061299999999999688e-01 1.679754000000000147e+01 1.760899999999999910e+00 3.555730000000000057e+00 1.679466000000000037e+01 -1.910000000000000022e-03 6.607230000000000381e+00 1.679489999999999839e+01 7.036950000000000038e+00 5.044899999999999940e-01 1.679536999999999836e+01 5.281250000000000000e+00 3.558240000000000069e+00 1.679082000000000008e+01 3.516309999999999825e+00 6.602549999999999919e+00 1.679902999999999835e+01 3.299999999999999982e-04 2.032020000000000159e+00 1.320759999999999934e+01 -1.756280000000000063e+00 5.083809999999999718e+00 1.320161000000000051e+01 -3.522839999999999971e+00 8.129339999999999122e+00 1.319996000000000080e+01 3.523330000000000073e+00 2.029479999999999951e+00 1.320565000000000033e+01 1.765120000000000022e+00 5.083809999999999718e+00 1.320126999999999917e+01 8.300000000000000086e-04 8.138410000000000366e+00 1.320883000000000074e+01 7.037980000000000125e+00 2.028360000000000163e+00 1.319908000000000037e+01 5.278620000000000090e+00 5.079790000000000028e+00 1.320640000000000036e+01 3.521209999999999951e+00 8.129269999999999996e+00 1.320742000000000083e+01 3.969999999999999571e-03 5.128700000000000481e-01 2.042069000000000045e+01 -1.756550000000000056e+00 3.556389999999999940e+00 2.041918000000000077e+01 -3.515670000000000073e+00 6.602649999999999686e+00 2.041703000000000046e+01 3.524999999999999911e+00 5.097500000000000364e-01 2.041735999999999862e+01 1.759050000000000002e+00 3.555250000000000021e+00 2.041293999999999897e+01 2.929999999999999879e-03 6.603650000000000020e+00 2.041565999999999903e+01 7.040029999999999788e+00 5.145999999999999464e-01 2.041188000000000002e+01 5.275439999999999685e+00 3.557339999999999947e+00 2.042200000000000060e+01 3.525560000000000027e+00 6.602929999999999744e+00 2.041215000000000046e+01 -5.278830000000000133e+00 9.144809999999999661e+00 1.139062000000000019e+01 -1.760170000000000012e+00 3.051159999999999872e+00 1.139503999999999984e+01 7.037729999999999819e+00 6.094149999999999956e+00 1.139831000000000039e+01 3.519880000000000120e+00 5.130000000000000011e-03 1.139592000000000027e+01 1.759319999999999995e+00 3.047260000000000080e+00 1.139799999999999969e+01 9.300000000000000541e-04 6.094540000000000290e+00 1.139115999999999929e+01 7.042790000000000106e+00 5.320000000000000076e-03 1.139198000000000022e+01 5.292110000000000092e+00 3.044999999999999929e+00 1.139639999999999986e+01 3.524570000000000203e+00 6.097620000000000040e+00 1.138826000000000072e+01 1.758049999999999891e+00 1.521980000000000111e+00 1.860165999999999897e+01 2.700000000000000035e-04 4.574200000000000266e+00 1.860885000000000034e+01 -1.764909999999999979e+00 7.619670000000000165e+00 1.860409999999999897e+01 5.269870000000000054e+00 1.525290000000000035e+00 1.860444999999999993e+01 3.508809999999999985e+00 4.574460000000000193e+00 1.860615999999999914e+01 1.759959999999999969e+00 7.615639999999999965e+00 1.860397000000000034e+01 8.794800000000000395e+00 1.531109999999999971e+00 1.860732000000000141e+01 7.038140000000000285e+00 4.570560000000000400e+00 1.860944999999999894e+01 5.281600000000000072e+00 7.618260000000000254e+00 1.860597999999999885e+01
-6.499999999999999702e-04 2.027210000000000178e+00 9.586320000000000618e+00 -1.764150000000000107e+00 5.084459999999999980e+00 9.587220000000000297e+00 -3.518860000000000099e+00 8.118320000000000647e+00 9.585259999999999891e+00 3.523989999999999956e+00 2.032989999999999853e+00 9.587199999999999278e+00 1.758350000000000080e+00 5.078730000000000189e+00 9.577429999999999666e+00 -8.970000000000000542e-03 8.132649999999999935e+00 9.582620000000000360e+00 7.039740000000000109e+00 2.028849999999999820e+00 9.588240000000000762e+00 5.286789999999999878e+00 5.080949999999999633e+00 9.586169999999999192e+00 3.518539999999999779e+00 8.128069999999999240e+00 9.582850000000000534e+00 3.429999999999999889e-03 5.088200000000000500e-01 1.679615000000000080e+01 -1.765099999999999891e+00 3.556360000000000188e+00 1.679444000000000159e+01 -3.525279999999999969e+00 6.599980000000000402e+00 1.678941000000000017e+01 3.516869999999999941e+00 5.051400000000000334e-01 1.679764000000000124e+01 1.761330000000000062e+00 3.555330000000000101e+00 1.679334000000000060e+01 -2.870000000000000155e-03 6.608360000000000234e+00 1.679370000000000118e+01 7.035420000000000229e+00 5.026899999999999702e-01 1.679440999999999917e+01 5.281850000000000378e+00 3.559099999999999930e+00 1.678761000000000081e+01 3.514470000000000205e+00 6.601359999999999673e+00 1.679986999999999853e+01 4.899999999999999842e-04 2.031909999999999883e+00 1.320977000000000068e+01 -1.754429999999999934e+00 5.085390000000000299e+00 1.320082000000000022e+01 -3.524249999999999883e+00 8.129500000000000171e+00 1.319833999999999996e+01 3.524999999999999911e+00 2.028119999999999923e+00 1.320686000000000071e+01 1.767679999999999918e+00 5.085390000000000299e+00 1.320029000000000075e+01 1.260000000000000052e-03 8.143069999999999808e+00 1.321160000000000068e+01 7.036999999999999922e+00 2.026450000000000085e+00 1.319705000000000084e+01 5.277940000000000076e+00 5.079360000000000319e+00 1.320797999999999917e+01 3.521809999999999885e+00 8.129390000000000782e+00 1.320949000000000062e+01 5.930000000000000375e-03 5.152600000000000513e-01 2.042286999999999964e+01 -1.754839999999999955e+00 3.556360000000000188e+00 2.042063999999999879e+01 -3.513520000000000199e+00 6.601539999999999964e+00 2.041741999999999990e+01 3.527470000000000105e+00 5.105800000000000338e-01 2.041790999999999912e+01 1.758569999999999967e+00 3.554619999999999891e+00 2.041130000000000067e+01 4.389999999999999805e-03 6.603040000000000020e+00 2.041536999999999935e+01 7.040020000000000167e+00 5.178399999999999670e-01 2.040968000000000160e+01 5.273150000000000226e+00 3.557770000000000099e+00 2.042484999999999928e+01 3.528319999999999901e+00 6.601960000000000051e+00 2.041010999999999953e+01 -5.278270000000000017e+00 9.144610000000000127e+00 1.138907000000000025e+01 -1.760250000000000092e+00 3.052519999999999900e+00 1.139567000000000085e+01 7.036609999999999587e+00 6.092839999999999812e+00 1.140057000000000009e+01 3.519810000000000105e+00 7.649999999999999682e-03 1.139699000000000062e+01 1.758999999999999897e+00 3.046699999999999964e+00 1.140008000000000088e+01 1.410000000000000012e-03 6.093460000000000321e+00 1.138987999999999978e+01 7.044170000000000265e+00 7.939999999999999142e-03 1.139109999999999978e+01 5.298070000000000057e+00 3.043330000000000091e+00 1.139769000000000077e+01 3.526819999999999844e+00 6.098029999999999617e+00 1.138555000000000028e+01 1.757100000000000106e+00 1.520869999999999944e+00 1.859982000000000113e+01 3.899999999999999929e-04 4.574959999999999916e+00 1.861051000000000144e+01 -1.767330000000000068e+00 7.618979999999999642e+00 1.860344999999999871e+01 5.264870000000000161e+00 1.525830000000000020e+00 1.860395000000000110e+01 3.503309999999999924e+00 4.575339999999999741e+00 1.860651000000000010e+01 1.759929999999999994e+00 7.612989999999999924e+00 1.860326999999999842e+01 8.792260000000000630e+00 1.534510000000000041e+00 1.860822999999999894e+01 7.037209999999999965e+00 4.569530000000000314e+00 1.861142999999999859e+01 5.282399999999999984e+00 7.616900000000000226e+00 1.860623999999999967e+01
-8.599999999999999789e-04 2.025549999999999962e+00 9.587080000000000268e+00 -1.765519999999999978e+00 5.085700000000000109e+00 9.588260000000000005e+00 -3.518470000000000208e+00 8.114760000000000417e+00 9.585670000000000357e+00 3.525319999999999787e+00 2.033249999999999780e+00 9.588260000000000005e+00 1.757819999999999938e+00 5.078059999999999796e+00 9.575250000000000483e+00 -1.192999999999999963e-02 8.133829999999999671e+00 9.582169999999999632e+00 7.039679999999999715e+00 2.027730000000000032e+00 9.589579999999999771e+00 5.289049999999999585e+00 5.081010000000000026e+00 9.586859999999999715e+00 3.518060000000000187e+00 8.127739999999999299e+00 9.582430000000000447e+00 4.519999999999999712e-03 5.090299999999999825e-01 1.679579000000000022e+01 -1.766790000000000083e+00 3.556309999999999860e+00 1.679351000000000127e+01 -3.527029999999999887e+00 6.598300000000000054e+00 1.678680999999999912e+01 3.515810000000000102e+00 5.041200000000000125e-01 1.679772000000000176e+01 1.761740000000000084e+00 3.554920000000000080e+00 1.679201000000000121e+01 -3.840000000000000097e-03 6.609469999999999956e+00 1.679251000000000005e+01 7.033890000000000420e+00 5.008899999999999464e-01 1.679347999999999885e+01 5.282420000000000115e+00 3.559950000000000170e+00 1.678444000000000003e+01 3.512659999999999894e+00 6.600159999999999805e+00 1.680069999999999908e+01 6.400000000000000524e-04 2.031820000000000181e+00 1.321193000000000062e+01 -1.752569999999999961e+00 5.086990000000000123e+00 1.320003999999999955e+01 -3.525650000000000173e+00 8.129670000000000840e+00 1.319674999999999976e+01 3.526660000000000128e+00 2.026809999999999778e+00 1.320808000000000071e+01 1.770229999999999970e+00 5.086990000000000123e+00 1.319931000000000054e+01 1.680000000000000070e-03 8.147700000000000387e+00 1.321432000000000073e+01 7.036059999999999981e+00 2.024560000000000137e+00 1.319506999999999941e+01 5.277250000000000441e+00 5.078949999999999854e+00 1.320955999999999975e+01 3.522419999999999884e+00 8.129519999999999413e+00 1.321152000000000015e+01 7.870000000000000259e-03 5.176300000000000345e-01 2.042502999999999957e+01 -1.753139999999999921e+00 3.556340000000000057e+00 2.042210999999999999e+01 -3.511379999999999946e+00 6.600430000000000241e+00 2.041780999999999935e+01 3.529900000000000038e+00 5.113999999999999657e-01 2.041844999999999999e+01 1.758089999999999931e+00 3.553990000000000204e+00 2.040968000000000160e+01 5.830000000000000113e-03 6.602439999999999642e+00 2.041507999999999967e+01 7.040000000000000036e+00 5.210599999999999676e-01 2.040748999999999924e+01 5.270850000000000257e+00 3.558199999999999807e+00 2.042765999999999948e+01 3.531060000000000088e+00 6.601009999999999600e+00 2.040811000000000064e+01 -5.277730000000000032e+00 9.144420000000000215e+00 1.138757000000000019e+01 -1.760320000000000107e+00 3.053859999999999797e+00 1.139630999999999972e+01 7.035519999999999996e+00 6.091549999999999798e+00 1.140282000000000018e+01 3.519740000000000091e+00 1.013999999999999971e-02 1.139803999999999995e+01 1.758709999999999996e+00 3.046170000000000044e+00 1.140212999999999965e+01 1.889999999999999970e-03 6.092469999999999608e+00 1.138864000000000054e+01 7.045530000000000292e+00 1.047999999999999973e-02 1.139024999999999999e+01 5.303919999999999746e+00 3.041710000000000136e+00 1.139897000000000027e+01 3.529049999999999798e+00 6.098429999999999573e+00 1.138288000000000011e+01 1.756189999999999918e+00 1.519779999999999909e+00 1.859800999999999860e+01 4.899999999999999842e-04 4.575700000000000323e+00 1.861207999999999885e+01 -1.769709999999999894e+00 7.618290000000000006e+00 1.860279999999999845e+01 5.259929999999999772e+00 1.526389999999999914e+00 1.860342999999999947e+01 3.497920000000000140e+00 4.576170000000000293e+00 1.860681999999999903e+01 1.759910000000000085e+00 7.610380000000000145e+00 1.860257999999999967e+01 8.789780000000000371e+00 1.537860000000000005e+00 1.860910000000000153e+01 7.036290000000000155e+00 4.568500000000000227e+00 1.861336999999999975e+01 5.283210000000000406e+00 7.615549999999999820e+00 1.860650000000000048e+01
-1.059999999999999961e-03 2.023919999999999941e+00 9.587830000000000297e+00 -1.766899999999999915e+00 5.086929999999999730e+00 9.589280000000000470e+00 -3.518069999999999808e+00 8.111230000000000828e+00 9.586080000000000823e+00 3.526650000000000063e+00 2.033529999999999838e+00 9.589339999999999975e+00 1.757300000000000084e+00 5.077379999999999782e+00 9.573090000000000543e+00 -1.486999999999999954e-02 8.135009999999999408e+00 9.581730000000000302e+00 7.039670000000000094e+00 2.026629999999999932e+00 9.590870000000000672e+00 5.291310000000000180e+00 5.081050000000000288e+00 9.587540000000000617e+00 3.517580000000000151e+00 8.127420000000000755e+00 9.581989999999999341e+00 5.559999999999999838e-03 5.092100000000000515e-01 1.679543999999999926e+01 -1.768459999999999921e+00 3.556270000000000042e+00 1.679260000000000019e+01 -3.528779999999999806e+00 6.596599999999999575e+00 1.678424000000000049e+01 3.514749999999999819e+00 5.030900000000000372e-01 1.679776999999999987e+01 1.762110000000000065e+00 3.554489999999999927e+00 1.679069000000000145e+01 -4.810000000000000039e-03 6.610529999999999795e+00 1.679132999999999853e+01 7.032350000000000101e+00 4.990999999999999881e-01 1.679258000000000095e+01 5.282960000000000100e+00 3.560779999999999834e+00 1.678134000000000015e+01 3.510860000000000092e+00 6.598959999999999937e+00 1.680151000000000039e+01 7.799999999999999859e-04 2.031740000000000101e+00 1.321406999999999954e+01 -1.750729999999999897e+00 5.088589999999999947e+00 1.319929999999999914e+01 -3.527050000000000018e+00 8.129870000000000374e+00 1.319516999999999918e+01 3.528319999999999901e+00 2.025549999999999962e+00 1.320928999999999931e+01 1.772769999999999957e+00 5.088610000000000078e+00 1.319832000000000072e+01 2.109999999999999896e-03 8.152309999999999945e+00 1.321700000000000053e+01 7.035169999999999924e+00 2.022710000000000008e+00 1.319314999999999927e+01 5.276570000000000427e+00 5.078549999999999898e+00 1.321113000000000071e+01 3.523029999999999884e+00 8.129680000000000462e+00 1.321350999999999942e+01 9.790000000000000091e-03 5.199799999999999978e-01 2.042714000000000141e+01 -1.751460000000000017e+00 3.556340000000000057e+00 2.042358000000000118e+01 -3.509259999999999824e+00 6.599319999999999631e+00 2.041820999999999842e+01 3.532290000000000152e+00 5.121999999999999886e-01 2.041899000000000086e+01 1.757589999999999986e+00 3.553339999999999943e+00 2.040809000000000140e+01 7.250000000000000368e-03 6.601869999999999905e+00 2.041479999999999961e+01 7.039959999999999773e+00 5.242400000000000393e-01 2.040530000000000044e+01 5.268539999999999779e+00 3.558629999999999960e+00 2.043043000000000120e+01 3.533770000000000078e+00 6.600069999999999659e+00 2.040614000000000061e+01 -5.277219999999999800e+00 9.144220000000000681e+00 1.138612000000000002e+01 -1.760380000000000056e+00 3.055149999999999810e+00 1.139694000000000074e+01 7.034460000000000157e+00 6.090279999999999916e+00 1.140504999999999924e+01 3.519639999999999880e+00 1.255999999999999998e-02 1.139907000000000004e+01 1.758440000000000003e+00 3.045650000000000190e+00 1.140413999999999994e+01 2.390000000000000197e-03 6.091560000000000308e+00 1.138743999999999978e+01 7.046859999999999680e+00 1.293000000000000052e-02 1.138941999999999943e+01 5.309630000000000294e+00 3.040150000000000130e+00 1.140023000000000053e+01 3.531229999999999869e+00 6.098830000000000418e+00 1.138026999999999944e+01 1.755319999999999991e+00 1.518710000000000004e+00 1.859625000000000128e+01 5.500000000000000331e-04 4.576399999999999579e+00 1.861355999999999966e+01 -1.772040000000000060e+00 7.617600000000000371e+00 1.860216000000000136e+01 5.255090000000000039e+00 1.526969999999999938e+00 1.860288999999999859e+01 3.492669999999999941e+00 4.576939999999999564e+00 1.860708999999999946e+01 1.759889999999999954e+00 7.607850000000000001e+00 1.860191000000000017e+01 8.787380000000000635e+00 1.541130000000000111e+00 1.860991999999999891e+01 7.035370000000000346e+00 4.567470000000000141e+00 1.861526999999999887e+01 5.284019999999999939e+00 7.614239999999999675e+00 1.860675000000000168e+01
-1.270000000000000078e-03 2.022310000000000052e+00 9.588570000000000704e+00 -1.768259999999999943e+00 5.088140000000000107e+00 9.590299999999999159e+00 -3.517659999999999787e+00 8.107720000000000482e+00 9.586499999999999133e+00 3.527979999999999894e+00 2.033830000000000027e+00 9.590419999999999945e+00 1.756790000000000074e+00 5.076690000000000147e+00 9.570959999999999468e+00 -1.778000000000000067e-02 8.136179999999999524e+00 9.581319999999999837e+00 7.039690000000000225e+00 2.025549999999999962e+00 9.592109999999999914e+00 5.293569999999999887e+00 5.081050000000000288e+00 9.588210000000000122e+00 3.517119999999999802e+00 8.127119999999999678e+00 9.581530000000000769e+00 6.550000000000000266e-03 5.093800000000000550e-01 1.679511000000000109e+01 -1.770119999999999916e+00 3.556220000000000159e+00 1.679170999999999836e+01 -3.530530000000000168e+00 6.594879999999999853e+00 1.678171000000000035e+01 3.513679999999999914e+00 5.020400000000000418e-01 1.679779999999999873e+01 1.762440000000000007e+00 3.554050000000000153e+00 1.678937000000000168e+01 -5.790000000000000008e-03 6.611559999999999881e+00 1.679017999999999944e+01 7.030809999999999782e+00 4.973000000000000198e-01 1.679172000000000153e+01 5.283459999999999823e+00 3.561599999999999877e+00 1.677831000000000117e+01 3.509079999999999977e+00 6.597749999999999559e+00 1.680229999999999890e+01 9.200000000000000278e-04 2.031670000000000087e+00 1.321617999999999959e+01 -1.748879999999999990e+00 5.090209999999999901e+00 1.319857999999999976e+01 -3.528420000000000112e+00 8.130089999999999151e+00 1.319361999999999924e+01 3.529980000000000118e+00 2.024350000000000094e+00 1.321049999999999969e+01 1.775309999999999944e+00 5.090239999999999654e+00 1.319731999999999950e+01 2.550000000000000183e-03 8.156890000000000640e+00 1.321960999999999942e+01 7.034349999999999881e+00 2.020900000000000141e+00 1.319130000000000003e+01 5.275879999999999903e+00 5.078149999999999942e+00 1.321269000000000027e+01 3.523639999999999883e+00 8.129849999999999355e+00 1.321545000000000059e+01 1.166999999999999982e-02 5.222999999999999865e-01 2.042920000000000158e+01 -1.749789999999999957e+00 3.556350000000000122e+00 2.042507000000000161e+01 -3.507169999999999899e+00 6.598220000000000418e+00 2.041863000000000028e+01 3.534629999999999939e+00 5.129700000000000371e-01 2.041950999999999894e+01 1.757069999999999910e+00 3.552680000000000060e+00 2.040653000000000006e+01 8.649999999999999703e-03 6.601309999999999789e+00 2.041451999999999956e+01 7.039889999999999759e+00 5.273700000000000054e-01 2.040311000000000163e+01 5.266210000000000058e+00 3.559070000000000178e+00 2.043315000000000126e+01 3.536449999999999871e+00 6.599140000000000228e+00 2.040420999999999907e+01 -5.276760000000000339e+00 9.144040000000000390e+00 1.138472999999999935e+01 -1.760420000000000096e+00 3.056410000000000071e+00 1.139756999999999998e+01 7.033439999999999692e+00 6.089039999999999786e+00 1.140726000000000084e+01 3.519530000000000047e+00 1.490999999999999964e-02 1.140008000000000088e+01 1.758210000000000051e+00 3.045150000000000023e+00 1.140610999999999997e+01 2.909999999999999826e-03 6.090770000000000017e+00 1.138630000000000031e+01 7.048160000000000203e+00 1.527000000000000059e-02 1.138861999999999952e+01 5.315170000000000172e+00 3.038660000000000139e+00 1.140146000000000015e+01 3.533360000000000056e+00 6.099219999999999864e+00 1.137775000000000070e+01 1.754510000000000014e+00 1.517670000000000075e+00 1.859456000000000131e+01 5.800000000000000034e-04 4.577060000000000350e+00 1.861492000000000147e+01 -1.774319999999999897e+00 7.616900000000000226e+00 1.860153000000000034e+01 5.250350000000000072e+00 1.527570000000000094e+00 1.860230999999999923e+01 3.487600000000000033e+00 4.577650000000000219e+00 1.860730999999999824e+01 1.759859999999999980e+00 7.605400000000000382e+00 1.860126999999999953e+01 8.785069999999999268e+00 1.544310000000000072e+00 1.861066999999999894e+01 7.034460000000000157e+00 4.566440000000000055e+00 1.861711000000000027e+01 5.284830000000000361e+00 7.612960000000000171e+00 1.860697000000000045e+01