-5.000000000000000409e-06 -3.165999999999999977e-03 -3.324000000000000132e-03 -3.000000000000000076e-06 -3.167000000000000110e-03 -3.324000000000000132e-03 0.000000000000000000e+00 -3.165999999999999977e-03 -3.325999999999999963e-03 9.999999999999999547e-07 -3.165999999999999977e-03 -3.321999999999999866e-03 3.000000000000000076e-06 -3.164000000000000146e-03 -3.321000000000000167e-03 1.999999999999999909e-06 -3.164999999999999845e-03 -3.318999999999999902e-03 0.000000000000000000e+00 -3.167000000000000110e-03 -3.322999999999999999e-03 0.000000000000000000e+00 -3.167000000000000110e-03 -3.321999999999999866e-03 -3.999999999999999819e-06 -3.164999999999999845e-03 -3.321999999999999866e-03 -1.999999999999999909e-06 -5.364200000000000218e-02 -5.139000000000000339e-03 9.999999999999999547e-07 -5.364499999999999824e-02 -5.139000000000000339e-03 9.999999999999999547e-07 -5.364399999999999724e-02 -5.140999999999999737e-03 0.000000000000000000e+00 -5.364100000000000118e-02 -5.138000000000000206e-03 3.000000000000000076e-06 -5.363899999999999918e-02 -5.138000000000000206e-03 9.999999999999999547e-07 -5.364499999999999824e-02 -5.139999999999999604e-03 0.000000000000000000e+00 -5.364100000000000118e-02 -5.141999999999999869e-03 -5.000000000000000409e-06 -5.364200000000000218e-02 -5.137000000000000073e-03 -3.000000000000000076e-06 -5.364399999999999724e-02 -5.140999999999999737e-03 -9.999999999999999547e-07 5.596299999999999886e-02 4.856000000000000073e-03 -1.999999999999999909e-06 5.595800000000000080e-02 4.856000000000000073e-03 9.999999999999999547e-07 5.596000000000000280e-02 4.856000000000000073e-03 0.000000000000000000e+00 5.596099999999999686e-02 4.853999999999999808e-03 3.000000000000000076e-06 5.596099999999999686e-02 4.852999999999999675e-03 3.000000000000000076e-06 5.596199999999999786e-02 4.854999999999999941e-03 9.999999999999999547e-07 5.596099999999999686e-02 4.854999999999999941e-03 -3.999999999999999819e-06 5.596299999999999886e-02 4.856000000000000073e-03 -1.999999999999999909e-06 5.595900000000000180e-02 4.852000000000000410e-03 -3.999999999999999819e-06 -8.000000000000000654e-05 2.543000000000000121e-03 9.999999999999999547e-07 -8.000000000000000654e-05 2.544999999999999953e-03 0.000000000000000000e+00 -7.899999999999999579e-05 2.543000000000000121e-03 1.999999999999999909e-06 -8.100000000000000375e-05 2.543999999999999821e-03 9.999999999999999547e-07 -7.700000000000000139e-05 2.543000000000000121e-03 9.999999999999999547e-07 -7.899999999999999579e-05 2.543000000000000121e-03 9.999999999999999547e-07 -8.100000000000000375e-05 2.546999999999999785e-03 -1.999999999999999909e-06 -8.000000000000000654e-05 2.544999999999999953e-03 1.999999999999999909e-06 -8.100000000000000375e-05 2.543999999999999821e-03 -3.000000000000000076e-06 1.739699999999999927e-02 2.108000000000000065e-03 1.999999999999999909e-06 1.739500000000000074e-02 2.105000000000000100e-03 -3.000000000000000076e-06 1.739500000000000074e-02 2.105000000000000100e-03 3.999999999999999819e-06 1.740099999999999980e-02 2.102999999999999835e-03 -9.999999999999999547e-07 1.739800000000000027e-02 2.108000000000000065e-03 1.999999999999999909e-06 1.739699999999999927e-02 2.105999999999999799e-03 -9.999999999999999547e-07 1.739699999999999927e-02 2.105000000000000100e-03 9.999999999999999547e-07 1.739699999999999927e-02 2.106999999999999932e-03 5.000000000000000409e-06 1.739599999999999827e-02 2.108000000000000065e-03 3.000000000000000076e-06 -1.656200000000000033e-02 -1.307999999999999918e-03 3.000000000000000076e-06 -1.656499999999999986e-02 -1.302999999999999905e-03 9.999999999999999547e-07 -1.656300000000000133e-02 -1.301999999999999989e-03 -1.999999999999999909e-06 -1.656300000000000133e-02 -1.307999999999999918e-03 -1.999999999999999909e-06 -1.656300000000000133e-02 -1.306000000000000086e-03 0.000000000000000000e+00 -1.656900000000000039e-02 -1.304000000000000038e-03 0.000000000000000000e+00 -1.656399999999999886e-02 -1.304000000000000038e-03 -6.000000000000000152e-06 -1.656499999999999986e-02 -1.306000000000000086e-03 -1.999999999999999909e-06 -1.656300000000000133e-02 -1.304000000000000038e-03
3.429000000000000190e-03 1.814400000000000041e-02 -4.764000000000000005e-03 4.865000000000000401e-03 -1.447599999999999928e-02 -1.238200000000000064e-02 5.838000000000000307e-03 2.154199999999999865e-02 2.239999999999999804e-03 -1.551999999999999994e-03 1.201499999999999964e-02 7.008999999999999606e-03 1.013099999999999938e-02 -1.276300000000000004e-02 1.966700000000000045e-02 2.318100000000000022e-02 -6.023999999999999841e-03 1.551899999999999981e-02 2.647899999999999907e-02 1.345099999999999942e-02 -4.216799999999999715e-02 -3.425000000000000093e-03 -2.385200000000000167e-02 -1.252999999999999947e-02 5.725000000000000054e-03 7.302999999999999596e-03 -1.532200000000000055e-02 -3.822600000000000303e-02 -5.850000000000000339e-02 1.266499999999999918e-02 1.177199999999999948e-02 -3.859300000000000230e-02 1.592899999999999872e-02 5.143000000000000002e-03 -5.892499999999999821e-02 2.344100000000000003e-02 -6.504000000000000233e-03 -5.547099999999999947e-02 -2.298100000000000143e-02 -2.767800000000000121e-02 -5.204799999999999705e-02 -1.111000000000000008e-03 -6.002000000000000390e-03 -7.195100000000000107e-02 9.766999999999999640e-03 -2.331999999999999872e-03 -3.643500000000000211e-02 2.467799999999999855e-02 -3.029000000000000095e-02 -5.237300000000000288e-02 5.162699999999999928e-02 1.752099999999999838e-02 -4.467800000000000243e-02 -1.909399999999999986e-02 -7.785000000000000253e-03 5.235999999999999682e-02 -1.551199999999999975e-02 -5.174999999999999913e-03 4.902800000000000213e-02 2.429299999999999862e-02 1.073600000000000075e-02 5.993600000000000316e-02 2.255400000000000113e-02 -1.789000000000000009e-03 8.382499999999999674e-02 1.188000000000000037e-03 -8.068999999999999784e-03 5.320600000000000329e-02 -1.196999999999999930e-03 4.508999999999999987e-03 1.408200000000000077e-02 -4.478499999999999842e-02 4.204700000000000104e-02 7.294000000000000483e-02 5.489999999999999741e-02 1.410999999999999928e-03 5.089500000000000274e-02 -4.124000000000000062e-03 1.639999999999999965e-03 5.734000000000000208e-02 -3.675599999999999701e-02 -2.557800000000000004e-02 -1.987299999999999831e-02 -3.534500000000000142e-02 -1.567800000000000096e-02 1.285000000000000031e-02 7.335999999999999639e-03 -1.837400000000000144e-02 4.226999999999999855e-03 8.555999999999999370e-03 -3.966999999999999693e-02 -1.600400000000000086e-02 -4.759000000000000209e-03 -9.265000000000000666e-03 -1.056299999999999947e-02 2.785899999999999835e-02 -1.633000000000000076e-02 1.583800000000000138e-02 7.721000000000000432e-03 -1.950800000000000103e-02 -3.292300000000000088e-02 2.697999999999999877e-03 -1.171099999999999919e-02 1.183999999999999940e-03 -3.496300000000000102e-02 -2.468400000000000108e-02 1.403000000000000080e-02 3.268800000000000178e-02 -2.075400000000000161e-02 1.582799999999999832e-02 3.622999999999999832e-02 6.787999999999999763e-03 -1.062800000000000029e-02 9.700000000000000505e-04 2.075799999999999867e-02 2.884700000000000111e-02 -9.901999999999999344e-03 -8.958000000000000684e-03 -2.686600000000000099e-02 -1.031900000000000005e-02 2.006099999999999897e-02 2.623599999999999891e-02 -2.626600000000000115e-02 8.522999999999999327e-03 7.537299999999999556e-02 3.171700000000000214e-02 -1.719100000000000142e-02 -4.514300000000000257e-02 1.901900000000000118e-02 -9.325700000000000656e-02 4.969400000000000206e-02 -1.322399999999999964e-02 -2.854900000000000146e-02 9.886000000000000690e-03 4.300299999999999956e-02 2.909000000000000127e-02 1.618000000000000081e-03 3.282899999999999707e-02 -1.911900000000000058e-02 -3.512900000000000050e-02 -6.484600000000000086e-02 3.333699999999999858e-02 -1.482400000000000037e-02 4.342999999999999639e-03 5.974899999999999656e-02 -1.513999999999999938e-03 -1.780299999999999938e-02 9.599599999999999800e-02 -5.119200000000000139e-02 -2.872299999999999853e-02 -2.939999999999999905e-04 3.231099999999999944e-02 1.410499999999999948e-02 5.333199999999999746e-02 -6.106000000000000316e-02 -3.612200000000000133e-02 4.499999999999999660e-03 -1.043799999999999936e-02 -3.262700000000000322e-02 1.417999999999999990e-03 7.359000000000000090e-03 -9.426000000000000351e-03
6.871000000000000371e-03 3.948999999999999733e-02 -6.308000000000000239e-03 9.794999999999999887e-03 -2.569899999999999962e-02 -2.133799999999999933e-02 1.140000000000000041e-02 4.609900000000000109e-02 7.607000000000000046e-03 -3.204999999999999950e-03 2.712399999999999881e-02 1.701099999999999834e-02 2.010599999999999887e-02 -2.208200000000000093e-02 4.242699999999999944e-02 4.611799999999999927e-02 -8.935000000000000234e-03 3.395000000000000101e-02 5.297700000000000325e-02 3.017099999999999990e-02 -8.146299999999999375e-02 -6.873999999999999902e-03 -4.422500000000000042e-02 -2.196299999999999988e-02 1.144399999999999931e-02 1.776300000000000101e-02 -2.729399999999999882e-02 -7.586400000000000088e-02 -6.346699999999999564e-02 2.973200000000000148e-02 2.322700000000000112e-02 -2.377200000000000146e-02 3.641699999999999798e-02 1.022099999999999918e-02 -6.382300000000000473e-02 5.169200000000000184e-02 -1.296899999999999963e-02 -5.728400000000000158e-02 -4.087699999999999667e-02 -5.506099999999999883e-02 -5.054199999999999665e-02 2.560000000000000209e-03 -1.191599999999999951e-02 -8.989600000000000368e-02 2.438299999999999843e-02 -4.591999999999999728e-03 -1.935900000000000121e-02 5.388500000000000234e-02 -5.972299999999999831e-02 -5.143500000000000155e-02 1.068800000000000028e-01 3.500799999999999745e-02 -3.568600000000000244e-02 -3.329300000000000315e-02 -1.539199999999999943e-02 4.886499999999999871e-02 -3.563100000000000295e-02 -1.026000000000000002e-02 4.203899999999999998e-02 4.368099999999999761e-02 2.140399999999999942e-02 6.384499999999999897e-02 4.036300000000000304e-02 -3.779999999999999940e-03 1.115740000000000065e-01 -2.103999999999999967e-03 -1.612600000000000144e-02 5.029399999999999843e-02 -7.198000000000000405e-03 8.866000000000000617e-03 -2.675900000000000153e-02 -9.295699999999999796e-02 8.450299999999999478e-02 8.962399999999999534e-02 1.058059999999999973e-01 2.768000000000000061e-03 4.585899999999999699e-02 -1.290200000000000027e-02 3.285000000000000159e-03 5.864899999999999974e-02 -7.760799999999999643e-02 -5.069300000000000195e-02 -3.945800000000000002e-02 -7.233100000000000640e-02 -3.119699999999999904e-02 2.567600000000000091e-02 1.212599999999999963e-02 -3.666400000000000214e-02 8.434999999999999790e-03 1.463700000000000070e-02 -7.907799999999999552e-02 -3.207299999999999734e-02 -1.140099999999999968e-02 -1.867800000000000016e-02 -2.108399999999999858e-02 5.330800000000000122e-02 -3.245300000000000268e-02 3.153899999999999759e-02 1.308499999999999941e-02 -3.916000000000000036e-02 -6.536799999999999555e-02 3.298999999999999849e-03 -2.300400000000000014e-02 2.360999999999999818e-03 -7.174800000000000622e-02 -4.930400000000000060e-02 2.806499999999999967e-02 6.299899999999999944e-02 -4.132999999999999868e-02 1.415199999999999965e-02 6.977099999999999969e-02 1.363400000000000029e-02 -3.844800000000000301e-02 -2.090000000000000115e-04 4.147399999999999698e-02 4.025499999999999912e-02 -2.181200000000000153e-02 -1.767000000000000168e-02 -7.079599999999999782e-02 -2.264899999999999899e-02 3.974400000000000155e-02 3.496699999999999808e-02 -5.418699999999999906e-02 1.704400000000000012e-02 1.317329999999999890e-01 5.997799999999999659e-02 -3.405899999999999900e-02 -1.074729999999999991e-01 3.569499999999999756e-02 -1.863789999999999891e-01 8.225300000000000666e-02 -2.876799999999999843e-02 -5.680400000000000033e-02 2.252000000000000095e-03 8.330500000000000405e-02 5.774100000000000066e-02 1.972799999999999901e-02 6.659099999999999742e-02 -3.815799999999999748e-02 -5.352599999999999719e-02 -1.272880000000000122e-01 6.631099999999999495e-02 -1.311299999999999966e-02 9.731000000000000066e-03 1.190380000000000049e-01 1.343800000000000029e-02 -3.410900000000000043e-02 1.905429999999999902e-01 -8.515799999999999759e-02 -5.555700000000000222e-02 -7.489999999999999913e-04 8.072899999999999521e-02 2.925600000000000075e-02 1.058960000000000040e-01 -1.047300000000000036e-01 -7.052600000000000535e-02 8.940000000000000030e-03 -4.485000000000000271e-03 -6.335000000000000353e-02 3.041999999999999999e-03 3.076800000000000021e-02 -1.786199999999999941e-02
1.033000000000000064e-02 6.079600000000000282e-02 -8.028000000000000413e-03 1.490999999999999964e-02 -3.680900000000000144e-02 -3.009500000000000022e-02 1.660800000000000123e-02 7.055400000000000560e-02 1.285799999999999964e-02 -4.982000000000000317e-03 4.197900000000000242e-02 2.655000000000000068e-02 2.990400000000000003e-02 -3.096799999999999900e-02 6.491299999999999848e-02 6.881900000000000517e-02 -1.188099999999999920e-02 5.186199999999999838e-02 7.926600000000000312e-02 4.691300000000000331e-02 -1.208309999999999940e-01 -1.045800000000000028e-02 -6.415600000000000469e-02 -3.148399999999999810e-02 1.714900000000000105e-02 2.812699999999999922e-02 -3.907700000000000062e-02 -1.127090000000000036e-01 -6.851300000000000445e-02 4.591800000000000048e-02 3.432899999999999840e-02 -9.296999999999999709e-03 5.618100000000000177e-02 1.530800000000000043e-02 -6.826000000000000123e-02 7.962500000000000133e-02 -1.928900000000000059e-02 -5.901399999999999701e-02 -5.868099999999999705e-02 -8.199299999999999644e-02 -4.912199999999999900e-02 5.916000000000000252e-03 -1.762700000000000031e-02 -1.074039999999999995e-01 3.866599999999999898e-02 -6.670999999999999847e-03 -2.396000000000000126e-03 8.229200000000000403e-02 -8.814500000000000113e-02 -5.086299999999999849e-02 1.603789999999999938e-01 5.244100000000000150e-02 -2.663899999999999949e-02 -4.764299999999999785e-02 -2.276099999999999998e-02 4.549600000000000172e-02 -5.542500000000000204e-02 -1.529499999999999957e-02 3.497399999999999815e-02 6.293500000000000483e-02 3.202399999999999691e-02 6.763299999999999867e-02 5.821400000000000186e-02 -6.016999999999999779e-03 1.390490000000000059e-01 -5.122999999999999950e-03 -2.427599999999999897e-02 4.720499999999999696e-02 -1.295199999999999997e-02 1.299799999999999914e-02 -6.655099999999999905e-02 -1.394680000000000086e-01 1.271130000000000038e-01 1.059889999999999999e-01 1.572409999999999919e-01 4.148999999999999910e-03 4.091999999999999804e-02 -2.155200000000000171e-02 4.870000000000000197e-03 5.984300000000000036e-02 -1.175100000000000033e-01 -7.527699999999999669e-02 -5.886099999999999666e-02 -1.082970000000000044e-01 -4.657800000000000135e-02 3.829199999999999965e-02 1.666000000000000120e-02 -5.486699999999999910e-02 1.259300000000000003e-02 2.065699999999999828e-02 -1.180609999999999993e-01 -4.823299999999999810e-02 -1.746199999999999836e-02 -2.814099999999999935e-02 -3.148100000000000204e-02 7.866900000000000281e-02 -4.834100000000000202e-02 4.694500000000000062e-02 1.852699999999999833e-02 -5.880400000000000210e-02 -9.733799999999999397e-02 4.402999999999999796e-03 -3.365300000000000236e-02 3.409000000000000138e-03 -1.077700000000000047e-01 -7.385200000000000098e-02 4.196899999999999936e-02 9.324999999999999956e-02 -6.154500000000000248e-02 1.230499999999999997e-02 1.025120000000000059e-01 2.044299999999999937e-02 -6.583999999999999575e-02 -1.423000000000000003e-03 6.194800000000000306e-02 5.158499999999999891e-02 -3.358900000000000080e-02 -2.605700000000000030e-02 -1.141059999999999991e-01 -3.477700000000000236e-02 5.888199999999999684e-02 4.347399999999999876e-02 -8.150699999999999612e-02 2.544700000000000087e-02 1.861750000000000071e-01 8.675800000000000178e-02 -5.063900000000000345e-02 -1.691910000000000081e-01 5.200500000000000261e-02 -2.788200000000000123e-01 1.148160000000000014e-01 -4.441699999999999815e-02 -8.453099999999999503e-02 -5.354000000000000252e-03 1.227899999999999964e-01 8.580000000000000127e-02 3.761799999999999866e-02 9.975599999999999745e-02 -5.690699999999999925e-02 -7.158299999999999386e-02 -1.881829999999999892e-01 9.875299999999999356e-02 -1.141499999999999980e-02 1.484300000000000029e-02 1.776890000000000136e-01 2.818100000000000119e-02 -5.007000000000000339e-02 2.831380000000000008e-01 -1.182379999999999959e-01 -8.160000000000000586e-02 -1.374999999999999920e-03 1.283299999999999996e-01 4.406700000000000200e-02 1.573589999999999989e-01 -1.473790000000000100e-01 -1.042489999999999944e-01 1.333699999999999990e-02 1.252000000000000075e-03 -9.331100000000000505e-02 4.893999999999999913e-03 5.355300000000000338e-02 -2.654600000000000015e-02
1.382000000000000069e-02 8.197899999999999632e-02 -9.861999999999999239e-03 2.029600000000000154e-02 -4.778199999999999809e-02 -3.852499999999999675e-02 2.134899999999999992e-02 9.484900000000000275e-02 1.796199999999999880e-02 -6.936999999999999590e-03 5.644899999999999918e-02 3.550999999999999990e-02 3.946199999999999708e-02 -3.931899999999999978e-02 8.708899999999999975e-02 9.125199999999999978e-02 -1.485700000000000041e-02 6.907800000000000051e-02 1.051350000000000062e-01 6.356000000000000538e-02 -1.598990000000000133e-01 -1.422900000000000033e-02 -8.346900000000000153e-02 -4.104000000000000009e-02 2.283100000000000060e-02 3.827900000000000053e-02 -5.058900000000000202e-02 -1.484810000000000019e-01 -7.360300000000000176e-02 6.112499999999999878e-02 4.501800000000000246e-02 4.715999999999999706e-03 7.504900000000000460e-02 2.042199999999999918e-02 -7.215499999999999692e-02 1.071330000000000060e-01 -2.539500000000000091e-02 -6.062900000000000234e-02 -7.629099999999999770e-02 -1.082869999999999944e-01 -4.781200000000000033e-02 8.958999999999999950e-03 -2.305600000000000011e-02 -1.243800000000000044e-01 5.249999999999999806e-02 -8.493999999999999814e-03 1.444199999999999998e-02 1.096639999999999976e-01 -1.153799999999999965e-01 -5.066799999999999776e-02 2.117920000000000080e-01 6.977600000000000469e-02 -1.754199999999999857e-02 -6.207499999999999823e-02 -2.979599999999999957e-02 4.232000000000000345e-02 -7.487399999999999611e-02 -2.025499999999999870e-02 2.780799999999999939e-02 8.193699999999999595e-02 4.255699999999999761e-02 7.124300000000000077e-02 7.611400000000000110e-02 -8.564999999999999697e-03 1.660929999999999906e-01 -7.893999999999999975e-03 -3.255899999999999767e-02 4.387800000000000034e-02 -1.835200000000000026e-02 1.685100000000000139e-02 -1.052160000000000040e-01 -1.840640000000000054e-01 1.695639999999999925e-01 1.219890000000000002e-01 2.087930000000000064e-01 5.590000000000000351e-03 3.613899999999999751e-02 -3.002300000000000108e-02 6.360000000000000202e-03 6.087399999999999756e-02 -1.562020000000000075e-01 -9.922899999999999776e-02 -7.803699999999999526e-02 -1.431280000000000052e-01 -6.178000000000000158e-02 5.057400000000000090e-02 2.072799999999999990e-02 -7.293399999999999883e-02 1.669199999999999851e-02 2.650399999999999978e-02 -1.563749999999999862e-01 -6.439999999999999891e-02 -2.296799999999999883e-02 -3.757499999999999729e-02 -4.157199999999999784e-02 1.037030000000000035e-01 -6.393600000000000672e-02 6.189000000000000057e-02 2.395200000000000107e-02 -7.826700000000000323e-02 -1.286360000000000003e-01 6.061999999999999680e-03 -4.348099999999999882e-02 4.298999999999999870e-03 -1.428989999999999982e-01 -9.821100000000000663e-02 5.562999999999999889e-02 1.232339999999999963e-01 -8.124000000000000665e-02 1.033799999999999997e-02 1.341890000000000027e-01 2.721700000000000161e-02 -9.257500000000000451e-02 -2.658000000000000206e-03 8.200799999999999756e-02 6.271300000000000485e-02 -4.519100000000000200e-02 -3.404999999999999694e-02 -1.564240000000000075e-01 -4.658400000000000041e-02 7.726800000000000335e-02 5.168500000000000177e-02 -1.080099999999999949e-01 3.363200000000000217e-02 2.382749999999999868e-01 1.118849999999999983e-01 -6.683500000000000552e-02 -2.297730000000000050e-01 6.780400000000000316e-02 -3.698380000000000001e-01 1.471020000000000105e-01 -6.001399999999999790e-02 -1.114850000000000008e-01 -1.287899999999999982e-02 1.611209999999999865e-01 1.130059999999999953e-01 5.513099999999999945e-02 1.320600000000000107e-01 -7.518600000000000283e-02 -8.913899999999999602e-02 -2.469320000000000126e-01 1.304230000000000111e-01 -9.754999999999999782e-03 1.966899999999999898e-02 2.353059999999999874e-01 4.260599999999999804e-02 -6.550799999999999679e-02 3.731280000000000152e-01 -1.501850000000000129e-01 -1.065860000000000002e-01 -2.174000000000000151e-03 1.747130000000000072e-01 5.843099999999999683e-02 2.073810000000000098e-01 -1.887060000000000126e-01 -1.369410000000000072e-01 1.765299999999999855e-02 6.738000000000000066e-03 -1.222209999999999963e-01 6.958999999999999908e-03 7.558299999999999741e-02 -3.536399999999999960e-02
1.735700000000000090e-02 1.029309999999999947e-01 -1.179599999999999919e-02 2.604300000000000018e-02 -5.857799999999999813e-02 -4.653000000000000191e-02 2.552799999999999861e-02 1.189560000000000062e-01 2.290499999999999828e-02 -9.098999999999999450e-03 7.040100000000000524e-02 4.378900000000000153e-02 4.872300000000000242e-02 -4.701700000000000323e-02 1.089409999999999962e-01 1.133849999999999997e-01 -1.785899999999999987e-02 8.547499999999999543e-02 1.303509999999999946e-01 7.999299999999999466e-02 -1.982949999999999990e-01 -1.825500000000000039e-02 -1.020080000000000015e-01 -5.053200000000000053e-02 2.846900000000000125e-02 4.810500000000000193e-02 -6.169299999999999784e-02 -1.829290000000000083e-01 -7.868700000000000694e-02 7.528899999999999482e-02 5.524199999999999944e-02 1.814599999999999894e-02 9.283700000000000285e-02 2.560199999999999976e-02 -7.542200000000000293e-02 1.341360000000000052e-01 -3.122199999999999975e-02 -6.208299999999999930e-02 -9.357000000000000040e-02 -1.337609999999999910e-01 -4.664000000000000090e-02 1.170599999999999939e-02 -2.810800000000000104e-02 -1.407210000000000127e-01 6.583200000000000163e-02 -9.988999999999999616e-03 3.113399999999999848e-02 1.358379999999999865e-01 -1.412920000000000009e-01 -5.086100000000000343e-02 2.608550000000000035e-01 8.694799999999999751e-02 -8.389000000000000623e-03 -7.646899999999999531e-02 -3.640499999999999986e-02 3.937500000000000028e-02 -9.392599999999999560e-02 -2.510000000000000078e-02 2.054500000000000076e-02 1.005830000000000057e-01 5.296300000000000313e-02 7.463300000000000489e-02 9.405099999999999572e-02 -1.146499999999999950e-02 1.925399999999999889e-01 -1.046000000000000055e-02 -4.102900000000000297e-02 4.030199999999999755e-02 -2.330899999999999986e-02 2.038399999999999934e-02 -1.427049999999999985e-01 -2.265500000000000014e-01 2.115120000000000056e-01 1.375639999999999918e-01 2.600410000000000221e-01 7.101999999999999806e-03 3.157999999999999696e-02 -3.831600000000000283e-02 7.712000000000000105e-03 6.167999999999999872e-02 -1.934770000000000101e-01 -1.224549999999999944e-01 -9.695600000000000052e-02 -1.767269999999999952e-01 -7.676399999999999890e-02 6.239399999999999807e-02 2.414399999999999880e-02 -9.081599999999999395e-02 2.074900000000000008e-02 3.208400000000000141e-02 -1.937919999999999920e-01 -8.048600000000000199e-02 -2.798799999999999899e-02 -4.688400000000000206e-02 -5.118999999999999939e-02 1.281720000000000081e-01 -7.917599999999999638e-02 7.624599999999999433e-02 2.923100000000000004e-02 -9.737899999999999334e-02 -1.591160000000000074e-01 8.259000000000000716e-03 -5.234400000000000164e-02 5.000000000000000104e-03 -1.770380000000000009e-01 -1.223100000000000021e-01 6.895700000000000440e-02 1.526959999999999984e-01 -1.002699999999999980e-01 8.255000000000000185e-03 1.645210000000000006e-01 3.393199999999999689e-02 -1.184270000000000045e-01 -3.913999999999999944e-03 1.014660000000000006e-01 7.354800000000000226e-02 -5.655899999999999817e-02 -4.155500000000000166e-02 -1.974100000000000021e-01 -5.796099999999999863e-02 9.474299999999999389e-02 5.955099999999999977e-02 -1.335099999999999898e-01 4.153199999999999947e-02 2.876949999999999785e-01 1.352109999999999979e-01 -8.257799999999999863e-02 -2.887299999999999867e-01 8.292099999999999471e-02 -4.587169999999999859e-01 1.788180000000000047e-01 -7.540600000000000080e-02 -1.374340000000000006e-01 -2.023300000000000098e-02 1.979529999999999901e-01 1.391280000000000017e-01 7.210500000000000242e-02 1.632369999999999932e-01 -9.280299999999999661e-02 -1.060239999999999932e-01 -3.029830000000000023e-01 1.611239999999999895e-01 -8.123999999999999277e-03 2.420999999999999888e-02 2.915070000000000161e-01 5.655899999999999817e-02 -8.025699999999999501e-02 4.599059999999999815e-01 -1.807779999999999943e-01 -1.302790000000000059e-01 -3.160000000000000048e-03 2.195280000000000009e-01 7.225800000000000278e-02 2.556359999999999744e-01 -2.284899999999999987e-01 -1.682700000000000029e-01 2.183799999999999977e-02 1.194199999999999949e-02 -1.498200000000000087e-01 9.190999999999999517e-03 9.675799999999999679e-02 -4.420299999999999924e-02
2.095500000000000140e-02 1.235620000000000052e-01 -1.379499999999999997e-02 3.223600000000000076e-02 -6.916899999999999438e-02 -5.400900000000000145e-02 2.906200000000000103e-02 1.428389999999999938e-01 2.768199999999999827e-02 -1.150400000000000034e-02 8.370600000000000263e-02 5.129899999999999738e-02 5.763800000000000173e-02 -5.396900000000000308e-02 1.304609999999999936e-01 1.351980000000000126e-01 -2.087800000000000072e-02 1.009329999999999949e-01 1.546990000000000032e-01 9.609900000000000386e-02 -2.356399999999999884e-01 -2.259900000000000103e-02 -1.196239999999999942e-01 -5.987900000000000167e-02 3.405400000000000094e-02 5.749699999999999950e-02 -7.228800000000000503e-02 -2.158239999999999881e-01 -8.372100000000000375e-02 8.835899999999999310e-02 6.496100000000000485e-02 3.090299999999999991e-02 1.094080000000000052e-01 3.088199999999999973e-02 -7.799000000000000377e-02 1.605679999999999885e-01 -3.670699999999999658e-02 -6.333400000000000141e-02 -1.104050000000000031e-01 -1.582530000000000048e-01 -4.561500000000000277e-02 1.418699999999999996e-02 -3.269400000000000084e-02 -1.563390000000000057e-01 7.861500000000000432e-02 -1.109100000000000016e-02 4.766399999999999804e-02 1.606609999999999983e-01 -1.657629999999999937e-01 -5.144699999999999968e-02 3.073580000000000201e-01 1.038970000000000032e-01 8.279999999999999600e-04 -9.070699999999999597e-02 -4.250899999999999818e-02 3.670699999999999658e-02 -1.125540000000000013e-01 -2.980599999999999916e-02 1.317199999999999968e-02 1.187750000000000056e-01 6.321499999999999342e-02 7.775999999999999579e-02 1.120120000000000005e-01 -1.476300000000000008e-02 2.182320000000000093e-01 -1.288399999999999962e-02 -4.973099999999999743e-02 3.644300000000000317e-02 -2.773300000000000071e-02 2.355499999999999955e-02 -1.789840000000000042e-01 -2.667720000000000091e-01 2.526269999999999905e-01 1.526869999999999894e-01 3.105490000000000195e-01 8.713000000000000259e-03 2.729200000000000029e-02 -4.641800000000000093e-02 8.888999999999999332e-03 6.221100000000000241e-02 -2.291549999999999976e-01 -1.448800000000000088e-01 -1.155970000000000053e-01 -2.090200000000000113e-01 -9.150099999999999900e-02 7.363999999999999713e-02 2.671400000000000163e-02 -1.084770000000000040e-01 2.477199999999999888e-02 3.729899999999999882e-02 -2.301050000000000040e-01 -9.639599999999999558e-02 -3.258899999999999991e-02 -5.597699999999999898e-02 -6.016400000000000220e-02 1.518339999999999967e-01 -9.400600000000000622e-02 8.987299999999999456e-02 3.423999999999999960e-02 -1.159779999999999978e-01 -1.886390000000000011e-01 1.097300000000000011e-02 -6.010200000000000264e-02 5.481999999999999894e-03 -2.101159999999999972e-01 -1.460720000000000074e-01 8.185800000000000021e-02 1.813909999999999967e-01 -1.184930000000000011e-01 6.086000000000000264e-03 1.932639999999999914e-01 4.057499999999999996e-02 -1.431759999999999977e-01 -5.176000000000000045e-03 1.201590000000000019e-01 8.399299999999999822e-02 -6.764399999999999580e-02 -4.850499999999999950e-02 -2.367390000000000050e-01 -6.880100000000000104e-02 1.111530000000000018e-01 6.700599999999999612e-02 -1.578229999999999911e-01 4.906100000000000044e-02 3.341450000000000253e-01 1.566170000000000062e-01 -9.780700000000000505e-02 -3.455860000000000043e-01 9.721599999999999686e-02 -5.447440000000000060e-01 2.096629999999999883e-01 -9.042899999999999550e-02 -1.621539999999999926e-01 -2.733299999999999966e-02 2.329839999999999967e-01 1.639440000000000064e-01 8.838999999999999635e-02 1.930379999999999874e-01 -1.095829999999999999e-01 -1.220789999999999931e-01 -3.558259999999999756e-01 1.906760000000000121e-01 -6.533999999999999878e-03 2.846999999999999878e-02 3.459409999999999985e-01 6.990899999999999892e-02 -9.415999999999999370e-02 5.429089999999999749e-01 -2.098109999999999975e-01 -1.524530000000000052e-01 -4.331999999999999913e-03 2.624270000000000214e-01 8.546099999999999530e-02 3.018199999999999772e-01 -2.665279999999999871e-01 -1.979210000000000136e-01 2.584499999999999992e-02 1.683600000000000027e-02 -1.758659999999999946e-01 1.153599999999999938e-02 1.169739999999999946e-01 -5.294200000000000295e-02