 vasp.6.1.1 19Jun20 (build Dec 21 2021 08:45:49) complex                        
  
 executed on             LinuxIFC date 2023.10.04  04:04:52
 running on   40 total cores
 distrk:  each k-point on   40 cores,    1 groups
 distr:  one band on NCORE=   1 cores,   40 groups


--------------------------------------------------------------------------------------------------------


 INCAR:
 POTCAR:   PAW_PBE Te 08Apr2002                   
 POTCAR:   PAW_PBE Mo 08Apr2002                   
 -----------------------------------------------------------------------------
|                                                                             |
|           W    W    AA    RRRRR   N    N  II  N    N   GGGG   !!!           |
|           W    W   A  A   R    R  NN   N  II  NN   N  G    G  !!!           |
|           W    W  A    A  R    R  N N  N  II  N N  N  G       !!!           |
|           W WW W  AAAAAA  RRRRR   N  N N  II  N  N N  G  GGG   !            |
|           WW  WW  A    A  R   R   N   NN  II  N   NN  G    G                |
|           W    W  A    A  R    R  N    N  II  N    N   GGGG   !!!           |
|                                                                             |
|     For optimal performance we recommend to set                             |
|       NCORE = 4 - approx SQRT(number of cores).                             |
|     NCORE specifies how many cores store one orbital (NPAR=cpu/NCORE).      |
|     This setting can greatly improve the performance of VASP for DFT.       |
|     The default, NCORE=1 might be grossly inefficient on modern             |
|     multi-core architectures or massively parallel machines. Do your        |
|     own testing!!!!                                                         |
|     Unfortunately you need to use the default for GW and RPA                |
|     calculations (for HF NCORE is supported but not extensively tested      |
|     yet).                                                                   |
|                                                                             |
 -----------------------------------------------------------------------------

 POTCAR:   PAW_PBE Te 08Apr2002                   
   VRHFIN =Te: s2p4                                                                                 
   LEXCH  = PE                                                                                      
   EATOM  =   223.2721 eV,   16.4100 Ry                                                             
                                                                                                    
   TITEL  = PAW_PBE Te 08Apr2002                                                                    
   LULTRA =        F    use ultrasoft PP ?                                                          
   IUNSCR =        1    unscreen: 0-lin 1-nonlin 2-no                                               
   RPACOR =    2.200    partial core radius                                                         
   POMASS =  127.600; ZVAL   =    6.000    mass and valenz                                          
   RCORE  =    2.300    outmost cutoff radius                                                       
   RWIGS  =    2.900; RWIGS  =    1.535    wigner-seitz radius (au A)                               
   ENMAX  =  174.982; ENMIN  =  131.236 eV                                                          
   ICORE  =        3    local potential                                                             
   LCOR   =        T    correct aug charges                                                         
   LPAW   =        T    paw PP                                                                      
   EAUG   =  368.792                                                                                
   DEXC   =    -.169                                                                                
   RMAX   =    3.486    core radius for proj-oper                                                   
   RAUG   =    1.300    factor for augmentation sphere                                              
   RDEP   =    2.397    radius for radial grids                                                     
   QCUT   =   -3.586; QGAM   =    7.172    optimization parameters                                  
                                                                                                    
   Description                                                                                      
     l     E      TYP  RCUT    TYP  RCUT                                                            
     0   .000     23  2.300                                                                         
     0   .000     23  2.300                                                                         
     1   .000     23  2.300                                                                         
     1   .000     23  2.300                                                                         
     2   .000     23  2.300                                                                         
     3  -.100     23  2.300                                                                         
  local pseudopotential read in
  partial core-charges read in
  atomic valenz-charges read in
  non local Contribution for L=           0  read in
    real space projection operators read in
  non local Contribution for L=           0  read in
    real space projection operators read in
  non local Contribution for L=           1  read in
    real space projection operators read in
  non local Contribution for L=           1  read in
    real space projection operators read in
  non local Contribution for L=           2  read in
    real space projection operators read in
    PAW grid and wavefunctions read in
 
   number of l-projection  operators is LMAX  =           5
   number of lm-projection operators is LMMAX =          13
 
 POTCAR:   PAW_PBE Mo 08Apr2002                   
   VRHFIN =Mo: 4p5s4d                                                                               
   LEXCH  = PE                                                                                      
   EATOM  =   217.5180 eV,   15.9871 Ry                                                             
                                                                                                    
   TITEL  = PAW_PBE Mo 08Apr2002                                                                    
   LULTRA =        F    use ultrasoft PP ?                                                          
   IUNSCR =        1    unscreen: 0-lin 1-nonlin 2-no                                               
   RPACOR =    2.200    partial core radius                                                         
   POMASS =   95.940; ZVAL   =    6.000    mass and valenz                                          
   RCORE  =    2.750    outmost cutoff radius                                                       
   RWIGS  =    2.750; RWIGS  =    1.455    wigner-seitz radius (au A)                               
   ENMAX  =  224.584; ENMIN  =  168.438 eV                                                          
   RCLOC  =    2.111    cutoff for local pot                                                        
   LCOR   =        T    correct aug charges                                                         
   LPAW   =        T    paw PP                                                                      
   EAUG   =  345.278                                                                                
   DEXC   =    -.088                                                                                
   RMAX   =    3.077    core radius for proj-oper                                                   
   RAUG   =    1.300    factor for augmentation sphere                                              
   RDEP   =    2.815    radius for radial grids                                                     
   QCUT   =   -4.063; QGAM   =    8.126    optimization parameters                                  
                                                                                                    
   Description                                                                                      
     l     E      TYP  RCUT    TYP  RCUT                                                            
     2   .000     23  2.500                                                                         
     2   .000     23  2.500                                                                         
     0   .000     23  2.600                                                                         
     0  1.000     23  2.600                                                                         
     1   .400     23  2.750                                                                         
     1  2.000     23  2.750                                                                         
     3   .000      7   .000                                                                         
  local pseudopotential read in
  partial core-charges read in
  atomic valenz-charges read in
  non local Contribution for L=           2  read in
    real space projection operators read in
  non local Contribution for L=           2  read in
    real space projection operators read in
  non local Contribution for L=           0  read in
    real space projection operators read in
  non local Contribution for L=           0  read in
    real space projection operators read in
  non local Contribution for L=           1  read in
    real space projection operators read in
  non local Contribution for L=           1  read in
    real space projection operators read in
    PAW grid and wavefunctions read in
 
   number of l-projection  operators is LMAX  =           6
   number of lm-projection operators is LMMAX =          18
 
 -----------------------------------------------------------------------------
|                                                                             |
|               ----> ADVICE to this user running VASP <----                  |
|                                                                             |
|     You have a (more or less) 'large supercell' and for larger cells it     |
|     might be more efficient to use real-space projection operators.         |
|     Therefore, try LREAL= Auto in the INCAR file.                           |
|     Mind: If you want to do very accurate calculations, keep the            |
|     reciprocal projection scheme (i.e. LREAL=.FALSE.).                      |
|                                                                             |
 -----------------------------------------------------------------------------

 PAW_PBE Te 08Apr2002                   :
 energy of atom  1       EATOM= -223.2721
 kinetic energy error for atom=    0.0006 (will be added to EATOM!!)
 PAW_PBE Mo 08Apr2002                   :
 energy of atom  2       EATOM= -217.5180
 kinetic energy error for atom=    0.0009 (will be added to EATOM!!)
 
 
 POSCAR: Te Mo
  positions in cartesian coordinates
  No initial velocities read in
 exchange correlation table for  LEXCH =        8
   RHO(1)=    0.500       N(1)  =     2000
   RHO(2)=  100.500       N(2)  =     4000
 


--------------------------------------------------------------------------------------------------------


 ion  position               nearest neighbor table
   1  0.222  0.111  0.677-  41 2.71  40 2.71  37 2.73   2 3.49   3 3.49   5 3.50   4 3.50   7 3.50
                             9 3.50  19 3.64
   2  0.222  0.445  0.678-  42 2.72  41 2.72  38 2.74   1 3.49   5 3.49   3 3.50   8 3.50   6 3.50
                             7 3.51  20 3.65
   3  0.223  0.779  0.677-  40 2.72  42 2.72  39 2.73   1 3.49   6 3.49   4 3.50   2 3.50   9 3.50
                             8 3.51  21 3.66
   4  0.556  0.111  0.677-  44 2.71  43 2.72  40 2.73   6 3.49   5 3.49   7 3.49   3 3.50   1 3.50
                             8 3.50  22 3.65
   5  0.555  0.444  0.678-  44 2.72  45 2.72  41 2.73   4 3.49   2 3.49   1 3.50   6 3.50   8 3.50
                             9 3.51  23 3.65
   6  0.555  0.778  0.677-  43 2.72  45 2.72  42 2.73   4 3.49   3 3.49   7 3.50   5 3.50   2 3.50
                             9 3.50  24 3.65
   7  0.888  0.111  0.677-  38 2.72  37 2.72  43 2.73   8 3.49   9 3.49   4 3.49   6 3.50   1 3.50
                             2 3.51  25 3.65
   8  0.889  0.444  0.677-  39 2.71  38 2.72  44 2.73   7 3.49   9 3.50   2 3.50   5 3.50   4 3.50
                             3 3.51  26 3.64
   9  0.889  0.778  0.678-  37 2.72  39 2.72  45 2.73   7 3.49   8 3.50   3 3.50   6 3.50   1 3.50
                             5 3.51  27 3.65
  10  1.000  1.000  0.443-  46 2.71  48 2.72  54 2.73  11 3.49  16 3.49  12 3.49  14 3.50  13 3.50
                            18 3.50  28 3.65
  11  1.000  0.333  0.443-  46 2.72  47 2.72  52 2.73  12 3.49  10 3.49  14 3.49  17 3.49  16 3.50
                            15 3.51  29 3.65
  12  0.001  0.667  0.444-  48 2.72  47 2.72  53 2.74  11 3.49  15 3.49  10 3.49  13 3.50  17 3.50
                            18 3.50  30 3.66
  13  0.333  1.000  0.443-  49 2.71  51 2.71  48 2.73  15 3.49  14 3.49  10 3.50  12 3.50  16 3.50
                            17 3.51  31 3.64
  14  0.333  0.333  0.443-  50 2.72  49 2.72  46 2.73  11 3.49  13 3.49  15 3.50  10 3.50  18 3.51
                            17 3.51  32 3.65
  15  0.334  0.667  0.443-  51 2.72  50 2.72  47 2.73  13 3.49  12 3.49  14 3.50  18 3.50  16 3.51
                            11 3.51  33 3.65
  16  0.667  0.000  0.443-  52 2.71  54 2.72  51 2.74  17 3.49  10 3.49  18 3.49  11 3.50  13 3.50
                            15 3.51  34 3.64
  17  0.667  0.334  0.443-  53 2.71  52 2.72  49 2.73  18 3.49  16 3.49  11 3.49  12 3.50  13 3.51
                            14 3.51  35 3.65
  18  0.667  0.667  0.443-  54 2.71  53 2.72  50 2.73  17 3.49  16 3.49  15 3.50  12 3.50  10 3.50
                            14 3.51  36 3.65
  19  0.222  0.111  0.557-  40 2.71  37 2.72  41 2.73  21 3.49  20 3.49  25 3.50  22 3.50  23 3.50
                            27 3.51   1 3.64
  20  0.222  0.445  0.557-  38 2.72  41 2.72  42 2.73  19 3.49  21 3.50  23 3.50  26 3.50  25 3.50
                            24 3.51   2 3.65
  21  0.223  0.778  0.556-  42 2.73  39 2.73  40 2.73  19 3.49  20 3.50  22 3.50  24 3.50  27 3.50
                            26 3.51   3 3.66
  22  0.555  0.111  0.557-  40 2.72  43 2.72  44 2.73  24 3.49  23 3.49  21 3.50  19 3.50  25 3.50
                            26 3.50   4 3.65
  23  0.555  0.444  0.557-  44 2.72  41 2.72  45 2.73  22 3.49  24 3.50  20 3.50  26 3.50  27 3.50
                            19 3.50   5 3.65
  24  0.556  0.778  0.557-  42 2.72  45 2.72  43 2.73  22 3.49  21 3.50  23 3.50  27 3.50  25 3.50
                            20 3.51   6 3.65
  25  0.889  0.111  0.557-  43 2.72  37 2.72  38 2.72  26 3.49  27 3.50  19 3.50  24 3.50  22 3.50
                            20 3.50   7 3.65
  26  0.889  0.444  0.557-  38 2.71  44 2.72  39 2.73  27 3.49  25 3.49  23 3.50  20 3.50  22 3.50
                            21 3.51   8 3.64
  27  0.889  0.777  0.557-  45 2.72  39 2.72  37 2.73  26 3.49  25 3.50  24 3.50  21 3.50  23 3.50
                            19 3.51   9 3.65
  28  0.000  0.000  0.322-  48 2.72  54 2.72  46 2.73  30 3.49  29 3.49  31 3.49  32 3.50  34 3.50
                            36 3.51  10 3.65
  29  0.000  0.333  0.322-  52 2.72  46 2.72  47 2.73  28 3.49  30 3.50  32 3.50  35 3.50  34 3.50
                            33 3.50  11 3.65
  30  1.000  0.667  0.322-  53 2.72  47 2.72  48 2.73  28 3.49  36 3.49  29 3.50  31 3.50  33 3.50
                            35 3.50  12 3.66
  31  0.333  1.000  0.323-  48 2.71  51 2.72  49 2.73  32 3.49  28 3.49  33 3.49  30 3.50  34 3.50
                            35 3.51  13 3.64
  32  0.333  0.333  0.323-  46 2.72  49 2.72  50 2.73  31 3.49  33 3.49  35 3.50  29 3.50  28 3.50
                            36 3.50  14 3.65
  33  0.333  0.667  0.323-  47 2.71  50 2.72  51 2.73  31 3.49  32 3.49  36 3.50  30 3.50  29 3.50
                            34 3.50  15 3.65
  34  0.667  0.000  0.323-  51 2.71  52 2.72  54 2.72  35 3.49  36 3.50  31 3.50  29 3.50  28 3.50
                            33 3.50  16 3.64
  35  0.667  0.333  0.323-  49 2.72  52 2.72  53 2.73  34 3.49  36 3.49  32 3.50  29 3.50  30 3.50
                            31 3.51  17 3.65
  36  0.667  0.667  0.323-  53 2.72  50 2.72  54 2.73  35 3.49  30 3.49  34 3.50  33 3.50  32 3.50
                            28 3.51  18 3.65
  37  0.000  1.000  0.617-   9 2.72  19 2.72   7 2.72  25 2.72   1 2.73  27 2.73
  38  0.999  0.333  0.617-  26 2.71   7 2.72   8 2.72  20 2.72  25 2.72   2 2.74  39 3.49
  39  1.000  0.666  0.617-   8 2.71   9 2.72  27 2.72  26 2.73  21 2.73   3 2.73  38 3.49
  40  0.333  0.001  0.617-   1 2.71  19 2.71  22 2.72   3 2.72   4 2.73  21 2.73  41 3.48
  41  0.333  0.333  0.617-   1 2.71  23 2.72   2 2.72  20 2.72  19 2.73   5 2.73  40 3.48  44 3.49
                            42 3.49
  42  0.334  0.667  0.617-  24 2.72   2 2.72   3 2.72   6 2.73  21 2.73  20 2.73  41 3.49
  43  0.667  0.001  0.617-   6 2.72   4 2.72  25 2.72  22 2.72   7 2.73  24 2.73
  44  0.666  0.333  0.617-   4 2.71  23 2.72   5 2.72  26 2.72  22 2.73   8 2.73  45 3.49  41 3.49

  45  0.667  0.667  0.617-  27 2.72   5 2.72  24 2.72   6 2.72  23 2.73   9 2.73  44 3.49
  46  0.111  0.222  0.383-  10 2.71  32 2.72  11 2.72  29 2.72  14 2.73  28 2.73
  47  0.111  0.556  0.383-  33 2.71  30 2.72  12 2.72  11 2.72  29 2.73  15 2.73  48 3.49
  48  0.111  0.889  0.383-  31 2.71  10 2.72  12 2.72  28 2.72  13 2.73  30 2.73  47 3.49
  49  0.444  0.222  0.383-  13 2.71  35 2.72  14 2.72  32 2.72  31 2.73  17 2.73  51 3.48
  50  0.444  0.556  0.383-  15 2.72  14 2.72  33 2.72  36 2.72  32 2.73  18 2.73
  51  0.445  0.890  0.383-  34 2.71  13 2.71  15 2.72  31 2.72  33 2.73  16 2.74  49 3.48
  52  0.778  0.222  0.383-  16 2.71  34 2.72  29 2.72  35 2.72  17 2.72  11 2.73  54 3.49
  53  0.778  0.556  0.383-  17 2.71  18 2.72  30 2.72  36 2.72  35 2.73  12 2.74  54 3.49
  54  0.778  0.889  0.383-  18 2.71  16 2.72  34 2.72  28 2.72  36 2.73  10 2.73  52 3.49  53 3.49

 

IMPORTANT INFORMATION: All symmetrisations will be switched off!
NOSYMM: (Re-)initialisation of all symmetry stuff for point group C_1.


----------------------------------------------------------------------------------------

                                     Primitive cell                                     

  volume of cell :    2880.3384

  direct lattice vectors                    reciprocal lattice vectors
    10.496185163  0.000000000  0.000000000     0.095272710  0.054680325 -0.000599936
    -5.215737222  9.087682179  0.000000000     0.000000000  0.110039059 -0.000532260
     0.106319665  0.146061481 30.196658950     0.000000000  0.000000000  0.033116246

  length of vectors
    10.496185163 10.478066718 30.197199366     0.109850749  0.110040347  0.033116246

  position of ions in fractional coordinates (direct lattice)
     0.222236824  0.111455473  0.677193517
     0.222359379  0.444557262  0.677552743
     0.222521057  0.778509238  0.677441069
     0.555539460  0.111114751  0.677404852
     0.555098390  0.444247277  0.677546710
     0.555244147  0.778322858  0.677412171
     0.888410544  0.110979718  0.677318418
     0.888779156  0.444340916  0.677313394
     0.888874112  0.777943974  0.677514871
     0.999992210  0.999999489  0.443365999
     0.999902378  0.333279736  0.443353724
     0.000605853  0.666833745  0.443596943
     0.333386771  0.999985973  0.443319287
     0.332624740  0.333060240  0.443429034
     0.333555071  0.667185157  0.443265146
     0.667338246  0.000396881  0.443458740
     0.667270631  0.333745069  0.443341017
     0.666792895  0.666585951  0.443314123
     0.222179241  0.111053191  0.556585023
     0.222288930  0.444503399  0.556569048
     0.222816277  0.778364444  0.556390803
     0.555353209  0.111013232  0.556505313
     0.555466624  0.444412427  0.556615165
     0.555915396  0.778339287  0.556681317
     0.889092615  0.111119506  0.556563779
     0.888659001  0.444303589  0.556683716
     0.888817418  0.777417622  0.556581467
     0.000291867  0.000136781  0.322494507
     0.000072559  0.333150694  0.322319946
     0.999740118  0.666835906  0.322371238
     0.332875490  0.999867030  0.322643227
     0.333440880  0.333268919  0.322599670
     0.333369445  0.666699674  0.322522000
     0.666646712  0.000267437  0.322781581
     0.666652709  0.333325892  0.322540057
     0.666689347  0.666672816  0.322542241
     0.000045957  0.999976361  0.617027675
     0.999311429  0.333118091  0.616859838
     0.999893297  0.666181805  0.617173231
     0.333401026  0.000941920  0.616971260
     0.333369776  0.333374742  0.617037104
     0.333715543  0.666688149  0.617034062
     0.666851047  0.000561389  0.616973898
     0.665932353  0.333420280  0.617027496
     0.666655769  0.666642664  0.617049069
     0.111127057  0.222275610  0.383001693
     0.111035606  0.556109265  0.382787876
     0.111002741  0.888884106  0.383004438
     0.444328521  0.221830802  0.383094692
     0.444144613  0.555549657  0.382990107
     0.444849008  0.889849191  0.382955953
     0.777919756  0.221803253  0.382856084
     0.777690793  0.555593332  0.382959251
     0.777715564  0.888849756  0.383002463

  ion indices of the primitive-cell ions
   primitive index   ion index
                 1           1
                 2           2
                 3           3
                 4           4
                 5           5
                 6           6
                 7           7
                 8           8
                 9           9
                10          10
                11          11
                12          12
                13          13
                14          14
                15          15
                16          16
                17          17
                18          18
                19          19
                20          20
                21          21
                22          22
                23          23
                24          24
                25          25
                26          26
                27          27
                28          28
                29          29
                30          30
                31          31
                32          32
                33          33
                34          34
                35          35
                36          36
                37          37
                38          38
                39          39
                40          40
                41          41
                42          42
                43          43
                44          44
                45          45
                46          46
                47          47
                48          48
                49          49
                50          50
                51          51
                52          52
                53          53
                54          54

----------------------------------------------------------------------------------------

 
 

Automatic generation of k-mesh.
 generate k-points for:    3    3    1
Space group operators:
 irot       det(A)        alpha          n_x          n_y          n_z        tau_x        tau_y        tau_z
    1     1.000000     0.000001     1.000000     0.000000     0.000000     0.000000     0.000000     0.000000
 
 Subroutine IBZKPT returns following result:
 ===========================================
 
 Found      5 irreducible k-points:
 
 Following reciprocal coordinates:
            Coordinates               Weight
  0.000000  0.000000  0.000000      1.000000
  0.333333 -0.000000 -0.000000      2.000000
  0.000000  0.333333 -0.000000      2.000000
  0.333333  0.333333 -0.000000      2.000000
 -0.333333  0.333333  0.000000      2.000000
 
 Following cartesian coordinates:
            Coordinates               Weight
  0.000000  0.000000  0.000000      1.000000
  0.031758  0.018227 -0.000200      2.000000
  0.000000  0.036680 -0.000177      2.000000
  0.031758  0.054906 -0.000377      2.000000
 -0.031758  0.018453  0.000023      2.000000
 


--------------------------------------------------------------------------------------------------------




 Dimension of arrays:
   k-points           NKPTS =      5   k-points in BZ     NKDIM =      5   number of bands    NBANDS=    200
   number of dos      NEDOS =    301   number of ions     NIONS =     54
   non local maximal  LDIM  =      6   non local SUM 2l+1 LMDIM =     18
   total plane-waves  NPLWV = ******
   max r-space proj   IRMAX =      1   max aug-charges    IRDMAX=  34434
   dimension x,y,z NGX =    80 NGY =   80 NGZ =  240
   dimension x,y,z NGXF=   160 NGYF=  160 NGZF=  480
   support grid    NGXF=   160 NGYF=  160 NGZF=  480
   ions per type =              36  18
   NGX,Y,Z   is equivalent  to a cutoff of  12.67, 12.69, 13.21 a.u.
   NGXF,Y,Z  is equivalent  to a cutoff of  25.34, 25.39, 26.43 a.u.

 SYSTEM =  dpgen_md                                
 POSCAR =  Te Mo                                   

 Startparameter for this run:
   NWRITE =      2    write-flag & timer
   PREC   = a         normal or accurate (medium, high low for compatibility)
   ISTART =      0    job   : 0-new  1-cont  2-samecut
   ICHARG =      2    charge: 1-file 2-atom 10-const
   ISPIN  =      1    spin polarized calculation?
   LNONCOLLINEAR =      F non collinear calculations
   LSORBIT =      F    spin-orbit coupling
   INIWAV =      1    electr: 0-lowe 1-rand  2-diag
   LASPH  =      F    aspherical Exc in radial PAW
   METAGGA=      F    non-selfconsistent MetaGGA calc.

 Electronic Relaxation 1
   ENCUT  =  550.0 eV  40.42 Ry    6.36 a.u.  20.07 20.04 57.74*2*pi/ulx,y,z
   ENINI  =  550.0     initial cutoff
   ENAUG  =  368.8 eV  augmentation charge cutoff
   NELM   =    100;   NELMIN=  6; NELMDL= -5     # of ELM steps 
   EDIFF  = 0.1E-05   stopping-criterion for ELM
   LREAL  =      F    real-space projection
   NLSPLINE    = F    spline interpolate recip. space projectors
   LCOMPAT=      F    compatible to vasp.4.4
   GGA_COMPAT  = T    GGA compatible to vasp.4.4-vasp.4.6
   LMAXPAW     = -100 max onsite density
   LMAXMIX     =    2 max onsite mixed and CHGCAR
   VOSKOWN=      0    Vosko Wilk Nusair interpolation
   ROPT   =    0.00000   0.00000
 Ionic relaxation
   EDIFFG = 0.1E-04   stopping-criterion for IOM
   NSW    =     10    number of steps for IOM
   NBLOCK =      1;   KBLOCK =      1    inner block; outer block 
   IBRION =      0    ionic relax: 0-MD 1-quasi-New 2-CG
   NFREE  =      0    steps in history (QN), initial steepest desc. (CG)
   ISIF   =      2    stress and relaxation
   IWAVPR =     11    prediction:  0-non 1-charg 2-wave 3-comb
   ISYM   =      0    0-nonsym 1-usesym 2-fastsym
   LCORR  =      T    Harris-Foulkes like correction to forces

   POTIM  = 2.0000    time-step for ionic-motion
   TEIN   =  100.0    initial temperature
   TEBEG  =  100.0;   TEEND  = 100.0 temperature during run
   SMASS  =   0.04    Nose mass-parameter (am)
   estimated Nose-frequenzy (Omega)   =  0.79E+14 period in steps = 0.40E+02 mass=   0.327E-28a.u.
   SCALEE = 1.0000    scale energy and forces
   NPACO  =    256;   APACO  = 16.0  distance and # of slots for P.C.
   PSTRESS=    0.0 pullay stress

  Mass of Ions in am
   POMASS = 127.60 95.94
  Ionic Valenz
   ZVAL   =   6.00  6.00
  Atomic Wigner-Seitz radii
   RWIGS  =  -1.00 -1.00
  virtual crystal weights 
   VCA    =   1.00  1.00
   NELECT =     324.0000    total number of electrons
   NUPDOWN=      -1.0000    fix difference up-down

 DOS related values:
   EMIN   =  10.00;   EMAX   =-10.00  energy-range for DOS
   EFERMI =   0.00
   ISMEAR =     0;   SIGMA  =   0.10  broadening in eV -4-tet -1-fermi 0-gaus

 Electronic relaxation 2 (details)
   IALGO  =     68    algorithm
   LDIAG  =      T    sub-space diagonalisation (order eigenvalues)
   LSUBROT=      F    optimize rotation matrix (better conditioning)
   TURBO    =      0    0=normal 1=particle mesh
   IRESTART =      0    0=no restart 2=restart with 2 vectors
   NREBOOT  =      0    no. of reboots
   NMIN     =      0    reboot dimension
   EREF     =   0.00    reference energy to select bands
   IMIX   =      4    mixing-type and parameters
     AMIX     =   0.40;   BMIX     =  1.00
     AMIX_MAG =   1.60;   BMIX_MAG =  1.00
     AMIN     =   0.10
     WC   =   100.;   INIMIX=   1;  MIXPRE=   1;  MAXMIX= -45

 Intra band minimization:
   WEIMIN = 0.0010     energy-eigenvalue tresh-hold
   EBREAK =  0.13E-08  absolut break condition
   DEPER  =   0.30     relativ break condition  

   TIME   =   0.40     timestep for ELM

  volume/ion in A,a.u.               =      53.34       359.95
  Fermi-wavevector in a.u.,A,eV,Ry     =   0.790270  1.493393  8.497195  0.624526
  Thomas-Fermi vector in A             =   1.895578
 
 Write flags
   LWAVE        =      F    write WAVECAR
   LDOWNSAMPLE  =      F    k-point downsampling of WAVECAR
   LCHARG       =      F    write CHGCAR
   LVTOT        =      F    write LOCPOT, total local potential
   LVHAR        =      F    write LOCPOT, Hartree potential only
   LELF         =      F    write electronic localiz. function (ELF)
   LORBIT       =      0    0 simple, 1 ext, 2 COOP (PROOUT), +10 PAW based schemes


 Dipole corrections
   LMONO  =      F    monopole corrections only (constant potential shift)
   LDIPOL =      F    correct potential (dipole corrections)
   IDIPOL =      0    1-x, 2-y, 3-z, 4-all directions 
   EPSILON=  1.0000000 bulk dielectric constant

 Exchange correlation treatment:
   GGA     =    --    GGA type
   LEXCH   =     8    internal setting for exchange type
   VOSKOWN=      0    Vosko Wilk Nusair interpolation
   LHFCALC =     F    Hartree Fock is set to
   LHFONE  =     F    Hartree Fock one center treatment
   AEXX    =    0.0000 exact exchange contribution

 Linear response parameters
   LEPSILON=     F    determine dielectric tensor
   LRPA    =     F    only Hartree local field effects (RPA)
   LNABLA  =     F    use nabla operator in PAW spheres
   LVEL    =     F    velocity operator in full k-point grid
   LINTERFAST=   F  fast interpolation
   KINTER  =     0    interpolate to denser k-point grid
   CSHIFT  =0.1000    complex shift for real part using Kramers Kronig
   OMEGAMAX=  -1.0    maximum frequency
   DEG_THRESHOLD= 0.2000000E-02 threshold for treating states as degnerate
   RTIME   =   -0.100 relaxation time in fs
  (WPLASMAI=    0.000 imaginary part of plasma frequency in eV, 0.658/RTIME)
   DFIELD  = 0.0000000 0.0000000 0.0000000 field for delta impulse in time
 
 Orbital magnetization related:
   ORBITALMAG=     F  switch on orbital magnetization
   LCHIMAG   =     F  perturbation theory with respect to B field
   DQ        =  0.001000  dq finite difference perturbation B field
   LLRAUG    =     F  two centre corrections for induced B field



--------------------------------------------------------------------------------------------------------


 molecular dynamics for ions
   using nose mass (canonical ensemble)
 charge density and potential will be updated during run
 non-spin polarized calculation
 RMM-DIIS sequential band-by-band and
  variant of blocked Davidson during initial phase
 perform sub-space diagonalisation
    before iterative eigenvector-optimisation
 modified Broyden-mixing scheme, WC =      100.0
 initial mixing is a Kerker type mixing with AMIX =  0.4000 and BMIX =      1.0000
 Hartree-type preconditioning will be used
 using additional bands           38
 reciprocal scheme for non local part
 use partial core corrections
 calculate Harris-corrections to forces 
   (improved forces if not selfconsistent)
 use gradient corrections 
 use of overlap-Matrix (Vanderbilt PP)
 Gauss-broadening in eV      SIGMA  =   0.10


--------------------------------------------------------------------------------------------------------


  energy-cutoff  :      550.00
  volume of cell :     2880.34
      direct lattice vectors                 reciprocal lattice vectors
    10.496185163  0.000000000  0.000000000     0.095272710  0.054680325 -0.000599936
    -5.215737222  9.087682179  0.000000000     0.000000000  0.110039059 -0.000532260
     0.106319665  0.146061481 30.196658950     0.000000000  0.000000000  0.033116246

  length of vectors
    10.496185163 10.478066718 30.197199366     0.109850749  0.110040347  0.033116246


 
 k-points in units of 2pi/SCALE and weight: read from INCAR                         
   0.00000000  0.00000000  0.00000000       0.111
   0.03175757  0.01822678 -0.00019998       0.222
   0.00000000  0.03667969 -0.00017742       0.222
   0.03175757  0.05490646 -0.00037740       0.222
  -0.03175757  0.01845291  0.00002256       0.222
 
 k-points in reciprocal lattice and weights: read from INCAR                         
   0.00000000  0.00000000  0.00000000       0.111
   0.33333333 -0.00000000 -0.00000000       0.222
   0.00000000  0.33333333 -0.00000000       0.222
   0.33333333  0.33333333 -0.00000000       0.222
  -0.33333333  0.33333333  0.00000000       0.222
 
 position of ions in fractional coordinates (direct lattice) 
   0.22223682  0.11145547  0.67719352
   0.22235938  0.44455726  0.67755274
   0.22252106  0.77850924  0.67744107
   0.55553946  0.11111475  0.67740485
   0.55509839  0.44424728  0.67754671
   0.55524415  0.77832286  0.67741217
   0.88841054  0.11097972  0.67731842
   0.88877916  0.44434092  0.67731339
   0.88887411  0.77794397  0.67751487
   0.99999221  0.99999949  0.44336600
   0.99990238  0.33327974  0.44335372
   0.00060585  0.66683375  0.44359694
   0.33338677  0.99998597  0.44331929
   0.33262474  0.33306024  0.44342903
   0.33355507  0.66718516  0.44326515
   0.66733825  0.00039688  0.44345874
   0.66727063  0.33374507  0.44334102
   0.66679289  0.66658595  0.44331412
   0.22217924  0.11105319  0.55658502
   0.22228893  0.44450340  0.55656905
   0.22281628  0.77836444  0.55639080
   0.55535321  0.11101323  0.55650531
   0.55546662  0.44441243  0.55661517
   0.55591540  0.77833929  0.55668132
   0.88909262  0.11111951  0.55656378
   0.88865900  0.44430359  0.55668372
   0.88881742  0.77741762  0.55658147
   0.00029187  0.00013678  0.32249451
   0.00007256  0.33315069  0.32231995
   0.99974012  0.66683591  0.32237124
   0.33287549  0.99986703  0.32264323
   0.33344088  0.33326892  0.32259967
   0.33336945  0.66669967  0.32252200
   0.66664671  0.00026744  0.32278158
   0.66665271  0.33332589  0.32254006
   0.66668935  0.66667282  0.32254224
   0.00004596  0.99997636  0.61702767
   0.99931143  0.33311809  0.61685984
   0.99989330  0.66618180  0.61717323
   0.33340103  0.00094192  0.61697126
   0.33336978  0.33337474  0.61703710
   0.33371554  0.66668815  0.61703406
   0.66685105  0.00056139  0.61697390
   0.66593235  0.33342028  0.61702750
   0.66665577  0.66664266  0.61704907
   0.11112706  0.22227561  0.38300169
   0.11103561  0.55610927  0.38278788
   0.11100274  0.88888411  0.38300444
   0.44432852  0.22183080  0.38309469
   0.44414461  0.55554966  0.38299011
   0.44484901  0.88984919  0.38295595
   0.77791976  0.22180325  0.38285608
   0.77769079  0.55559333  0.38295925
   0.77771556  0.88884976  0.38300246
 
 position of ions in cartesian coordinates  (Angst):
   1.82331538  1.11178380 20.44898167
   0.08726854  4.13895947 20.45982911
  -1.65285209  7.17379257 20.45645692
   5.32352116  1.10871829 20.45536329
   3.58137496  4.13614154 20.45964693
   1.84044011  7.17209459 20.45558431
   8.81809279  1.10747854 20.45275328
   7.08323686  4.13695842 20.45260156
   5.34426908  7.16866641 20.45868548
   5.32750736  9.15243623 13.38817186
   8.80399820  3.09349721 13.38780120
  -3.42450736  6.12476557 13.39514559
  -1.66924123  9.15230658 13.38676132
   1.80128140  3.09151351 13.39007531
   0.06832113  6.12791063 13.38512645
   7.04958415  0.06837897 13.39097234
   5.31020538  3.09772416 13.38741748
   3.56917754  6.12247239 13.38660539
   1.81198612  1.09051174 16.80700810
   0.07394708  4.12079891 16.80652572
  -1.66186822  7.15479595 16.80114332
   5.30924173  1.09013696 16.80460114
   3.57152124  4.11997893 16.80791832
   1.83456391  7.15460977 16.80991588
   8.81168425  1.09111129 16.80636662
   7.06934508  4.11899986 16.80998831
   5.33356172  7.14621938 16.80690075
   0.03663759  0.04834705  9.73825665
  -1.70259593  3.07464616  9.73298549
   7.04969094  6.10707880  9.73453432
  -1.68681758  9.13359953  9.74274748
   1.79591280  3.07576140  9.74143220
   0.05606755  6.10586278  9.73908684
   7.03017048  0.04957634  9.74692531
   5.29306236  3.07627045  9.73963211
   3.55479719  6.10562167  9.73969804
  -5.14952938  9.17759133 18.63217426
   8.81708570  3.11737080 18.62710615
   7.08605360  6.14419375 18.63656956
   3.56012228  0.09867560 18.63047073
   1.82591902  3.11972906 18.63245898
   0.09107279  6.14877492 18.63236712
   7.06206046  0.09521785 18.63055038
   5.31631887  3.12014149 18.63216887
   3.58591389  6.14836376 18.63282031
   0.04779960  2.07591189 11.56537151
  -1.69437164  5.10965482 11.55891494
  -3.43035969  8.13383844 11.56545439
   3.54747375  2.07188321 11.56817977
   1.80494245  5.10459882 11.56502164
   0.06871376  8.14260175 11.56399030
   7.04902745  2.07159800 11.56097459
   5.30567384  5.10499122 11.56408988
   3.56776050  8.13352600 11.56539474
 


--------------------------------------------------------------------------------------------------------


 k-point   1 :   0.0000 0.0000 0.0000  plane waves:   84333
 k-point   2 :   0.3333-0.0000-0.0000  plane waves:   84352
 k-point   3 :   0.0000 0.3333-0.0000  plane waves:   84353
 k-point   4 :   0.3333 0.3333-0.0000  plane waves:   84413
 k-point   5 :  -0.3333 0.3333 0.0000  plane waves:   84361

 maximum and minimum number of plane-waves per node :     84413    84333

 maximum number of plane-waves:     84413
 maximum index in each direction: 
   IXMAX=   20   IYMAX=   20   IZMAX=   57
   IXMIN=  -20   IYMIN=  -20   IZMIN=  -57


 serial   3D FFT for wavefunctions
 parallel 3D FFT for charge:
    minimum data exchange during FFTs selected (reduces bandwidth)


 total amount of memory used by VASP MPI-rank0   354813. kBytes
=======================================================================

   base      :      30000. kBytes
   nonl-proj :     194549. kBytes
   fftplans  :      16533. kBytes
   grid      :      78796. kBytes
   one-center:        839. kBytes
   wavefun   :      34096. kBytes
 
     INWAV:  cpu time    0.0000: real time    0.0000
 Broyden mixing: mesh for mixing (old mesh)
   NGX = 41   NGY = 41   NGZ =115
  (NGX  =160   NGY  =160   NGZ  =480)
  gives a total of 193315 points

 initial charge density was supplied:
 charge density of overlapping atoms calculated
 number of electron     324.0000000 magnetization 
 keeping initial charge density in first step


--------------------------------------------------------------------------------------------------------


 Maximum index for augmentation-charges         1156 (set IRDMAX)


--------------------------------------------------------------------------------------------------------


 First call to EWALD:  gamma=   0.125
 Maximum number of real-space cells 4x 4x 2
 Maximum number of reciprocal cells 2x 2x 5

    FEWALD:  cpu time    0.0021: real time    0.0021


--------------------------------------- Iteration      1(   1)  ---------------------------------------


    POTLOK:  cpu time    0.2644: real time    0.2657
    SETDIJ:  cpu time    0.0123: real time    0.0125
     EDDAV:  cpu time   46.3833: real time   46.4724
       DOS:  cpu time    0.0010: real time    0.0010
    --------------------------------------------
      LOOP:  cpu time   46.6610: real time   46.7517

 eigenvalue-minimisations  :  2000
 total energy-change (2. order) : 0.2121777E+04  (-0.1155942E+05)
 number of electron     324.0000000 magnetization 
 augmentation part      324.0000000 magnetization 

 Free energy of the ion-electron system (eV)
  ---------------------------------------------------
  alpha Z        PSCENC =       249.16037291
  Ewald energy   TEWEN  =     65562.86978585
  -Hartree energ DENC   =    -77255.24674743
  -exchange      EXHF   =         0.00000000
  -V(xc)+E(xc)   XCENC  =     -2098.78859552
  PAW double counting   =      7476.04436201    -4809.59211051
  entropy T*S    EENTRO =        -0.12679808
  eigenvalues    EBANDS =      1044.37432639
  atomic energy  EATOM  =     11953.08265402
  Solvation  Ediel_sol  =         0.00000000
  ---------------------------------------------------
  free energy    TOTEN  =      2121.77724965 eV

  energy without entropy =     2121.90404774  energy(sigma->0) =     2121.84064870


--------------------------------------------------------------------------------------------------------




--------------------------------------- Iteration      1(   2)  ---------------------------------------


     EDDAV:  cpu time   65.5310: real time   65.6571
       DOS:  cpu time    0.0006: real time    0.0006
    --------------------------------------------
      LOOP:  cpu time   65.5315: real time   65.6577

 eigenvalue-minimisations  :  3080
 total energy-change (2. order) :-0.2222871E+04  (-0.2146915E+04)
 number of electron     324.0000000 magnetization 
 augmentation part      324.0000000 magnetization 

 Free energy of the ion-electron system (eV)
  ---------------------------------------------------
  alpha Z        PSCENC =       249.16037291
  Ewald energy   TEWEN  =     65562.86978585
  -Hartree energ DENC   =    -77255.24674743
  -exchange      EXHF   =         0.00000000
  -V(xc)+E(xc)   XCENC  =     -2098.78859552
  PAW double counting   =      7476.04436201    -4809.59211051
  entropy T*S    EENTRO =        -0.00011740
  eigenvalues    EBANDS =     -1178.62377441
  atomic energy  EATOM  =     11953.08265402
  Solvation  Ediel_sol  =         0.00000000
  ---------------------------------------------------
  free energy    TOTEN  =      -101.09417047 eV

  energy without entropy =     -101.09405307  energy(sigma->0) =     -101.09411177


--------------------------------------------------------------------------------------------------------




--------------------------------------- Iteration      1(   3)  ---------------------------------------


     EDDAV:  cpu time   55.4797: real time   55.5795
       DOS:  cpu time    0.0004: real time    0.0004
    --------------------------------------------
      LOOP:  cpu time   55.4801: real time   55.5798

 eigenvalue-minimisations  :  2520
 total energy-change (2. order) :-0.2242423E+03  (-0.2211791E+03)
 number of electron     324.0000000 magnetization 
 augmentation part      324.0000000 magnetization 

 Free energy of the ion-electron system (eV)
  ---------------------------------------------------
  alpha Z        PSCENC =       249.16037291
  Ewald energy   TEWEN  =     65562.86978585
  -Hartree energ DENC   =    -77255.24674743
  -exchange      EXHF   =         0.00000000
  -V(xc)+E(xc)   XCENC  =     -2098.78859552
  PAW double counting   =      7476.04436201    -4809.59211051
  entropy T*S    EENTRO =        -0.00000000
  eigenvalues    EBANDS =     -1402.86617703
  atomic energy  EATOM  =     11953.08265402
  Solvation  Ediel_sol  =         0.00000000
  ---------------------------------------------------
  free energy    TOTEN  =      -325.33645568 eV

  energy without entropy =     -325.33645568  energy(sigma->0) =     -325.33645568


--------------------------------------------------------------------------------------------------------




--------------------------------------- Iteration      1(   4)  ---------------------------------------


     EDDAV:  cpu time   65.9051: real time   66.0443
       DOS:  cpu time    0.0004: real time    0.0004
    --------------------------------------------
      LOOP:  cpu time   65.9055: real time   66.0447

 eigenvalue-minimisations  :  3080
 total energy-change (2. order) :-0.1084338E+02  (-0.1077890E+02)
 number of electron     324.0000000 magnetization 
 augmentation part      324.0000000 magnetization 

 Free energy of the ion-electron system (eV)
  ---------------------------------------------------
  alpha Z        PSCENC =       249.16037291
  Ewald energy   TEWEN  =     65562.86978585
  -Hartree energ DENC   =    -77255.24674743
  -exchange      EXHF   =         0.00000000
  -V(xc)+E(xc)   XCENC  =     -2098.78859552
  PAW double counting   =      7476.04436201    -4809.59211051
  entropy T*S    EENTRO =        -0.00000000
  eigenvalues    EBANDS =     -1413.70955281
  atomic energy  EATOM  =     11953.08265402
  Solvation  Ediel_sol  =         0.00000000
  ---------------------------------------------------
  free energy    TOTEN  =      -336.17983147 eV

  energy without entropy =     -336.17983147  energy(sigma->0) =     -336.17983147


--------------------------------------------------------------------------------------------------------




--------------------------------------- Iteration      1(   5)  ---------------------------------------


     EDDAV:  cpu time   64.3837: real time   64.5355
       DOS:  cpu time    0.0004: real time    0.0004
    CHARGE:  cpu time    1.0743: real time    1.0757
    MIXING:  cpu time    0.0111: real time    0.0114
    --------------------------------------------
      LOOP:  cpu time   65.4695: real time   65.6230

 eigenvalue-minimisations  :  3000
 total energy-change (2. order) :-0.3124351E+00  (-0.3118872E+00)
 number of electron     324.0000002 magnetization 
 augmentation part      -25.3900853 magnetization 

 Broyden mixing:
  rms(total) = 0.18883E+01    rms(broyden)= 0.18883E+01
  rms(prec ) = 0.19962E+01
  weight for this iteration     100.00

 Free energy of the ion-electron system (eV)
  ---------------------------------------------------
  alpha Z        PSCENC =       249.16037291
  Ewald energy   TEWEN  =     65562.86978585
  -Hartree energ DENC   =    -77255.24674743
  -exchange      EXHF   =         0.00000000
  -V(xc)+E(xc)   XCENC  =     -2098.78859552
  PAW double counting   =      7476.04436201    -4809.59211051
  entropy T*S    EENTRO =        -0.00000000
  eigenvalues    EBANDS =     -1414.02198789
  atomic energy  EATOM  =     11953.08265402
  Solvation  Ediel_sol  =         0.00000000
  ---------------------------------------------------
  free energy    TOTEN  =      -336.49226655 eV

  energy without entropy =     -336.49226655  energy(sigma->0) =     -336.49226655


--------------------------------------------------------------------------------------------------------




--------------------------------------- Iteration      1(   6)  ---------------------------------------


    POTLOK:  cpu time    0.2349: real time    0.2390
    SETDIJ:  cpu time    0.0105: real time    0.0105
    EDDIAG:  cpu time    2.3850: real time    2.3879
  RMM-DIIS:  cpu time   39.5479: real time   39.6907
    ORTHCH:  cpu time    0.2332: real time    0.2334
       DOS:  cpu time    0.0004: real time    0.0004
    CHARGE:  cpu time    1.0825: real time    1.0837
    MIXING:  cpu time    0.0066: real time    0.0068
    --------------------------------------------
      LOOP:  cpu time   43.5010: real time   43.6524

 eigenvalue-minimisations  :  2129
 total energy-change (2. order) : 0.9011116E+01  (-0.4974790E+01)
 number of electron     324.0000002 magnetization 
 augmentation part      -20.1256870 magnetization 

 Broyden mixing:
  rms(total) = 0.69833E+00    rms(broyden)= 0.69833E+00
  rms(prec ) = 0.80476E+00
  weight for this iteration     100.00

 eigenvalues of (default mixing * dielectric matrix)
  average eigenvalue GAMMA=   1.0804
  1.0804

 Free energy of the ion-electron system (eV)
  ---------------------------------------------------
  alpha Z        PSCENC =       249.16037291
  Ewald energy   TEWEN  =     65562.86978585
  -Hartree energ DENC   =    -77239.09374106
  -exchange      EXHF   =         0.00000000
  -V(xc)+E(xc)   XCENC  =     -2092.40369788
  PAW double counting   =      7692.52535441    -5037.52465140
  entropy T*S    EENTRO =        -0.00000000
  eigenvalues    EBANDS =     -1416.09722731
  atomic energy  EATOM  =     11953.08265402
  Solvation  Ediel_sol  =         0.00000000
  ---------------------------------------------------
  free energy    TOTEN  =      -327.48115045 eV

  energy without entropy =     -327.48115045  energy(sigma->0) =     -327.48115045


--------------------------------------------------------------------------------------------------------




--------------------------------------- Iteration      1(   7)  ---------------------------------------


    POTLOK:  cpu time    0.2369: real time    0.2371
    SETDIJ:  cpu time    0.0107: real time    0.0107
    EDDIAG:  cpu time    2.3729: real time    2.3796
  RMM-DIIS:  cpu time   37.3575: real time   37.4359
    ORTHCH:  cpu time    0.2365: real time    0.2371
       DOS:  cpu time    0.0004: real time    0.0004
    CHARGE:  cpu time    1.0741: real time    1.0793
    MIXING:  cpu time    0.0066: real time    0.0066
    --------------------------------------------
      LOOP:  cpu time   41.2955: real time   41.3866

 eigenvalue-minimisations  :  2012
 total energy-change (2. order) : 0.3088174E+01  (-0.1049715E+01)
 number of electron     324.0000002 magnetization 
 augmentation part      -21.8108416 magnetization 

 Broyden mixing:
  rms(total) = 0.46172E+00    rms(broyden)= 0.46172E+00
  rms(prec ) = 0.48796E+00
  weight for this iteration     100.00

 eigenvalues of (default mixing * dielectric matrix)
  average eigenvalue GAMMA=   1.4699
  0.7408  2.1990

 Free energy of the ion-electron system (eV)
  ---------------------------------------------------
  alpha Z        PSCENC =       249.16037291
  Ewald energy   TEWEN  =     65562.86978585
  -Hartree energ DENC   =    -77327.39229697
  -exchange      EXHF   =         0.00000000
  -V(xc)+E(xc)   XCENC  =     -2090.90906502
  PAW double counting   =      7989.07924077    -5339.39936464
  entropy T*S    EENTRO =        -0.00000000
  eigenvalues    EBANDS =     -1320.88430349
  atomic energy  EATOM  =     11953.08265402
  Solvation  Ediel_sol  =         0.00000000
  ---------------------------------------------------
  free energy    TOTEN  =      -324.39297657 eV

  energy without entropy =     -324.39297657  energy(sigma->0) =     -324.39297657


--------------------------------------------------------------------------------------------------------




--------------------------------------- Iteration      1(   8)  ---------------------------------------


    POTLOK:  cpu time    0.2307: real time    0.2309
    SETDIJ:  cpu time    0.0143: real time    0.0143
    EDDIAG:  cpu time    2.3782: real time    2.3888
  RMM-DIIS:  cpu time   36.7351: real time   36.8233
    ORTHCH:  cpu time    0.2171: real time    0.2173
       DOS:  cpu time    0.0004: real time    0.0004
    CHARGE:  cpu time    1.0821: real time    1.0831
    MIXING:  cpu time    0.0067: real time    0.0067
    --------------------------------------------
      LOOP:  cpu time   40.6644: real time   40.7647

 eigenvalue-minimisations  :  2004
 total energy-change (2. order) : 0.4351649E+00  (-0.6995206E+00)
 number of electron     324.0000002 magnetization 
 augmentation part      -21.5070596 magnetization 

 Broyden mixing:
  rms(total) = 0.11527E+00    rms(broyden)= 0.11527E+00
  rms(prec ) = 0.13336E+00
  weight for this iteration     100.00

 eigenvalues of (default mixing * dielectric matrix)
  average eigenvalue GAMMA=   1.3234
  2.0983  1.0827  0.7893

 Free energy of the ion-electron system (eV)
  ---------------------------------------------------
  alpha Z        PSCENC =       249.16037291
  Ewald energy   TEWEN  =     65562.86978585
  -Hartree energ DENC   =    -77384.05033959
  -exchange      EXHF   =         0.00000000
  -V(xc)+E(xc)   XCENC  =     -2087.14512119
  PAW double counting   =      8288.48608953    -5645.02653595
  entropy T*S    EENTRO =        -0.00000000
  eigenvalues    EBANDS =     -1261.33471731
  atomic energy  EATOM  =     11953.08265402
  Solvation  Ediel_sol  =         0.00000000
  ---------------------------------------------------
  free energy    TOTEN  =      -323.95781171 eV

  energy without entropy =     -323.95781171  energy(sigma->0) =     -323.95781171


--------------------------------------------------------------------------------------------------------




--------------------------------------- Iteration      1(   9)  ---------------------------------------


    POTLOK:  cpu time    0.2322: real time    0.2324
    SETDIJ:  cpu time    0.0139: real time    0.0139
    EDDIAG:  cpu time    2.3822: real time    2.3888
  RMM-DIIS:  cpu time   42.1134: real time   42.2156
    ORTHCH:  cpu time    0.2149: real time    0.2206
       DOS:  cpu time    0.0004: real time    0.0004
    CHARGE:  cpu time    1.0798: real time    1.0808
    MIXING:  cpu time    0.0071: real time    0.0071
    --------------------------------------------
      LOOP:  cpu time   46.0439: real time   46.1596

 eigenvalue-minimisations  :  2232
 total energy-change (2. order) :-0.5457461E-01  (-0.1433472E+00)
 number of electron     324.0000002 magnetization 
 augmentation part      -21.0584339 magnetization 

 Broyden mixing:
  rms(total) = 0.98443E-01    rms(broyden)= 0.98442E-01
  rms(prec ) = 0.10874E+00
  weight for this iteration     100.00

 eigenvalues of (default mixing * dielectric matrix)
  average eigenvalue GAMMA=   1.1990
  1.9514  1.6150  0.7183  0.5114

 Free energy of the ion-electron system (eV)
  ---------------------------------------------------
  alpha Z        PSCENC =       249.16037291
  Ewald energy   TEWEN  =     65562.86978585
  -Hartree energ DENC   =    -77381.91750831
  -exchange      EXHF   =         0.00000000
  -V(xc)+E(xc)   XCENC  =     -2086.79038934
  PAW double counting   =      8291.67727580    -5648.39204459
  entropy T*S    EENTRO =        -0.00000000
  eigenvalues    EBANDS =     -1263.70253268
  atomic energy  EATOM  =     11953.08265402
  Solvation  Ediel_sol  =         0.00000000
  ---------------------------------------------------
  free energy    TOTEN  =      -324.01238633 eV

  energy without entropy =     -324.01238633  energy(sigma->0) =     -324.01238633


--------------------------------------------------------------------------------------------------------




--------------------------------------- Iteration      1(  10)  ---------------------------------------


    POTLOK:  cpu time    0.2444: real time    0.2446
    SETDIJ:  cpu time    0.0107: real time    0.0108
    EDDIAG:  cpu time    2.4017: real time    2.4084
  RMM-DIIS:  cpu time   45.8365: real time   45.9247
    ORTHCH:  cpu time    0.2192: real time    0.2194
       DOS:  cpu time    0.0004: real time    0.0004
    CHARGE:  cpu time    1.0756: real time    1.0770
    MIXING:  cpu time    0.0153: real time    0.0153
    --------------------------------------------
      LOOP:  cpu time   49.8037: real time   49.9006

 eigenvalue-minimisations  :  2441
 total energy-change (2. order) :-0.2563011E-02  (-0.3274263E-01)
 number of electron     324.0000002 magnetization 
 augmentation part      -21.0046013 magnetization 

 Broyden mixing:
  rms(total) = 0.69701E-01    rms(broyden)= 0.69700E-01
  rms(prec ) = 0.78305E-01
  weight for this iteration     100.00

 eigenvalues of (default mixing * dielectric matrix)
  average eigenvalue GAMMA=   1.2989
  2.3246  1.9136  0.9517  0.9109  0.3938

 Free energy of the ion-electron system (eV)
  ---------------------------------------------------
  alpha Z        PSCENC =       249.16037291
  Ewald energy   TEWEN  =     65562.86978585
  -Hartree energ DENC   =    -77386.80071643
  -exchange      EXHF   =         0.00000000
  -V(xc)+E(xc)   XCENC  =     -2086.63249965
  PAW double counting   =      8310.60062850    -5667.36443075
  entropy T*S    EENTRO =        -0.00000000
  eigenvalues    EBANDS =     -1258.93074380
  atomic energy  EATOM  =     11953.08265402
  Solvation  Ediel_sol  =         0.00000000
  ---------------------------------------------------
  free energy    TOTEN  =      -324.01494934 eV

  energy without entropy =     -324.01494934  energy(sigma->0) =     -324.01494934


--------------------------------------------------------------------------------------------------------




--------------------------------------- Iteration      1(  11)  ---------------------------------------


    POTLOK:  cpu time    0.2330: real time    0.2332
    SETDIJ:  cpu time    0.0148: real time    0.0148
    EDDIAG:  cpu time    2.4084: real time    2.4108
  RMM-DIIS:  cpu time   39.2898: real time   39.3671
    ORTHCH:  cpu time    0.2108: real time    0.2110
       DOS:  cpu time    0.0004: real time    0.0004
    CHARGE:  cpu time    1.0811: real time    1.0821
    MIXING:  cpu time    0.0072: real time    0.0072
    --------------------------------------------
      LOOP:  cpu time   43.2454: real time   43.3266

 eigenvalue-minimisations  :  2120
 total energy-change (2. order) : 0.9925913E-02  (-0.1800210E-01)
 number of electron     324.0000002 magnetization 
 augmentation part      -21.3161181 magnetization 

 Broyden mixing:
  rms(total) = 0.36759E-01    rms(broyden)= 0.36759E-01
  rms(prec ) = 0.41713E-01
  weight for this iteration     100.00

 eigenvalues of (default mixing * dielectric matrix)
  average eigenvalue GAMMA=   1.2648
  2.5172  1.5992  1.5992  0.7447  0.7447  0.3837

 Free energy of the ion-electron system (eV)
  ---------------------------------------------------
  alpha Z        PSCENC =       249.16037291
  Ewald energy   TEWEN  =     65562.86978585
  -Hartree energ DENC   =    -77403.87860323
  -exchange      EXHF   =         0.00000000
  -V(xc)+E(xc)   XCENC  =     -2086.41958776
  PAW double counting   =      8357.69765763    -5714.63581897
  entropy T*S    EENTRO =        -0.00000000
  eigenvalues    EBANDS =     -1241.88148389
  atomic energy  EATOM  =     11953.08265402
  Solvation  Ediel_sol  =         0.00000000
  ---------------------------------------------------
  free energy    TOTEN  =      -324.00502343 eV

  energy without entropy =     -324.00502343  energy(sigma->0) =     -324.00502343


--------------------------------------------------------------------------------------------------------




--------------------------------------- Iteration      1(  12)  ---------------------------------------


    POTLOK:  cpu time    0.2445: real time    0.2447
    SETDIJ:  cpu time    0.0139: real time    0.0139
    EDDIAG:  cpu time    2.3871: real time    2.3980
  RMM-DIIS:  cpu time   43.2373: real time   43.3621
    ORTHCH:  cpu time    0.2072: real time    0.2074
       DOS:  cpu time    0.0004: real time    0.0004
    CHARGE:  cpu time    1.0775: real time    1.0786
    MIXING:  cpu time    0.0084: real time    0.0084
    --------------------------------------------
      LOOP:  cpu time   47.1763: real time   47.3135

 eigenvalue-minimisations  :  2303
 total energy-change (2. order) : 0.2482927E-02  (-0.3021106E-02)
 number of electron     324.0000002 magnetization 
 augmentation part      -21.2769356 magnetization 

 Broyden mixing:
  rms(total) = 0.23922E-01    rms(broyden)= 0.23922E-01
  rms(prec ) = 0.27803E-01
  weight for this iteration     100.00

 eigenvalues of (default mixing * dielectric matrix)
  average eigenvalue GAMMA=   1.2228
  2.5285  1.8159  1.8159  0.8058  0.8058  0.4105  0.3769

 Free energy of the ion-electron system (eV)
  ---------------------------------------------------
  alpha Z        PSCENC =       249.16037291
  Ewald energy   TEWEN  =     65562.86978585
  -Hartree energ DENC   =    -77407.31605464
  -exchange      EXHF   =         0.00000000
  -V(xc)+E(xc)   XCENC  =     -2086.30335879
  PAW double counting   =      8360.37999236    -5717.34740004
  entropy T*S    EENTRO =        -0.00000000
  eigenvalues    EBANDS =     -1238.52853218
  atomic energy  EATOM  =     11953.08265402
  Solvation  Ediel_sol  =         0.00000000
  ---------------------------------------------------
  free energy    TOTEN  =      -324.00254050 eV

  energy without entropy =     -324.00254050  energy(sigma->0) =     -324.00254050


--------------------------------------------------------------------------------------------------------




--------------------------------------- Iteration      1(  13)  ---------------------------------------


    POTLOK:  cpu time    0.2465: real time    0.2467
    SETDIJ:  cpu time    0.0106: real time    0.0106
    EDDIAG:  cpu time    2.3840: real time    2.3949
  RMM-DIIS:  cpu time   44.8026: real time   44.9068
    ORTHCH:  cpu time    0.2255: real time    0.2258
       DOS:  cpu time    0.0004: real time    0.0004
    CHARGE:  cpu time    1.0748: real time    1.0759
    MIXING:  cpu time    0.0113: real time    0.0113
    --------------------------------------------
      LOOP:  cpu time   48.7557: real time   48.8724

 eigenvalue-minimisations  :  2407
 total energy-change (2. order) : 0.8525587E-03  (-0.1987785E-02)
 number of electron     324.0000002 magnetization 
 augmentation part      -21.1901280 magnetization 

 Broyden mixing:
  rms(total) = 0.96737E-02    rms(broyden)= 0.96736E-02
  rms(prec ) = 0.12452E-01
  weight for this iteration     100.00

 eigenvalues of (default mixing * dielectric matrix)
  average eigenvalue GAMMA=   1.2216
  2.4081  2.0447  2.0447  0.9105  0.7880  0.7880  0.4114  0.3777

 Free energy of the ion-electron system (eV)
  ---------------------------------------------------
  alpha Z        PSCENC =       249.16037291
  Ewald energy   TEWEN  =     65562.86978585
  -Hartree energ DENC   =    -77409.52830442
  -exchange      EXHF   =         0.00000000
  -V(xc)+E(xc)   XCENC  =     -2086.23723113
  PAW double counting   =      8357.69794532    -5714.65007036
  entropy T*S    EENTRO =        -0.00000000
  eigenvalues    EBANDS =     -1236.39684015
  atomic energy  EATOM  =     11953.08265402
  Solvation  Ediel_sol  =         0.00000000
  ---------------------------------------------------
  free energy    TOTEN  =      -324.00168794 eV

  energy without entropy =     -324.00168794  energy(sigma->0) =     -324.00168794


--------------------------------------------------------------------------------------------------------




--------------------------------------- Iteration      1(  14)  ---------------------------------------


    POTLOK:  cpu time    0.2376: real time    0.2379
    SETDIJ:  cpu time    0.0106: real time    0.0107
    EDDIAG:  cpu time    2.4034: real time    2.4061
  RMM-DIIS:  cpu time   49.5417: real time   49.6374
    ORTHCH:  cpu time    0.2167: real time    0.2169
       DOS:  cpu time    0.0004: real time    0.0004
    CHARGE:  cpu time    1.0696: real time    1.0707
    MIXING:  cpu time    0.0078: real time    0.0078
    --------------------------------------------
      LOOP:  cpu time   53.4878: real time   53.5878

 eigenvalue-minimisations  :  2632
 total energy-change (2. order) :-0.6206617E-03  (-0.5538366E-03)
 number of electron     324.0000002 magnetization 
 augmentation part      -21.1824991 magnetization 

 Broyden mixing:
  rms(total) = 0.75250E-02    rms(broyden)= 0.75250E-02
  rms(prec ) = 0.99802E-02
  weight for this iteration     100.00

 eigenvalues of (default mixing * dielectric matrix)
  average eigenvalue GAMMA=   1.3451
  3.2989  2.5980  1.6228  1.6228  0.7957  0.7957  0.5874  0.4092  0.3758

 Free energy of the ion-electron system (eV)
  ---------------------------------------------------
  alpha Z        PSCENC =       249.16037291
  Ewald energy   TEWEN  =     65562.86978585
  -Hartree energ DENC   =    -77414.18074861
  -exchange      EXHF   =         0.00000000
  -V(xc)+E(xc)   XCENC  =     -2086.22297222
  PAW double counting   =      8356.09944423    -5712.98858814
  entropy T*S    EENTRO =        -0.00000000
  eigenvalues    EBANDS =     -1231.82225666
  atomic energy  EATOM  =     11953.08265402
  Solvation  Ediel_sol  =         0.00000000
  ---------------------------------------------------
  free energy    TOTEN  =      -324.00230860 eV

  energy without entropy =     -324.00230860  energy(sigma->0) =     -324.00230860


--------------------------------------------------------------------------------------------------------




--------------------------------------- Iteration      1(  15)  ---------------------------------------


    POTLOK:  cpu time    0.2381: real time    0.2384
    SETDIJ:  cpu time    0.0121: real time    0.0121
    EDDIAG:  cpu time    2.3804: real time    2.3869
  RMM-DIIS:  cpu time   40.1750: real time   40.2795
    ORTHCH:  cpu time    0.2057: real time    0.2059
       DOS:  cpu time    0.0004: real time    0.0004
    CHARGE:  cpu time    1.0825: real time    1.0837
    MIXING:  cpu time    0.0095: real time    0.0095
    --------------------------------------------
      LOOP:  cpu time   44.1036: real time   44.2163

 eigenvalue-minimisations  :  2143
 total energy-change (2. order) :-0.6235439E-03  (-0.1992579E-03)
 number of electron     324.0000002 magnetization 
 augmentation part      -21.2094790 magnetization 

 Broyden mixing:
  rms(total) = 0.53881E-02    rms(broyden)= 0.53881E-02
  rms(prec ) = 0.64584E-02
  weight for this iteration     100.00

 eigenvalues of (default mixing * dielectric matrix)
  average eigenvalue GAMMA=   1.3039
  3.4411  2.5407  1.7308  1.7308  0.7881  0.7881  0.6199  0.6199  0.4044  0.3750

 Free energy of the ion-electron system (eV)
  ---------------------------------------------------
  alpha Z        PSCENC =       249.16037291
  Ewald energy   TEWEN  =     65562.86978585
  -Hartree energ DENC   =    -77420.92980552
  -exchange      EXHF   =         0.00000000
  -V(xc)+E(xc)   XCENC  =     -2086.20652003
  PAW double counting   =      8355.61258424    -5712.44822516
  entropy T*S    EENTRO =        -0.00000000
  eigenvalues    EBANDS =     -1225.14377847
  atomic energy  EATOM  =     11953.08265402
  Solvation  Ediel_sol  =         0.00000000
  ---------------------------------------------------
  free energy    TOTEN  =      -324.00293215 eV

  energy without entropy =     -324.00293215  energy(sigma->0) =     -324.00293215


--------------------------------------------------------------------------------------------------------




--------------------------------------- Iteration      1(  16)  ---------------------------------------


    POTLOK:  cpu time    0.2295: real time    0.2338
    SETDIJ:  cpu time    0.0141: real time    0.0141
    EDDIAG:  cpu time    2.3812: real time    2.3924
  RMM-DIIS:  cpu time   47.0140: real time   47.1183
    ORTHCH:  cpu time    0.2363: real time    0.2365
       DOS:  cpu time    0.0004: real time    0.0004
    CHARGE:  cpu time    1.0790: real time    1.0805
    MIXING:  cpu time    0.0084: real time    0.0084
    --------------------------------------------
      LOOP:  cpu time   50.9629: real time   51.0844

 eigenvalue-minimisations  :  2491
 total energy-change (2. order) :-0.6816994E-03  (-0.6807193E-04)
 number of electron     324.0000002 magnetization 
 augmentation part      -21.2121481 magnetization 

 Broyden mixing:
  rms(total) = 0.45134E-02    rms(broyden)= 0.45134E-02
  rms(prec ) = 0.53857E-02
  weight for this iteration     100.00

 eigenvalues of (default mixing * dielectric matrix)
  average eigenvalue GAMMA=   1.3106
  3.4296  2.3461  2.0732  2.0732  1.1205  0.7928  0.7928  0.6085  0.3747  0.4107
  0.3943

 Free energy of the ion-electron system (eV)
  ---------------------------------------------------
  alpha Z        PSCENC =       249.16037291
  Ewald energy   TEWEN  =     65562.86978585
  -Hartree energ DENC   =    -77422.45191202
  -exchange      EXHF   =         0.00000000
  -V(xc)+E(xc)   XCENC  =     -2086.19573958
  PAW double counting   =      8355.36261236    -5712.21005876
  entropy T*S    EENTRO =        -0.00000000
  eigenvalues    EBANDS =     -1223.62132863
  atomic energy  EATOM  =     11953.08265402
  Solvation  Ediel_sol  =         0.00000000
  ---------------------------------------------------
  free energy    TOTEN  =      -324.00361384 eV

  energy without entropy =     -324.00361384  energy(sigma->0) =     -324.00361384


--------------------------------------------------------------------------------------------------------




--------------------------------------- Iteration      1(  17)  ---------------------------------------


    POTLOK:  cpu time    0.2384: real time    0.2386
    SETDIJ:  cpu time    0.0105: real time    0.0105
    EDDIAG:  cpu time    2.3901: real time    2.3925
  RMM-DIIS:  cpu time   38.8131: real time   38.9120
    ORTHCH:  cpu time    0.2169: real time    0.2171
       DOS:  cpu time    0.0004: real time    0.0004
    CHARGE:  cpu time    1.0845: real time    1.0938
    MIXING:  cpu time    0.0092: real time    0.0092
    --------------------------------------------
      LOOP:  cpu time   42.7631: real time   42.8740

 eigenvalue-minimisations  :  2073
 total energy-change (2. order) :-0.1295230E-02  (-0.3412430E-04)
 number of electron     324.0000002 magnetization 
 augmentation part      -21.2038730 magnetization 

 Broyden mixing:
  rms(total) = 0.15940E-02    rms(broyden)= 0.15940E-02
  rms(prec ) = 0.23129E-02
  weight for this iteration     100.00

 eigenvalues of (default mixing * dielectric matrix)
  average eigenvalue GAMMA=   1.4180
  4.5835  2.5634  2.3734  1.5947  1.5947  0.9456  0.7965  0.7965  0.6020  0.4051
  0.3752  0.3859

 Free energy of the ion-electron system (eV)
  ---------------------------------------------------
  alpha Z        PSCENC =       249.16037291
  Ewald energy   TEWEN  =     65562.86978585
  -Hartree energ DENC   =    -77424.94234562
  -exchange      EXHF   =         0.00000000
  -V(xc)+E(xc)   XCENC  =     -2086.17576672
  PAW double counting   =      8354.49866454    -5711.37245265
  entropy T*S    EENTRO =        -0.00000000
  eigenvalues    EBANDS =     -1221.12582141
  atomic energy  EATOM  =     11953.08265402
  Solvation  Ediel_sol  =         0.00000000
  ---------------------------------------------------
  free energy    TOTEN  =      -324.00490908 eV

  energy without entropy =     -324.00490908  energy(sigma->0) =     -324.00490908


--------------------------------------------------------------------------------------------------------




--------------------------------------- Iteration      1(  18)  ---------------------------------------


    POTLOK:  cpu time    0.2406: real time    0.2409
    SETDIJ:  cpu time    0.0105: real time    0.0105
    EDDIAG:  cpu time    2.4055: real time    2.4082
  RMM-DIIS:  cpu time   40.5390: real time   40.6384
    ORTHCH:  cpu time    0.2107: real time    0.2109
       DOS:  cpu time    0.0004: real time    0.0004
    CHARGE:  cpu time    1.0782: real time    1.0794
    MIXING:  cpu time    0.0090: real time    0.0090
    --------------------------------------------
      LOOP:  cpu time   44.4938: real time   44.5977

 eigenvalue-minimisations  :  2153
 total energy-change (2. order) :-0.1074886E-02  (-0.2509546E-04)
 number of electron     324.0000002 magnetization 
 augmentation part      -21.2016956 magnetization 

 Broyden mixing:
  rms(total) = 0.14924E-02    rms(broyden)= 0.14924E-02
  rms(prec ) = 0.18183E-02
  weight for this iteration     100.00

 eigenvalues of (default mixing * dielectric matrix)
  average eigenvalue GAMMA=   1.4167
  5.1719  2.6642  2.3028  1.7281  1.7281  0.9931  0.7972  0.7972  0.6025  0.4637
  0.4064  0.3765  0.3848

 Free energy of the ion-electron system (eV)
  ---------------------------------------------------
  alpha Z        PSCENC =       249.16037291
  Ewald energy   TEWEN  =     65562.86978585
  -Hartree energ DENC   =    -77427.39274520
  -exchange      EXHF   =         0.00000000
  -V(xc)+E(xc)   XCENC  =     -2086.16728588
  PAW double counting   =      8353.85546263    -5710.72201082
  entropy T*S    EENTRO =        -0.00000000
  eigenvalues    EBANDS =     -1218.69221749
  atomic energy  EATOM  =     11953.08265402
  Solvation  Ediel_sol  =         0.00000000
  ---------------------------------------------------
  free energy    TOTEN  =      -324.00598396 eV

  energy without entropy =     -324.00598396  energy(sigma->0) =     -324.00598396


--------------------------------------------------------------------------------------------------------




--------------------------------------- Iteration      1(  19)  ---------------------------------------


    POTLOK:  cpu time    0.2381: real time    0.2395
    SETDIJ:  cpu time    0.0176: real time    0.0176
    EDDIAG:  cpu time    2.3975: real time    2.4041
  RMM-DIIS:  cpu time   44.4301: real time   44.5159
    ORTHCH:  cpu time    0.2178: real time    0.2180
       DOS:  cpu time    0.0004: real time    0.0004
    CHARGE:  cpu time    1.0796: real time    1.0807
    MIXING:  cpu time    0.0089: real time    0.0089
    --------------------------------------------
      LOOP:  cpu time   48.3899: real time   48.4852

 eigenvalue-minimisations  :  2388
 total energy-change (2. order) :-0.3562918E-03  (-0.6436697E-05)
 number of electron     324.0000002 magnetization 
 augmentation part      -21.2012061 magnetization 

 Broyden mixing:
  rms(total) = 0.99985E-03    rms(broyden)= 0.99985E-03
  rms(prec ) = 0.12406E-02
  weight for this iteration     100.00

 eigenvalues of (default mixing * dielectric matrix)
  average eigenvalue GAMMA=   1.5130
  6.1368  2.9118  2.3530  1.9724  1.9724  1.0396  1.0396  0.8001  0.8001  0.6004
  0.4071  0.4034  0.3727  0.3727

 Free energy of the ion-electron system (eV)
  ---------------------------------------------------
  alpha Z        PSCENC =       249.16037291
  Ewald energy   TEWEN  =     65562.86978585
  -Hartree energ DENC   =    -77427.94128186
  -exchange      EXHF   =         0.00000000
  -V(xc)+E(xc)   XCENC  =     -2086.16675416
  PAW double counting   =      8353.94495535    -5710.80744726
  entropy T*S    EENTRO =        -0.00000000
  eigenvalues    EBANDS =     -1218.14862511
  atomic energy  EATOM  =     11953.08265402
  Solvation  Ediel_sol  =         0.00000000
  ---------------------------------------------------
  free energy    TOTEN  =      -324.00634025 eV

  energy without entropy =     -324.00634025  energy(sigma->0) =     -324.00634025


--------------------------------------------------------------------------------------------------------




--------------------------------------- Iteration      1(  20)  ---------------------------------------


    POTLOK:  cpu time    0.2400: real time    0.2402
    SETDIJ:  cpu time    0.0174: real time    0.0174
    EDDIAG:  cpu time    2.3982: real time    2.4132
  RMM-DIIS:  cpu time   39.3399: real time   39.4467
    ORTHCH:  cpu time    0.2200: real time    0.2201
       DOS:  cpu time    0.0004: real time    0.0004
    CHARGE:  cpu time    1.0813: real time    1.0824
    MIXING:  cpu time    0.0090: real time    0.0090
    --------------------------------------------
      LOOP:  cpu time   43.3060: real time   43.4295

 eigenvalue-minimisations  :  2067
 total energy-change (2. order) :-0.6261068E-03  (-0.6133890E-05)
 number of electron     324.0000002 magnetization 
 augmentation part      -21.2011126 magnetization 

 Broyden mixing:
  rms(total) = 0.46136E-03    rms(broyden)= 0.46136E-03
  rms(prec ) = 0.57954E-03
  weight for this iteration     100.00

 eigenvalues of (default mixing * dielectric matrix)
  average eigenvalue GAMMA=   1.5678
  6.8128  3.2695  2.4863  1.8367  1.8367  1.2973  1.2973  0.9305  0.7958  0.7958
  0.6037  0.4059  0.4059  0.3747  0.3683

 Free energy of the ion-electron system (eV)
  ---------------------------------------------------
  alpha Z        PSCENC =       249.16037291
  Ewald energy   TEWEN  =     65562.86978585
  -Hartree energ DENC   =    -77428.63222408
  -exchange      EXHF   =         0.00000000
  -V(xc)+E(xc)   XCENC  =     -2086.16651548
  PAW double counting   =      8354.46338399    -5711.32400146
  entropy T*S    EENTRO =        -0.00000000
  eigenvalues    EBANDS =     -1217.46042212
  atomic energy  EATOM  =     11953.08265402
  Solvation  Ediel_sol  =         0.00000000
  ---------------------------------------------------
  free energy    TOTEN  =      -324.00696636 eV

  energy without entropy =     -324.00696636  energy(sigma->0) =     -324.00696636


--------------------------------------------------------------------------------------------------------




--------------------------------------- Iteration      1(  21)  ---------------------------------------


    POTLOK:  cpu time    0.2480: real time    0.2482
    SETDIJ:  cpu time    0.0111: real time    0.0111
    EDDIAG:  cpu time    2.3761: real time    2.3912
  RMM-DIIS:  cpu time   38.0632: real time   38.1779
    ORTHCH:  cpu time    0.2276: real time    0.2278
       DOS:  cpu time    0.0004: real time    0.0004
    CHARGE:  cpu time    1.0819: real time    1.0872
    MIXING:  cpu time    0.0092: real time    0.0092
    --------------------------------------------
      LOOP:  cpu time   42.0175: real time   42.1530

 eigenvalue-minimisations  :  1944
 total energy-change (2. order) :-0.1346370E-03  (-0.1385753E-05)
 number of electron     324.0000002 magnetization 
 augmentation part      -21.2015109 magnetization 

 Broyden mixing:
  rms(total) = 0.42240E-03    rms(broyden)= 0.42240E-03
  rms(prec ) = 0.47882E-03
  weight for this iteration     100.00

 eigenvalues of (default mixing * dielectric matrix)
  average eigenvalue GAMMA=   1.5893
  7.1755  3.2952  2.4372  2.0296  2.0296  1.6504  1.1603  0.9495  0.9495  0.7972
  0.7972  0.6021  0.4064  0.4064  0.3746  0.3684

 Free energy of the ion-electron system (eV)
  ---------------------------------------------------
  alpha Z        PSCENC =       249.16037291
  Ewald energy   TEWEN  =     65562.86978585
  -Hartree energ DENC   =    -77428.94044116
  -exchange      EXHF   =         0.00000000
  -V(xc)+E(xc)   XCENC  =     -2086.16591549
  PAW double counting   =      8354.41046445    -5711.27521737
  entropy T*S    EENTRO =        -0.00000000
  eigenvalues    EBANDS =     -1217.14880422
  atomic energy  EATOM  =     11953.08265402
  Solvation  Ediel_sol  =         0.00000000
  ---------------------------------------------------
  free energy    TOTEN  =      -324.00710100 eV

  energy without entropy =     -324.00710100  energy(sigma->0) =     -324.00710100


--------------------------------------------------------------------------------------------------------




--------------------------------------- Iteration      1(  22)  ---------------------------------------


    POTLOK:  cpu time    0.2479: real time    0.2481
    SETDIJ:  cpu time    0.0141: real time    0.0141
    EDDIAG:  cpu time    2.4018: real time    2.4043
  RMM-DIIS:  cpu time   32.5251: real time   32.5991
    ORTHCH:  cpu time    0.2143: real time    0.2147
       DOS:  cpu time    0.0004: real time    0.0004
    CHARGE:  cpu time    1.0792: real time    1.0876
    MIXING:  cpu time    0.0095: real time    0.0095
    --------------------------------------------
      LOOP:  cpu time   36.4924: real time   36.5778

 eigenvalue-minimisations  :  1611
 total energy-change (2. order) :-0.1036728E-03  (-0.6216304E-06)
 number of electron     324.0000002 magnetization 
 augmentation part      -21.2023300 magnetization 

 Broyden mixing:
  rms(total) = 0.21931E-03    rms(broyden)= 0.21931E-03
  rms(prec ) = 0.27121E-03
  weight for this iteration     100.00

 eigenvalues of (default mixing * dielectric matrix)
[...]
  0.000  -0.000   0.000   0.000   0.000   0.011  -0.000  -0.000
 -0.000   0.000   0.000   0.000   0.000  -0.000   0.011  -0.000
 -0.000  -0.000   0.000   0.000   0.000  -0.000  -0.000   0.011
 -0.000  -0.000   0.001   0.000   0.001  -0.000  -0.000   0.000
  0.000  -0.000  -0.015   0.000   0.000  -0.000  -0.000  -0.000
 -0.009  -0.000  -0.000  -0.019  -0.000   0.000  -0.000   0.000
 -0.000  -0.000   0.000   0.001  -0.015  -0.000  -0.000  -0.000
  0.000  -0.000   0.000   0.000   0.001   0.000  -0.000  -0.000
 total augmentation occupancy for first ion, spin component:           1
  1.932   0.221  -0.002   0.199   0.001  -0.002   0.045  -0.002  -0.000  -0.000   0.007  -0.001   0.000
  0.221   1.378   0.010  -0.941   0.007  -0.005   0.373  -0.014  -0.003  -0.000  -0.024  -0.001   0.001
 -0.002   0.010   1.342  -0.001  -0.001  -0.484   0.003   0.004   0.001  -0.118  -0.000   0.002  -0.046
  0.199  -0.941  -0.001   1.505  -0.005   0.003  -0.548   0.004   0.002   0.001  -0.039   0.003  -0.001
  0.001   0.007  -0.001  -0.005   1.333   0.004   0.003  -0.487  -0.043   0.001   0.001  -0.118   0.001
 -0.002  -0.005  -0.484   0.003   0.004   0.311  -0.001  -0.004  -0.002   0.039   0.000  -0.000   0.008
  0.045   0.373   0.003  -0.548   0.003  -0.001   0.294  -0.001  -0.000  -0.001   0.046  -0.001   0.000
 -0.002  -0.014   0.004   0.004  -0.487  -0.004  -0.001   0.315   0.007  -0.000   0.001   0.039  -0.002
 -0.000  -0.003   0.001   0.002  -0.043  -0.002  -0.000   0.007   0.021  -0.000   0.000  -0.000   0.000
 -0.000  -0.000  -0.118   0.001   0.001   0.039  -0.001  -0.000  -0.000   0.019  -0.000  -0.000  -0.000
  0.007  -0.024  -0.000  -0.039   0.001   0.000   0.046   0.001   0.000  -0.000   0.020  -0.000  -0.000
 -0.001  -0.001   0.002   0.003  -0.118  -0.000  -0.001   0.039  -0.000  -0.000  -0.000   0.019  -0.000
  0.000   0.001  -0.046  -0.001   0.001   0.008   0.000  -0.002   0.000  -0.000  -0.000  -0.000   0.021


------------------------ aborting loop because EDIFF is reached ----------------------------------------


    CHARGE:  cpu time    1.0668: real time    1.0680
    FORLOC:  cpu time    0.0786: real time    0.0787
    FORNL :  cpu time   12.9691: real time   12.9921
    STRESS:  cpu time   68.0160: real time   68.1466
    FORCOR:  cpu time    0.2699: real time    0.2702
    FORHAR:  cpu time    0.1164: real time    0.1165
    MIXING:  cpu time    0.0073: real time    0.0073
    OFIELD:  cpu time    0.0000: real time    0.0000

  Number of pair interactions contributing to vdW energy:  273710
  Edisp (eV):  -19.80054
    FORVDW:  cpu time    0.0299: real time    0.0299

  FORCE on cell =-STRESS in cart. coord.  units (eV):
  Direction    XX          YY          ZZ          XY          YZ          ZX
  --------------------------------------------------------------------------------------
  Alpha Z   249.16037   249.16037   249.16037
  Ewald   74702.10957 74706.59531-83899.24505    -7.16460    -5.78985    -6.14368
  Hartree 77016.63282 77017.59033-76657.84026    -1.78925    -0.91630    -0.77128
  E(xc)   -1356.52802 -1356.56223 -1375.13552     0.11784     0.17875     0.22612
  Local  ************************155494.00343     8.66248     6.52797     6.77914
  n-local  3556.20180  3556.50438  3740.95989    -0.08267    -1.21767    -1.59680
  augment  -760.34734  -760.35606  -800.78800    -0.11781     0.18159     0.25598
  Kinetic  3299.78627  3299.92152  3254.13443    -1.41002    -0.94305    -1.01239
  Fock        0.00000     0.00000     0.00000     0.00000     0.00000     0.00000
  vdW       -12.63038   -12.55171    -9.47517    -0.01378    -0.02050     0.04845
  -------------------------------------------------------------------------------------
  Total       8.43506     9.24951    -4.22588    -1.79781    -1.99907    -2.21448
  in kB       4.69197     5.14500    -2.35063    -1.00002    -1.11197    -1.23179
  external pressure =        2.50 kB  Pullay stress =        0.00 kB

  kinetic pressure (ideal gas correction) =      0.21 kB
  total pressure  =      2.70 kB
  Total+kin.     4.909       5.349      -2.153      -0.997      -1.101      -1.230

 VOLUME and BASIS-vectors are now :
 -----------------------------------------------------------------------------
  energy-cutoff  :      550.00
  volume of cell :     2880.34
      direct lattice vectors                 reciprocal lattice vectors
    10.496185163  0.000000000  0.000000000     0.095272710  0.054680325 -0.000599936
    -5.215737222  9.087682179  0.000000000     0.000000000  0.110039059 -0.000532260
     0.106319665  0.146061481 30.196658950     0.000000000  0.000000000  0.033116246

  length of vectors
    10.496185163 10.478066718 30.197199366     0.109850749  0.110040347  0.033116246


 FORCES acting on ions
    electron-ion (+dipol)            ewald-force                    non-local-force                 convergence-correction
 -----------------------------------------------------------------------------------------------
   0.190E+01 0.105E+01 -.857E+03   -.192E+01 -.106E+01 0.862E+03   -.222E+00 -.104E-01 -.516E+01   0.484E-03 0.905E-03 0.789E-04
   -.226E+01 -.141E+01 -.860E+03   0.233E+01 0.139E+01 0.866E+03   0.334E-01 0.153E+00 -.538E+01   0.311E-03 -.966E-03 0.502E-03
   0.963E+00 -.239E+00 -.859E+03   -.997E+00 0.209E+00 0.864E+03   0.404E-01 0.762E-01 -.522E+01   -.757E-03 0.132E-03 0.536E-03
   -.583E+00 -.242E+01 -.859E+03   0.569E+00 0.246E+01 0.864E+03   0.137E+00 0.138E+00 -.531E+01   0.115E-02 -.315E-03 -.793E-03
   0.248E+00 -.121E-01 -.857E+03   -.229E+00 0.694E-02 0.863E+03   -.158E+00 -.117E-01 -.534E+01   -.167E-03 -.203E-03 -.610E-03
   0.226E+00 0.262E+01 -.860E+03   -.238E+00 -.265E+01 0.865E+03   -.470E-01 -.200E+00 -.548E+01   0.726E-03 0.152E-02 -.127E-03
   -.523E+00 0.830E+00 -.860E+03   0.601E+00 -.837E+00 0.865E+03   -.778E-01 -.369E-01 -.528E+01   -.167E-02 -.200E-03 -.242E-03
   0.382E+01 -.178E+00 -.859E+03   -.383E+01 0.165E+00 0.864E+03   -.274E+00 -.438E-01 -.528E+01   -.130E-03 0.112E-03 -.368E-03
   -.205E+01 -.584E+00 -.857E+03   0.207E+01 0.618E+00 0.862E+03   0.230E+00 0.119E+00 -.541E+01   -.564E-04 -.873E-03 -.102E-03
   0.434E+00 0.959E+00 0.118E+03   -.470E+00 -.962E+00 -.113E+03   0.507E-01 -.763E-01 -.534E+01   -.139E-02 0.341E-03 0.206E-03
   0.135E+01 -.280E+01 0.121E+03   -.135E+01 0.285E+01 -.116E+03   -.117E+00 0.505E-01 -.569E+01   0.668E-03 0.137E-03 0.845E-04
   0.122E+01 0.305E+01 0.120E+03   -.116E+01 -.308E+01 -.115E+03   -.213E+00 -.240E+00 -.505E+01   -.273E-03 -.110E-02 0.947E-04
   -.570E-01 -.781E+00 0.120E+03   0.976E-01 0.877E+00 -.114E+03   -.127E+00 -.861E-01 -.484E+01   0.195E-03 -.378E-03 0.192E-02
   -.140E+01 -.233E+01 0.122E+03   0.142E+01 0.238E+01 -.117E+03   -.201E-01 -.359E-01 -.541E+01   -.116E-02 0.131E-03 0.600E-03
   0.459E+00 0.233E+01 0.122E+03   -.407E+00 -.240E+01 -.117E+03   -.284E+00 -.179E-01 -.526E+01   -.243E-03 -.623E-03 0.251E-03
   -.973E+00 0.120E-02 0.119E+03   0.973E+00 0.848E-01 -.114E+03   0.187E+00 -.485E-01 -.533E+01   0.120E-02 -.621E-03 0.939E-03
   0.428E+00 -.228E-01 0.124E+03   -.395E+00 0.896E-01 -.119E+03   -.532E-01 -.420E+00 -.535E+01   0.464E-03 0.122E-02 0.724E-03
   0.120E+01 0.162E+01 0.121E+03   -.117E+01 -.162E+01 -.116E+03   -.202E+00 -.544E-01 -.552E+01   0.591E-03 0.627E-03 -.470E-03
   0.157E+00 0.339E+00 -.120E+03   -.155E+00 -.365E+00 0.115E+03   -.125E+00 0.125E+00 0.526E+01   0.367E-03 0.880E-03 -.726E-03
   -.186E+00 -.183E+01 -.121E+03   0.202E+00 0.185E+01 0.116E+03   -.705E-01 0.641E-01 0.518E+01   0.361E-03 -.110E-02 -.891E-03
   -.603E+00 0.203E+00 -.119E+03   0.569E+00 -.280E+00 0.114E+03   0.268E+00 0.161E+00 0.520E+01   -.929E-03 0.169E-03 -.964E-03
   0.166E+01 -.167E+01 -.120E+03   -.169E+01 0.168E+01 0.114E+03   -.952E-01 0.130E+00 0.527E+01   0.127E-02 -.353E-03 0.455E-03
   -.249E+01 -.433E+00 -.121E+03   0.249E+01 0.423E+00 0.116E+03   0.257E+00 0.587E-01 0.530E+01   -.312E-03 -.219E-03 0.241E-03
   0.945E+00 0.215E+01 -.121E+03   -.943E+00 -.218E+01 0.116E+03   -.167E+00 -.152E+00 0.519E+01   0.841E-03 0.166E-02 -.252E-03
   -.457E+00 0.148E+01 -.120E+03   0.513E+00 -.149E+01 0.115E+03   -.143E-01 -.206E+00 0.545E+01   -.154E-02 -.165E-03 -.334E-03
   0.286E+01 -.243E+01 -.123E+03   -.292E+01 0.245E+01 0.117E+03   -.783E-02 0.158E+00 0.523E+01   -.733E-04 0.974E-04 0.306E-04
   -.123E+01 0.138E+01 -.124E+03   0.122E+01 -.141E+01 0.119E+03   0.185E+00 0.118E+00 0.517E+01   0.177E-04 -.720E-03 -.455E-03
   0.236E+01 0.175E+01 0.858E+03   -.243E+01 -.177E+01 -.863E+03   -.850E-01 -.807E-02 0.517E+01   -.122E-02 0.313E-03 0.673E-03
   -.148E+01 -.234E+01 0.861E+03   0.151E+01 0.227E+01 -.866E+03   0.133E+00 0.271E+00 0.533E+01   0.675E-03 0.367E-03 0.503E-03
   0.195E+01 0.348E+00 0.860E+03   -.194E+01 -.367E+00 -.865E+03   -.141E+00 0.401E-01 0.531E+01   -.225E-03 -.114E-02 0.622E-03
   -.184E+01 0.285E+01 0.859E+03   0.186E+01 -.284E+01 -.865E+03   0.203E+00 -.265E+00 0.493E+01   0.478E-04 -.281E-03 -.110E-02
   0.499E+00 -.193E+01 0.859E+03   -.504E+00 0.194E+01 -.865E+03   -.160E+00 -.696E-02 0.527E+01   -.103E-02 0.275E-03 -.840E-04
   0.646E+00 -.120E+01 0.858E+03   -.649E+00 0.120E+01 -.864E+03   -.163E+00 0.250E+00 0.534E+01   -.285E-03 -.819E-03 0.372E-03
   -.155E+01 0.382E+01 0.859E+03   0.153E+01 -.381E+01 -.864E+03   0.291E+00 -.248E+00 0.503E+01   0.117E-02 -.590E-03 0.907E-04
   0.131E+01 -.276E+01 0.858E+03   -.131E+01 0.280E+01 -.864E+03   -.548E-01 -.215E-01 0.543E+01   0.398E-03 0.127E-02 -.312E-03
   -.125E+01 -.358E+00 0.856E+03   0.128E+01 0.416E+00 -.862E+03   0.155E+00 -.581E-01 0.553E+01   0.533E-03 0.453E-03 0.124E-02
   -.628E+00 0.118E+01 -.488E+03   0.592E+00 -.114E+01 0.488E+03   0.123E+00 -.153E+00 0.108E+00   -.576E-03 -.633E-04 -.435E-03
   -.520E+00 0.489E+00 -.495E+03   0.607E+00 -.546E+00 0.495E+03   0.434E-02 -.191E-01 -.238E+00   -.758E-03 -.675E-03 -.634E-03
   0.317E+01 -.818E-01 -.492E+03   -.323E+01 0.567E-01 0.492E+03   -.379E+00 -.109E+00 -.583E-01   -.570E-03 -.650E-03 -.495E-03
   -.337E-02 0.652E+00 -.487E+03   0.594E-01 -.719E+00 0.487E+03   0.293E-02 -.274E+00 -.482E-02   0.626E-03 0.506E-03 -.405E-03
   -.897E+00 -.131E+01 -.492E+03   0.880E+00 0.131E+01 0.492E+03   0.116E+00 -.792E-02 0.173E-01   0.497E-03 -.874E-04 -.505E-03
   -.232E+01 0.422E+00 -.487E+03   0.237E+01 -.428E+00 0.487E+03   0.120E+00 0.279E-01 0.239E+00   0.356E-03 0.241E-03 -.372E-03
   -.140E+01 -.478E+00 -.491E+03   0.148E+01 0.524E+00 0.491E+03   0.819E-01 0.193E+00 -.121E-01   0.219E-05 0.547E-03 -.542E-03
   0.144E+00 -.162E+01 -.489E+03   -.135E+00 0.157E+01 0.489E+03   0.111E-01 0.142E-02 0.114E+00   0.251E-03 -.404E-03 -.373E-03
   0.289E+00 0.181E+01 -.491E+03   -.414E+00 -.186E+01 0.491E+03   -.827E-01 -.506E-01 0.620E-01   0.194E-03 0.117E-03 -.385E-03
   0.115E+01 -.314E+01 0.493E+03   -.121E+01 0.320E+01 -.493E+03   0.144E+00 0.198E-01 0.255E+00   -.857E-03 0.154E-03 0.775E-03
   -.178E+01 0.355E+01 0.492E+03   0.185E+01 -.371E+01 -.492E+03   0.290E+00 -.222E+00 0.135E+00   -.454E-04 -.637E-03 0.594E-03
   0.280E+01 0.200E+01 0.486E+03   -.290E+01 -.200E+01 -.486E+03   -.429E-01 0.273E-01 -.214E+00   -.109E-02 -.715E-03 0.564E-03
   -.183E+01 -.664E+01 0.491E+03   0.188E+01 0.684E+01 -.491E+03   0.117E+00 0.495E+00 0.185E+00   -.313E-03 0.861E-03 0.668E-03
   -.309E+01 -.296E+00 0.490E+03   0.320E+01 0.252E+00 -.490E+03   0.333E+00 0.496E-01 0.153E+00   -.152E-03 0.281E-03 0.552E-03
   -.189E+01 0.374E+01 0.490E+03   0.191E+01 -.379E+01 -.490E+03   -.433E-01 -.248E+00 -.175E+00   0.660E-03 -.711E-03 0.729E-03
   -.652E+00 -.369E+01 0.492E+03   0.699E+00 0.377E+01 -.492E+03   -.170E+00 0.336E+00 0.510E+00   0.118E-02 0.544E-03 0.757E-03
   0.173E+01 -.232E+00 0.491E+03   -.169E+01 0.336E+00 -.491E+03   -.711E-01 0.206E+00 -.191E+00   0.175E-03 0.722E-03 0.611E-03
   0.460E+00 0.277E+01 0.487E+03   -.483E+00 -.272E+01 -.487E+03   -.273E+00 -.119E+00 -.977E-01   0.266E-03 -.292E-04 0.634E-03
 -----------------------------------------------------------------------------------------------
   0.431E+00 0.183E+00 0.293E+00   0.461E-14 0.244E-13 0.188E-11   -.426E+00 -.180E+00 -.293E+00   -.161E-03 -.455E-04 0.407E-02
 
 
 POSITION                                       TOTAL-FORCE (eV/Angst)
 -----------------------------------------------------------------------------------
      1.83164      1.10487     20.43520        -0.237192     -0.017774      0.075024
      0.07353      4.13245     20.47593         0.097795      0.131995     -0.195369
     -1.64732      7.17739     20.45367         0.013461      0.049554     -0.032214
      5.30332      1.09215     20.46014         0.115909      0.172310     -0.121092
      3.59308      4.13125     20.45448        -0.131665     -0.018891     -0.095464
      1.83621      7.18016     20.48036        -0.059084     -0.216565     -0.320991
      8.80813      1.10543     20.46908        -0.003782     -0.045216     -0.113275
      7.10159      4.14871     20.46059        -0.270117     -0.051912     -0.027916
      5.31116      7.15926     20.45343         0.236028      0.148805     -0.125867
      0.04596      0.08138     13.40797         0.015810     -0.068833     -0.115855
      8.80186      3.07803     13.41040        -0.113288      0.101328     -0.526119
     -3.41849      6.13720     13.37615        -0.154138     -0.264164      0.228467
     -1.65996      9.14102     13.36340        -0.080257      0.010424      0.465229
      1.80033      3.06972     13.38340        -0.000957      0.014105     -0.146654
      0.08162      6.11373     13.37428        -0.224674     -0.079611      0.038505
      1.81465      9.14146     13.40263         0.182524      0.038922     -0.126307
      5.31293      3.09758     13.36528        -0.014990     -0.341735     -0.036583
      3.58230      6.10912     13.39940        -0.162321     -0.056748     -0.221250
      1.82003      1.09715     16.80190        -0.115438      0.093309      0.012860
      0.07231      4.12452     16.81340        -0.054126      0.076118     -0.005508
     -1.68479      7.16340     16.79990         0.222669      0.083939     -0.027766
      5.33306      1.09016     16.79900        -0.120496      0.136958      0.034801
      3.54269      4.12270     16.80607         0.239833      0.037992      0.053688
      1.85427      7.18018     16.80481        -0.157375     -0.169282      0.022944
      8.79716      1.14048     16.78282         0.028848     -0.200927      0.319067
      7.08715      4.12441     16.82364        -0.064996      0.167129     -0.021743
      5.31975      7.15191     16.82892         0.173390      0.073760     -0.097514
      0.05978      0.04991      9.75382        -0.142863     -0.034790     -0.051188
      8.77802      3.06084      9.71194         0.151077      0.198139      0.133151
     -3.43598      6.11839      9.72848        -0.131781      0.025947      0.095591
      3.51446      0.05058      9.76393         0.209528     -0.248882     -0.328592
      1.81493      3.07286      9.73182        -0.157515     -0.004262     -0.001224
      0.06881      6.08913      9.73897        -0.161560      0.235575      0.054034
      1.80494      9.13340      9.75367         0.259991     -0.231120     -0.206933
      5.30340      3.06899      9.72835        -0.055978      0.015340      0.127043
      3.54282      6.11577      9.73775         0.175992      0.003431      0.244860
     10.54041      0.11249     18.61852         0.109222     -0.135579      0.160313
     -1.67309      3.12509     18.65631         0.077890     -0.070081     -0.239202
     -3.38510      6.16871     18.64267        -0.467610     -0.134228     -0.018872
      3.56702      0.11242     18.62231         0.048746     -0.341752     -0.039401
      1.81177      3.12523     18.63340         0.112157      0.004305      0.105740
      0.08034      6.15890     18.61638         0.186634      0.020719      0.293376
      1.84249      9.17549     18.63556         0.156528      0.245550      0.038022
      5.32744      3.12146     18.62359         0.021242     -0.023806      0.167090
      3.57881      6.15179     18.63304        -0.187517     -0.101674      0.122445
      0.03852      2.07612     11.54731         0.096783      0.089375      0.246176
     -1.71351      5.11191     11.55002         0.380297     -0.383802      0.145342
     -3.42467      8.13198     11.58694        -0.147160      0.023105     -0.277516
      3.53921      2.03613     11.54939         0.178320      0.730403      0.257310
      1.79467      5.08853     11.55632         0.457954      0.019156      0.197997
      0.07769      8.14167     11.57723        -0.018961     -0.334550     -0.317277
      7.06206      2.04082     11.53212        -0.143505      0.447363      0.692771
      5.31700      5.09245     11.56860        -0.058423      0.292115     -0.335278
      3.59020      8.13927     11.58596        -0.305726     -0.107361     -0.154983
 -----------------------------------------------------------------------------------
    total drift:                                0.005132      0.003626      0.003895


--------------------------------------------------------------------------------------------------------



  FREE ENERGIE OF THE ION-ELECTRON SYSTEM (eV)
  ---------------------------------------------------
  free  energy   TOTEN  =      -343.64765821 eV

  energy  without entropy=     -343.64765821  energy(sigma->0) =     -343.64765821
 
 d Force =-0.2991908E-01[-0.315E-01,-0.283E-01]  d Energy =-0.2990898E-01-0.101E-04
 d Force = 0.5078448E+01[ 0.508E+01, 0.508E+01]  d Ewald  = 0.5078451E+01-0.299E-05


--------------------------------------------------------------------------------------------------------


    POTLOK:  cpu time    0.2532: real time    0.2534


--------------------------------------------------------------------------------------------------------


           RANDOM_SEED =         118373053              324                0
   IONSTEP:  cpu time    0.0001: real time    0.0001

  ENERGY OF THE ELECTRON-ION-THERMOSTAT SYSTEM (eV)
  ---------------------------------------------------
% ion-electron   TOTEN  =      -343.647658  see above
  kinetic energy EKIN   =         0.544954
  kin. lattice  EKIN_LAT=         0.000000  (temperature   79.55 K)
  nose potential ES     =        -0.029168
  nose kinetic   EPS    =         0.004316
  ---------------------------------------------------
  total energy   ETOTAL =      -343.127556 eV

  maximum distance moved by ions :      0.62E-03


 mean value of Nose-termostat <S>:     0.969 mean value of <T> :    79.546
 mean temperature <T/S>/<1/S>  :    79.546

    WAVPRE:  cpu time    0.0937: real time    0.1005
    FEWALD:  cpu time    0.0021: real time    0.0021
    ORTHCH:  cpu time    7.6244: real time    7.6410
    POTLOK:  cpu time    0.2448: real time    0.2491
    EDDIAG:  cpu time    2.3805: real time    2.3873
     LOOP+:  cpu time  446.8896: real time  447.9662
    4ORBIT:  cpu time    0.0000: real time    0.0000

 total amount of memory used by VASP MPI-rank0   354813. kBytes
=======================================================================

   base      :      30000. kBytes
   nonl-proj :     194549. kBytes
   fftplans  :      16533. kBytes
   grid      :      78796. kBytes
   one-center:        839. kBytes
   wavefun   :      34096. kBytes
 
  
  
 General timing and accounting informations for this job:
 ========================================================
  
                  Total CPU time used (sec):     5421.001
                            User time (sec):     5408.292
                          System time (sec):       12.709
                         Elapsed time (sec):     5433.858
  
                   Maximum memory used (kb):      784288.
                   Average memory used (kb):           0.
  
                          Minor page faults:       350539
                          Major page faults:            0
                 Voluntary context switches:         1386
