 vasp.6.1.1 19Jun20 (build Dec 21 2021 08:45:49) complex                        
  
 executed on             LinuxIFC date 2023.10.08  09:22:38
 running on   40 total cores
 distrk:  each k-point on   40 cores,    1 groups
 distr:  one band on NCORE=   1 cores,   40 groups


--------------------------------------------------------------------------------------------------------


 INCAR:
 POTCAR:   PAW_PBE Te 08Apr2002                   
 POTCAR:   PAW_PBE Mo 08Apr2002                   
 -----------------------------------------------------------------------------
|                                                                             |
|           W    W    AA    RRRRR   N    N  II  N    N   GGGG   !!!           |
|           W    W   A  A   R    R  NN   N  II  NN   N  G    G  !!!           |
|           W    W  A    A  R    R  N N  N  II  N N  N  G       !!!           |
|           W WW W  AAAAAA  RRRRR   N  N N  II  N  N N  G  GGG   !            |
|           WW  WW  A    A  R   R   N   NN  II  N   NN  G    G                |
|           W    W  A    A  R    R  N    N  II  N    N   GGGG   !!!           |
|                                                                             |
|     For optimal performance we recommend to set                             |
|       NCORE = 4 - approx SQRT(number of cores).                             |
|     NCORE specifies how many cores store one orbital (NPAR=cpu/NCORE).      |
|     This setting can greatly improve the performance of VASP for DFT.       |
|     The default, NCORE=1 might be grossly inefficient on modern             |
|     multi-core architectures or massively parallel machines. Do your        |
|     own testing!!!!                                                         |
|     Unfortunately you need to use the default for GW and RPA                |
|     calculations (for HF NCORE is supported but not extensively tested      |
|     yet).                                                                   |
|                                                                             |
 -----------------------------------------------------------------------------

 POTCAR:   PAW_PBE Te 08Apr2002                   
   VRHFIN =Te: s2p4                                                                                 
   LEXCH  = PE                                                                                      
   EATOM  =   223.2721 eV,   16.4100 Ry                                                             
                                                                                                    
   TITEL  = PAW_PBE Te 08Apr2002                                                                    
   LULTRA =        F    use ultrasoft PP ?                                                          
   IUNSCR =        1    unscreen: 0-lin 1-nonlin 2-no                                               
   RPACOR =    2.200    partial core radius                                                         
   POMASS =  127.600; ZVAL   =    6.000    mass and valenz                                          
   RCORE  =    2.300    outmost cutoff radius                                                       
   RWIGS  =    2.900; RWIGS  =    1.535    wigner-seitz radius (au A)                               
   ENMAX  =  174.982; ENMIN  =  131.236 eV                                                          
   ICORE  =        3    local potential                                                             
   LCOR   =        T    correct aug charges                                                         
   LPAW   =        T    paw PP                                                                      
   EAUG   =  368.792                                                                                
   DEXC   =    -.169                                                                                
   RMAX   =    3.486    core radius for proj-oper                                                   
   RAUG   =    1.300    factor for augmentation sphere                                              
   RDEP   =    2.397    radius for radial grids                                                     
   QCUT   =   -3.586; QGAM   =    7.172    optimization parameters                                  
                                                                                                    
   Description                                                                                      
     l     E      TYP  RCUT    TYP  RCUT                                                            
     0   .000     23  2.300                                                                         
     0   .000     23  2.300                                                                         
     1   .000     23  2.300                                                                         
     1   .000     23  2.300                                                                         
     2   .000     23  2.300                                                                         
     3  -.100     23  2.300                                                                         
  local pseudopotential read in
  partial core-charges read in
  atomic valenz-charges read in
  non local Contribution for L=           0  read in
    real space projection operators read in
  non local Contribution for L=           0  read in
    real space projection operators read in
  non local Contribution for L=           1  read in
    real space projection operators read in
  non local Contribution for L=           1  read in
    real space projection operators read in
  non local Contribution for L=           2  read in
    real space projection operators read in
    PAW grid and wavefunctions read in
 
   number of l-projection  operators is LMAX  =           5
   number of lm-projection operators is LMMAX =          13
 
 POTCAR:   PAW_PBE Mo 08Apr2002                   
   VRHFIN =Mo: 4p5s4d                                                                               
   LEXCH  = PE                                                                                      
   EATOM  =   217.5180 eV,   15.9871 Ry                                                             
                                                                                                    
   TITEL  = PAW_PBE Mo 08Apr2002                                                                    
   LULTRA =        F    use ultrasoft PP ?                                                          
   IUNSCR =        1    unscreen: 0-lin 1-nonlin 2-no                                               
   RPACOR =    2.200    partial core radius                                                         
   POMASS =   95.940; ZVAL   =    6.000    mass and valenz                                          
   RCORE  =    2.750    outmost cutoff radius                                                       
   RWIGS  =    2.750; RWIGS  =    1.455    wigner-seitz radius (au A)                               
   ENMAX  =  224.584; ENMIN  =  168.438 eV                                                          
   RCLOC  =    2.111    cutoff for local pot                                                        
   LCOR   =        T    correct aug charges                                                         
   LPAW   =        T    paw PP                                                                      
   EAUG   =  345.278                                                                                
   DEXC   =    -.088                                                                                
   RMAX   =    3.077    core radius for proj-oper                                                   
   RAUG   =    1.300    factor for augmentation sphere                                              
   RDEP   =    2.815    radius for radial grids                                                     
   QCUT   =   -4.063; QGAM   =    8.126    optimization parameters                                  
                                                                                                    
   Description                                                                                      
     l     E      TYP  RCUT    TYP  RCUT                                                            
     2   .000     23  2.500                                                                         
     2   .000     23  2.500                                                                         
     0   .000     23  2.600                                                                         
     0  1.000     23  2.600                                                                         
     1   .400     23  2.750                                                                         
     1  2.000     23  2.750                                                                         
     3   .000      7   .000                                                                         
  local pseudopotential read in
  partial core-charges read in
  atomic valenz-charges read in
  non local Contribution for L=           2  read in
    real space projection operators read in
  non local Contribution for L=           2  read in
    real space projection operators read in
  non local Contribution for L=           0  read in
    real space projection operators read in
  non local Contribution for L=           0  read in
    real space projection operators read in
  non local Contribution for L=           1  read in
    real space projection operators read in
  non local Contribution for L=           1  read in
    real space projection operators read in
    PAW grid and wavefunctions read in
 
   number of l-projection  operators is LMAX  =           6
   number of lm-projection operators is LMMAX =          18
 
 -----------------------------------------------------------------------------
|                                                                             |
|               ----> ADVICE to this user running VASP <----                  |
|                                                                             |
|     You have a (more or less) 'large supercell' and for larger cells it     |
|     might be more efficient to use real-space projection operators.         |
|     Therefore, try LREAL= Auto in the INCAR file.                           |
|     Mind: If you want to do very accurate calculations, keep the            |
|     reciprocal projection scheme (i.e. LREAL=.FALSE.).                      |
|                                                                             |
 -----------------------------------------------------------------------------

 PAW_PBE Te 08Apr2002                   :
 energy of atom  1       EATOM= -223.2721
 kinetic energy error for atom=    0.0006 (will be added to EATOM!!)
 PAW_PBE Mo 08Apr2002                   :
 energy of atom  2       EATOM= -217.5180
 kinetic energy error for atom=    0.0009 (will be added to EATOM!!)
 
 
 POSCAR: Te Mo
  positions in cartesian coordinates
  No initial velocities read in
 exchange correlation table for  LEXCH =        8
   RHO(1)=    0.500       N(1)  =     2000
   RHO(2)=  100.500       N(2)  =     4000
 


--------------------------------------------------------------------------------------------------------


 ion  position               nearest neighbor table
   1  0.111  0.222  0.321-  38 2.75  41 2.76  37 2.81   2 3.58   3 3.59   5 3.60   9 3.60   7 3.60
                             4 3.60  19 3.67
   2  0.111  0.555  0.320-  39 2.75  42 2.76  38 2.80   1 3.58   3 3.58   6 3.59   5 3.59   7 3.60
                             8 3.60  20 3.68
   3  0.112  0.889  0.320-  40 2.76  37 2.76  39 2.81   2 3.58   1 3.59   4 3.59   6 3.60   8 3.60
                             9 3.60  21 3.68
   4  0.444  0.222  0.321-  41 2.75  44 2.76  40 2.81   5 3.59   3 3.59   6 3.59   7 3.60   1 3.60
                             8 3.60  22 3.68
   5  0.444  0.556  0.321-  42 2.74  45 2.75  41 2.81   6 3.57   4 3.59   2 3.59   1 3.60   9 3.60
                             8 3.60  23 3.68
   6  0.444  0.888  0.321-  40 2.75  43 2.76  42 2.79   5 3.57   2 3.59   4 3.59   9 3.59   3 3.60
                             7 3.60  24 3.67
   7  0.778  0.222  0.321-  44 2.75  38 2.76  43 2.80   9 3.58   8 3.59   4 3.60   2 3.60   1 3.60
                             6 3.60  25 3.68
   8  0.778  0.556  0.321-  45 2.75  39 2.76  44 2.81   9 3.58   7 3.59   5 3.60   4 3.60   3 3.60
                             2 3.60  26 3.68
   9  0.778  0.889  0.321-  43 2.75  37 2.76  45 2.80   8 3.58   7 3.58   6 3.59   1 3.60   5 3.60
                             3 3.60  27 3.68
  10  0.000  0.056  0.558-  52 2.74  46 2.76  54 2.81  12 3.58  11 3.59  16 3.59  18 3.60  14 3.60
                            13 3.60  28 3.68
  11  0.999  0.389  0.559-  53 2.74  47 2.76  52 2.80  12 3.58  10 3.59  16 3.60  17 3.60  15 3.60
                            14 3.60  29 3.67
  12  1.000  0.722  0.559-  54 2.74  48 2.76  53 2.80  10 3.58  11 3.58  18 3.59  13 3.60  15 3.60
                            17 3.60  30 3.67
  13  0.334  0.055  0.558-  46 2.75  49 2.77  48 2.81  15 3.58  17 3.59  12 3.60  14 3.60  16 3.60
                            10 3.60
  14  0.333  0.390  0.559-  47 2.74  50 2.75  46 2.81  15 3.58  18 3.59  13 3.60  17 3.60  11 3.60
                            10 3.60  32 3.68
  15  0.333  0.722  0.558-  48 2.75  51 2.76  47 2.81  14 3.58  13 3.58  16 3.59  18 3.60  11 3.60
                            12 3.60  33 3.68
  16  0.667  0.055  0.558-  49 2.76  52 2.76  51 2.80  18 3.58  17 3.59  10 3.59  15 3.59  11 3.60
                            13 3.60  34 3.68
  17  0.666  0.389  0.558-  50 2.74  53 2.76  49 2.80  18 3.59  16 3.59  13 3.59  11 3.60  14 3.60
                            12 3.60  35 3.67
  18  0.667  0.722  0.558-  51 2.74  54 2.76  50 2.80  16 3.58  17 3.59  14 3.59  12 3.59  10 3.60
                            15 3.60  36 3.67
  19  0.111  0.222  0.442-  37 2.73  41 2.78  38 2.80  21 3.58  20 3.58  27 3.59  22 3.59  23 3.60
                            25 3.60   1 3.67
  20  0.111  0.555  0.442-  38 2.73  39 2.79  42 2.80  19 3.58  21 3.59  25 3.59  26 3.59  23 3.60
                            24 3.60   2 3.68
  21  0.111  0.889  0.442-  39 2.73  37 2.78  40 2.79  19 3.58  22 3.59  20 3.59  27 3.59  26 3.59
                            24 3.60   3 3.68
  22  0.444  0.221  0.442-  40 2.73  41 2.79  44 2.79  24 3.58  21 3.59  23 3.59  19 3.59  25 3.60
                            26 3.61   4 3.68
  23  0.444  0.556  0.442-  41 2.74  45 2.79  42 2.79  24 3.58  22 3.59  19 3.60  27 3.60  26 3.60
                            20 3.60   5 3.68
  24  0.444  0.889  0.442-  42 2.73  43 2.79  40 2.79  23 3.58  22 3.58  27 3.60  25 3.60  20 3.60
                            21 3.60   6 3.67
  25  0.778  0.222  0.442-  43 2.73  44 2.79  38 2.79  26 3.58  27 3.58  20 3.59  24 3.60  19 3.60
                            22 3.60   7 3.68
  26  0.778  0.556  0.442-  44 2.73  39 2.79  45 2.80  25 3.58  27 3.59  20 3.59  21 3.59  23 3.60
                            22 3.61   8 3.68
  27  0.778  0.889  0.442-  45 2.74  37 2.78  43 2.79  25 3.58  26 3.59  19 3.59  21 3.59  24 3.60
                            23 3.60   9 3.68
  28  0.001  0.056  0.679-  54 2.74  46 2.79  52 2.79  29 3.58  32 3.59  31 3.59  30 3.59  34 3.60
                            36 3.61  10 3.68
  29  0.000  0.389  0.679-  52 2.74  47 2.79  53 2.79  30 3.58  28 3.58  32 3.59  33 3.60  34 3.60
                            35 3.61  11 3.67
  30  0.001  0.722  0.679-  53 2.73  48 2.78  54 2.80  29 3.58  31 3.59  33 3.59  28 3.59  35 3.60
                            36 3.61  12 3.67
  31  0.333  0.055  0.679-  48 2.73  46 2.79  49 2.79  33 3.58  30 3.59  32 3.59  28 3.59  35 3.60
                            34 3.61
  32  0.333  0.389  0.679-  46 2.74  50 2.79  47 2.80  33 3.59  28 3.59  31 3.59  29 3.59  35 3.59
                            36 3.59  14 3.68
  33  0.334  0.723  0.679-  47 2.74  48 2.79  51 2.79  31 3.58  32 3.59  34 3.59  30 3.59  36 3.59
                            29 3.60  15 3.68
  34  0.667  0.055  0.679-  51 2.73  52 2.79  49 2.79  36 3.57  33 3.59  28 3.60  35 3.60  29 3.60
                            31 3.61  16 3.68
  35  0.666  0.389  0.679-  49 2.73  50 2.79  53 2.79  36 3.58  32 3.59  34 3.60  31 3.60  30 3.60
                            29 3.61  17 3.67
  36  0.666  0.722  0.679-  50 2.74  51 2.79  54 2.79  34 3.57  35 3.58  33 3.59  32 3.59  28 3.61
                            30 3.61  18 3.67
  37  0.000  1.000  0.381-  19 2.73   3 2.76   9 2.76  27 2.78  21 2.78   1 2.81
  38  0.000  0.334  0.381-  20 2.73   1 2.75   7 2.76  25 2.79  19 2.80   2 2.80
  39  0.000  0.667  0.381-  21 2.73   2 2.75   8 2.76  26 2.79  20 2.79   3 2.81
  40  0.333  1.000  0.381-  22 2.73   6 2.75   3 2.76  21 2.79  24 2.79   4 2.81
  41  0.333  0.333  0.381-  23 2.74   4 2.75   1 2.76  19 2.78  22 2.79   5 2.81
  42  0.334  0.667  0.381-  24 2.73   5 2.74   2 2.76   6 2.79  23 2.79  20 2.80
  43  0.667  0.000  0.381-  25 2.73   9 2.75   6 2.76  27 2.79  24 2.79   7 2.80
  44  0.666  0.333  0.381-  26 2.73   7 2.75   4 2.76  22 2.79  25 2.79   8 2.81
  45  0.666  0.666  0.381-  27 2.74   8 2.75   5 2.75  23 2.79  26 2.80   9 2.80
  46  0.222  0.166  0.619-  32 2.74  13 2.75  10 2.76  28 2.79  31 2.79  14 2.81
  47  0.222  0.500  0.619-  33 2.74  14 2.74  11 2.76  29 2.79  32 2.80  15 2.81
  48  0.222  0.833  0.619-  31 2.73  15 2.75  12 2.76  30 2.78  33 2.79  13 2.81
  49  0.556  0.167  0.619-  35 2.73  16 2.76  13 2.77  34 2.79  31 2.79  17 2.80
  50  0.555  0.500  0.619-  36 2.74  17 2.74  14 2.75  35 2.79  32 2.79  18 2.80
  51  0.555  0.833  0.619-  34 2.73  18 2.74  15 2.76  33 2.79  36 2.79  16 2.80
  52  0.889  0.167  0.619-  29 2.74  10 2.74  16 2.76  28 2.79  34 2.79  11 2.80
  53  0.889  0.500  0.619-  30 2.73  11 2.74  17 2.76  35 2.79  29 2.79  12 2.80
  54  0.889  0.833  0.619-  12 2.74  28 2.74  18 2.76  36 2.79  30 2.80  10 2.81
 

IMPORTANT INFORMATION: All symmetrisations will be switched off!
NOSYMM: (Re-)initialisation of all symmetry stuff for point group C_1.


----------------------------------------------------------------------------------------

                                     Primitive cell                                     

  volume of cell :    3057.3004

  direct lattice vectors                    reciprocal lattice vectors
    10.792302069  0.000000000  0.000000000     0.092658637  0.053286215  0.001142124
    -5.360602751  9.321475450  0.000000000     0.000000000  0.107279154  0.002852643
     0.090130518 -0.808111807 30.390606280     0.000000000  0.000000000  0.032904905

  length of vectors
    10.792302069 10.752951521 30.401482172     0.106894098  0.107317074  0.032904905

  position of ions in fractional coordinates (direct lattice)
     0.111169005  0.222409164  0.320730477
     0.111421950  0.555469948  0.320442446
     0.111720994  0.888955285  0.320437762
     0.444433883  0.222178694  0.320613662
     0.444401845  0.555617818  0.320660398
     0.444385328  0.888057723  0.320725304
     0.777747191  0.222285364  0.320649645
     0.777851265  0.555789211  0.320575397
     0.777917952  0.888998821  0.320618742
     0.000111202  0.055598238  0.558449720
     0.999467109  0.388921393  0.558538859
     0.999858931  0.722437076  0.558714756
     0.333547927  0.055268390  0.558229118
     0.333343156  0.389717865  0.558585786
     0.333234013  0.722211189  0.558228512
     0.666890971  0.055003163  0.558479688
     0.666079731  0.388555262  0.558456067
     0.666695628  0.722274249  0.558466118
     0.111091355  0.222221483  0.441543460
     0.110560302  0.555226148  0.441524457
     0.110995204  0.889037516  0.441522299
     0.443563010  0.221399222  0.441535436
     0.444462291  0.555799089  0.441606167
     0.444489969  0.888769717  0.441578070
     0.777780887  0.222411640  0.441579665
     0.778019989  0.555681186  0.441534898
     0.778128945  0.889370531  0.441569383
     0.000811967  0.056257903  0.679397020
     0.000314474  0.389179544  0.679354514
     0.000851529  0.722296678  0.679345922
     0.332826121  0.055161128  0.679480291
     0.333090329  0.388983679  0.679477707
     0.333752455  0.722780751  0.679311022
     0.666734491  0.054889821  0.679381840
     0.666163154  0.389351093  0.679211438
     0.666133277  0.722185350  0.679234870
     0.000003233  0.999792110  0.381319078
     0.000087551  0.334004345  0.381009051
     0.000118654  0.666811701  0.381008268
     0.333241148  0.999983039  0.381051688
     0.332834532  0.332602048  0.381183590
     0.334094110  0.667273377  0.380893810
     0.667229502  0.000309145  0.381111835
     0.665934988  0.332835000  0.381174377
     0.666214670  0.666437853  0.380921912
     0.222438567  0.166384397  0.618916861
     0.221725101  0.499843950  0.618776414
     0.222141086  0.833047836  0.618899883
     0.555868754  0.166897045  0.619058264
     0.555171296  0.499581492  0.618719843
     0.555472336  0.833414379  0.618658323
     0.889179709  0.166596791  0.618819752
     0.888881697  0.499995682  0.618894666
     0.888998876  0.833153181  0.618829549

  ion indices of the primitive-cell ions
   primitive index   ion index
                 1           1
                 2           2
                 3           3
                 4           4
                 5           5
                 6           6
                 7           7
                 8           8
                 9           9
                10          10
                11          11
                12          12
                13          13
                14          14
                15          15
                16          16
                17          17
                18          18
                19          19
                20          20
                21          21
                22          22
                23          23
                24          24
                25          25
                26          26
                27          27
                28          28
                29          29
                30          30
                31          31
                32          32
                33          33
                34          34
                35          35
                36          36
                37          37
                38          38
                39          39
                40          40
                41          41
                42          42
                43          43
                44          44
                45          45
                46          46
                47          47
                48          48
                49          49
                50          50
                51          51
                52          52
                53          53
                54          54

----------------------------------------------------------------------------------------

 
 

Automatic generation of k-mesh.
 generate k-points for:    3    3    1
Space group operators:
 irot       det(A)        alpha          n_x          n_y          n_z        tau_x        tau_y        tau_z
    1     1.000000     0.000000     1.000000     0.000000     0.000000     0.000000     0.000000     0.000000
 
 Subroutine IBZKPT returns following result:
 ===========================================
 
 Found      5 irreducible k-points:
 
 Following reciprocal coordinates:
            Coordinates               Weight
  0.000000  0.000000  0.000000      1.000000
  0.333333 -0.000000  0.000000      2.000000
  0.000000  0.333333 -0.000000      2.000000
  0.333333  0.333333  0.000000      2.000000
 -0.333333  0.333333  0.000000      2.000000
 
 Following cartesian coordinates:
            Coordinates               Weight
  0.000000  0.000000  0.000000      1.000000
  0.030886  0.017762  0.000381      2.000000
  0.000000  0.035760  0.000951      2.000000
  0.030886  0.053522  0.001332      2.000000
 -0.030886  0.017998  0.000570      2.000000
 


--------------------------------------------------------------------------------------------------------




 Dimension of arrays:
   k-points           NKPTS =      5   k-points in BZ     NKDIM =      5   number of bands    NBANDS=    200
   number of dos      NEDOS =    301   number of ions     NIONS =     54
   non local maximal  LDIM  =      6   non local SUM 2l+1 LMDIM =     18
   total plane-waves  NPLWV = ******
   max r-space proj   IRMAX =      1   max aug-charges    IRDMAX=  35758
   dimension x,y,z NGX =    84 NGY =   84 NGZ =  240
   dimension x,y,z NGXF=   168 NGYF=  168 NGZF=  480
   support grid    NGXF=   168 NGYF=  168 NGZF=  480
   ions per type =              36  18
   NGX,Y,Z   is equivalent  to a cutoff of  12.94, 12.99, 13.12 a.u.
   NGXF,Y,Z  is equivalent  to a cutoff of  25.88, 25.97, 26.25 a.u.

 SYSTEM =  dpgen_md                                
 POSCAR =  Te Mo                                   

 Startparameter for this run:
   NWRITE =      2    write-flag & timer
   PREC   = a         normal or accurate (medium, high low for compatibility)
   ISTART =      0    job   : 0-new  1-cont  2-samecut
   ICHARG =      2    charge: 1-file 2-atom 10-const
   ISPIN  =      1    spin polarized calculation?
   LNONCOLLINEAR =      F non collinear calculations
   LSORBIT =      F    spin-orbit coupling
   INIWAV =      1    electr: 0-lowe 1-rand  2-diag
   LASPH  =      F    aspherical Exc in radial PAW
   METAGGA=      F    non-selfconsistent MetaGGA calc.

 Electronic Relaxation 1
   ENCUT  =  550.0 eV  40.42 Ry    6.36 a.u.  20.64 20.56 58.13*2*pi/ulx,y,z
   ENINI  =  550.0     initial cutoff
   ENAUG  =  368.8 eV  augmentation charge cutoff
   NELM   =    100;   NELMIN=  6; NELMDL= -5     # of ELM steps 
   EDIFF  = 0.1E-05   stopping-criterion for ELM
   LREAL  =      F    real-space projection
   NLSPLINE    = F    spline interpolate recip. space projectors
   LCOMPAT=      F    compatible to vasp.4.4
   GGA_COMPAT  = T    GGA compatible to vasp.4.4-vasp.4.6
   LMAXPAW     = -100 max onsite density
   LMAXMIX     =    2 max onsite mixed and CHGCAR
   VOSKOWN=      0    Vosko Wilk Nusair interpolation
   ROPT   =    0.00000   0.00000
 Ionic relaxation
   EDIFFG = 0.1E-04   stopping-criterion for IOM
   NSW    =     10    number of steps for IOM
   NBLOCK =      1;   KBLOCK =      1    inner block; outer block 
   IBRION =      0    ionic relax: 0-MD 1-quasi-New 2-CG
   NFREE  =      0    steps in history (QN), initial steepest desc. (CG)
   ISIF   =      2    stress and relaxation
   IWAVPR =     11    prediction:  0-non 1-charg 2-wave 3-comb
   ISYM   =      0    0-nonsym 1-usesym 2-fastsym
   LCORR  =      T    Harris-Foulkes like correction to forces

   POTIM  = 2.0000    time-step for ionic-motion
   TEIN   =  100.0    initial temperature
   TEBEG  =  100.0;   TEEND  = 100.0 temperature during run
   SMASS  =   0.04    Nose mass-parameter (am)
   estimated Nose-frequenzy (Omega)   =  0.79E+14 period in steps = 0.40E+02 mass=   0.327E-28a.u.
   SCALEE = 1.0000    scale energy and forces
   NPACO  =    256;   APACO  = 16.0  distance and # of slots for P.C.
   PSTRESS=    0.0 pullay stress

  Mass of Ions in am
   POMASS = 127.60 95.94
  Ionic Valenz
   ZVAL   =   6.00  6.00
  Atomic Wigner-Seitz radii
   RWIGS  =  -1.00 -1.00
  virtual crystal weights 
   VCA    =   1.00  1.00
   NELECT =     324.0000    total number of electrons
   NUPDOWN=      -1.0000    fix difference up-down

 DOS related values:
   EMIN   =  10.00;   EMAX   =-10.00  energy-range for DOS
   EFERMI =   0.00
   ISMEAR =     0;   SIGMA  =   0.10  broadening in eV -4-tet -1-fermi 0-gaus

 Electronic relaxation 2 (details)
   IALGO  =     68    algorithm
   LDIAG  =      T    sub-space diagonalisation (order eigenvalues)
   LSUBROT=      F    optimize rotation matrix (better conditioning)
   TURBO    =      0    0=normal 1=particle mesh
   IRESTART =      0    0=no restart 2=restart with 2 vectors
   NREBOOT  =      0    no. of reboots
   NMIN     =      0    reboot dimension
   EREF     =   0.00    reference energy to select bands
   IMIX   =      4    mixing-type and parameters
     AMIX     =   0.40;   BMIX     =  1.00
     AMIX_MAG =   1.60;   BMIX_MAG =  1.00
     AMIN     =   0.10
     WC   =   100.;   INIMIX=   1;  MIXPRE=   1;  MAXMIX= -45

 Intra band minimization:
   WEIMIN = 0.0010     energy-eigenvalue tresh-hold
   EBREAK =  0.13E-08  absolut break condition
   DEPER  =   0.30     relativ break condition  

   TIME   =   0.40     timestep for ELM

  volume/ion in A,a.u.               =      56.62       382.07
  Fermi-wavevector in a.u.,A,eV,Ry     =   0.774718  1.464005  8.166059  0.600188
  Thomas-Fermi vector in A             =   1.876834
 
 Write flags
   LWAVE        =      F    write WAVECAR
   LDOWNSAMPLE  =      F    k-point downsampling of WAVECAR
   LCHARG       =      F    write CHGCAR
   LVTOT        =      F    write LOCPOT, total local potential
   LVHAR        =      F    write LOCPOT, Hartree potential only
   LELF         =      F    write electronic localiz. function (ELF)
   LORBIT       =      0    0 simple, 1 ext, 2 COOP (PROOUT), +10 PAW based schemes


 Dipole corrections
   LMONO  =      F    monopole corrections only (constant potential shift)
   LDIPOL =      F    correct potential (dipole corrections)
   IDIPOL =      0    1-x, 2-y, 3-z, 4-all directions 
   EPSILON=  1.0000000 bulk dielectric constant

 Exchange correlation treatment:
   GGA     =    --    GGA type
   LEXCH   =     8    internal setting for exchange type
   VOSKOWN=      0    Vosko Wilk Nusair interpolation
   LHFCALC =     F    Hartree Fock is set to
   LHFONE  =     F    Hartree Fock one center treatment
   AEXX    =    0.0000 exact exchange contribution

 Linear response parameters
   LEPSILON=     F    determine dielectric tensor
   LRPA    =     F    only Hartree local field effects (RPA)
   LNABLA  =     F    use nabla operator in PAW spheres
   LVEL    =     F    velocity operator in full k-point grid
   LINTERFAST=   F  fast interpolation
   KINTER  =     0    interpolate to denser k-point grid
   CSHIFT  =0.1000    complex shift for real part using Kramers Kronig
   OMEGAMAX=  -1.0    maximum frequency
   DEG_THRESHOLD= 0.2000000E-02 threshold for treating states as degnerate
   RTIME   =   -0.100 relaxation time in fs
  (WPLASMAI=    0.000 imaginary part of plasma frequency in eV, 0.658/RTIME)
   DFIELD  = 0.0000000 0.0000000 0.0000000 field for delta impulse in time
 
 Orbital magnetization related:
   ORBITALMAG=     F  switch on orbital magnetization
   LCHIMAG   =     F  perturbation theory with respect to B field
   DQ        =  0.001000  dq finite difference perturbation B field
   LLRAUG    =     F  two centre corrections for induced B field



--------------------------------------------------------------------------------------------------------


 molecular dynamics for ions
   using nose mass (canonical ensemble)
 charge density and potential will be updated during run
 non-spin polarized calculation
 RMM-DIIS sequential band-by-band and
  variant of blocked Davidson during initial phase
 perform sub-space diagonalisation
    before iterative eigenvector-optimisation
 modified Broyden-mixing scheme, WC =      100.0
 initial mixing is a Kerker type mixing with AMIX =  0.4000 and BMIX =      1.0000
 Hartree-type preconditioning will be used
 using additional bands           38
 reciprocal scheme for non local part
 use partial core corrections
 calculate Harris-corrections to forces 
   (improved forces if not selfconsistent)
 use gradient corrections 
 use of overlap-Matrix (Vanderbilt PP)
 Gauss-broadening in eV      SIGMA  =   0.10


--------------------------------------------------------------------------------------------------------


  energy-cutoff  :      550.00
  volume of cell :     3057.30
      direct lattice vectors                 reciprocal lattice vectors
    10.792302069  0.000000000  0.000000000     0.092658637  0.053286215  0.001142124
    -5.360602751  9.321475450  0.000000000     0.000000000  0.107279154  0.002852643
     0.090130518 -0.808111807 30.390606280     0.000000000  0.000000000  0.032904905

  length of vectors
    10.792302069 10.752951521 30.401482172     0.106894098  0.107317074  0.032904905


 
 k-points in units of 2pi/SCALE and weight: read from INCAR                         
   0.00000000  0.00000000  0.00000000       0.111
   0.03088621  0.01776207  0.00038071       0.222
   0.00000000  0.03575972  0.00095088       0.222
   0.03088621  0.05352179  0.00133159       0.222
  -0.03088621  0.01799765  0.00057017       0.222
 
 k-points in reciprocal lattice and weights: read from INCAR                         
   0.00000000  0.00000000  0.00000000       0.111
   0.33333333 -0.00000000  0.00000000       0.222
   0.00000000  0.33333333 -0.00000000       0.222
   0.33333333  0.33333333  0.00000000       0.222
  -0.33333333  0.33333333  0.00000000       0.222
 
 position of ions in fractional coordinates (direct lattice) 
   0.11116900  0.22240916  0.32073048
   0.11142195  0.55546995  0.32044245
   0.11172099  0.88895528  0.32043776
   0.44443388  0.22217869  0.32061366
   0.44440185  0.55561782  0.32066040
   0.44438533  0.88805772  0.32072530
   0.77774719  0.22228536  0.32064965
   0.77785126  0.55578921  0.32057540
   0.77791795  0.88899882  0.32061874
   0.00011120  0.05559824  0.55844972
   0.99946711  0.38892139  0.55853886
   0.99985893  0.72243708  0.55871476
   0.33354793  0.05526839  0.55822912
   0.33334316  0.38971786  0.55858579
   0.33323401  0.72221119  0.55822851
   0.66689097  0.05500316  0.55847969
   0.66607973  0.38855526  0.55845607
   0.66669563  0.72227425  0.55846612
   0.11109135  0.22222148  0.44154346
   0.11056030  0.55522615  0.44152446
   0.11099520  0.88903752  0.44152230
   0.44356301  0.22139922  0.44153544
   0.44446229  0.55579909  0.44160617
   0.44448997  0.88876972  0.44157807
   0.77778089  0.22241164  0.44157967
   0.77801999  0.55568119  0.44153490
   0.77812895  0.88937053  0.44156938
   0.00081197  0.05625790  0.67939702
   0.00031447  0.38917954  0.67935451
   0.00085153  0.72229668  0.67934592
   0.33282612  0.05516113  0.67948029
   0.33309033  0.38898368  0.67947771
   0.33375245  0.72278075  0.67931102
   0.66673449  0.05488982  0.67938184
   0.66616315  0.38935109  0.67921144
   0.66613328  0.72218535  0.67923487
   0.00000323  0.99979211  0.38131908
   0.00008755  0.33400434  0.38100905
   0.00011865  0.66681170  0.38100827
   0.33324115  0.99998304  0.38105169
   0.33283453  0.33260205  0.38118359
   0.33409411  0.66727338  0.38089381
   0.66722950  0.00030915  0.38111184
   0.66593499  0.33283500  0.38117438
   0.66621467  0.66643785  0.38092191
   0.22243857  0.16638440  0.61891686
   0.22172510  0.49984395  0.61877641
   0.22214109  0.83304784  0.61889988
   0.55586875  0.16689705  0.61905826
   0.55517130  0.49958149  0.61871984
   0.55547234  0.83341438  0.61865832
   0.88917971  0.16659679  0.61881975
   0.88888170  0.49999568  0.61889467
   0.88899888  0.83315318  0.61882955
 
 position of ions in cartesian coordinates  (Angst):
   0.03642991  1.81399548  9.74719366
  -1.74627274  4.91884616  9.73844020
  -3.53072821  8.02742533  9.73829786
   3.63435007  1.81194155  9.74364356
   1.84657384  4.92004840  9.74506390
   0.06432317  8.01882636  9.74703643
   7.23099940  1.81290680  9.74473713
   5.44433427  4.92171472  9.74248067
   3.65885354  8.02768489  9.74379794
  -0.24650658  0.06696780 16.97162558
   8.75203926  3.17395937 16.97433456
   6.96843868  6.28267548 16.97968016
   3.35379158  0.06407140 16.96492135
   1.55876300  3.18134574 16.97576069
  -0.22481173  6.28096281 16.96490292
   6.95277476  0.06139661 16.97253632
   5.15597719  3.17061340 16.97181846
   3.37369012  6.28135862 16.97212391
   0.04748690  1.71461561 13.41877346
  -1.74335182  4.81872578 13.41819594
  -3.52808855  7.93034200 13.41813037
   3.64002853  1.70695741 13.41852960
   1.85715537  4.82400041 13.42067915
   0.07252828  7.92780065 13.41982525
   7.24158563  1.71635891 13.41987375
   5.45763641  4.82295897 13.41851325
   3.67003939  7.93340814 13.41956126
  -0.23157887 -0.02462210 20.64728734
  -2.02161246  3.07873316 20.64599557
  -3.80152580  6.18388329 20.64573445
   3.35750505 -0.03491294 20.64981799
   1.57086615  3.07680786 20.64973946
  -0.21135652  6.18842377 20.64467380
   6.96259054 -0.03736237 20.64682601
   5.16349512  3.08044787 20.64164739
   3.37898256  6.18293529 20.64235952
  -5.32508496  9.01138916 11.58851797
  -1.75517918  2.80551539 11.57909607
  -3.53889162  5.90777162 11.57907226
  -1.72972831  9.01338498 11.58039181
   1.84345963  2.79230286 11.58440041
   0.06298721  5.91216762 11.57559383
   7.23363493 -0.30509928 11.58221974
   5.43713078  2.79448177 11.58412042
   3.65181406  5.90435659 11.57644786
   1.56448685  1.05079405 18.80925864
  -0.23076995  4.15924258 18.80499036
  -2.01244305  7.26509465 18.80874266
   5.16023079  1.05545842 18.81355596
   3.36928394  4.15684181 18.80327115
   1.58298182  7.26870658 18.80140151
   8.75901135  1.05285235 18.80630745
   6.96858285  4.16056139 18.80858413
   5.18391661  7.26613346 18.80660519
 


--------------------------------------------------------------------------------------------------------


 k-point   1 :   0.0000 0.0000 0.0000  plane waves:   89627
 k-point   2 :   0.3333-0.0000 0.0000  plane waves:   89496
 k-point   3 :   0.0000 0.3333-0.0000  plane waves:   89527
 k-point   4 :   0.3333 0.3333 0.0000  plane waves:   89506
 k-point   5 :  -0.3333 0.3333 0.0000  plane waves:   89520

 maximum and minimum number of plane-waves per node :     89627    89496

 maximum number of plane-waves:     89627
 maximum index in each direction: 
   IXMAX=   20   IYMAX=   20   IZMAX=   58
   IXMIN=  -20   IYMIN=  -20   IZMIN=  -58


 serial   3D FFT for wavefunctions
 parallel 3D FFT for charge:
    minimum data exchange during FFTs selected (reduces bandwidth)


 total amount of memory used by VASP MPI-rank0   383984. kBytes
=======================================================================

   base      :      30000. kBytes
   nonl-proj :     206530. kBytes
   fftplans  :      19943. kBytes
   grid      :      90496. kBytes
   one-center:        839. kBytes
   wavefun   :      36176. kBytes
 
     INWAV:  cpu time    0.0001: real time    0.0001
 Broyden mixing: mesh for mixing (old mesh)
   NGX = 41   NGY = 41   NGZ =117
  (NGX  =168   NGY  =168   NGZ  =480)
  gives a total of 196677 points

 initial charge density was supplied:
 charge density of overlapping atoms calculated
 number of electron     324.0000000 magnetization 
 keeping initial charge density in first step


--------------------------------------------------------------------------------------------------------


 Maximum index for augmentation-charges         2190 (set IRDMAX)


--------------------------------------------------------------------------------------------------------


 First call to EWALD:  gamma=   0.122
 Maximum number of real-space cells 4x 4x 2
 Maximum number of reciprocal cells 2x 2x 5

    FEWALD:  cpu time    0.0024: real time    0.0024


--------------------------------------- Iteration      1(   1)  ---------------------------------------


    POTLOK:  cpu time    0.3349: real time    0.3366
    SETDIJ:  cpu time    0.0122: real time    0.0123
     EDDAV:  cpu time   49.1333: real time   49.1983
       DOS:  cpu time    0.0009: real time    0.0010
    --------------------------------------------
      LOOP:  cpu time   49.4812: real time   49.5482

 eigenvalue-minimisations  :  2000
 total energy-change (2. order) : 0.2074350E+04  (-0.1133717E+05)
 number of electron     324.0000000 magnetization 
 augmentation part      324.0000000 magnetization 

 Free energy of the ion-electron system (eV)
  ---------------------------------------------------
  alpha Z        PSCENC =       234.73852054
  Ewald energy   TEWEN  =     60764.78451063
  -Hartree energ DENC   =    -72400.03628990
  -exchange      EXHF   =         0.00000000
  -V(xc)+E(xc)   XCENC  =     -2106.50006753
  PAW double counting   =      7476.04436201    -4809.59211051
  entropy T*S    EENTRO =        -0.13247100
  eigenvalues    EBANDS =       961.96106279
  atomic energy  EATOM  =     11953.08265402
  Solvation  Ediel_sol  =         0.00000000
  ---------------------------------------------------
  free energy    TOTEN  =      2074.35017106 eV

  energy without entropy =     2074.48264205  energy(sigma->0) =     2074.41640655


--------------------------------------------------------------------------------------------------------




--------------------------------------- Iteration      1(   2)  ---------------------------------------


     EDDAV:  cpu time   68.0820: real time   68.1662
       DOS:  cpu time    0.0006: real time    0.0006
    --------------------------------------------
      LOOP:  cpu time   68.0826: real time   68.1668

 eigenvalue-minimisations  :  3000
 total energy-change (2. order) :-0.2166054E+04  (-0.2096225E+04)
 number of electron     324.0000000 magnetization 
 augmentation part      324.0000000 magnetization 

 Free energy of the ion-electron system (eV)
  ---------------------------------------------------
  alpha Z        PSCENC =       234.73852054
  Ewald energy   TEWEN  =     60764.78451063
  -Hartree energ DENC   =    -72400.03628990
  -exchange      EXHF   =         0.00000000
  -V(xc)+E(xc)   XCENC  =     -2106.50006753
  PAW double counting   =      7476.04436201    -4809.59211051
  entropy T*S    EENTRO =        -0.00874747
  eigenvalues    EBANDS =     -1204.21651248
  atomic energy  EATOM  =     11953.08265402
  Solvation  Ediel_sol  =         0.00000000
  ---------------------------------------------------
  free energy    TOTEN  =       -91.70368069 eV

  energy without entropy =      -91.69493322  energy(sigma->0) =      -91.69930695


--------------------------------------------------------------------------------------------------------




--------------------------------------- Iteration      1(   3)  ---------------------------------------


     EDDAV:  cpu time   58.9117: real time   58.9894
       DOS:  cpu time    0.0004: real time    0.0004
    --------------------------------------------
      LOOP:  cpu time   58.9121: real time   58.9898

 eigenvalue-minimisations  :  2520
 total energy-change (2. order) :-0.2330305E+03  (-0.2297091E+03)
 number of electron     324.0000000 magnetization 
 augmentation part      324.0000000 magnetization 

 Free energy of the ion-electron system (eV)
  ---------------------------------------------------
  alpha Z        PSCENC =       234.73852054
  Ewald energy   TEWEN  =     60764.78451063
  -Hartree energ DENC   =    -72400.03628990
  -exchange      EXHF   =         0.00000000
  -V(xc)+E(xc)   XCENC  =     -2106.50006753
  PAW double counting   =      7476.04436201    -4809.59211051
  entropy T*S    EENTRO =        -0.00000000
  eigenvalues    EBANDS =     -1437.25578359
  atomic energy  EATOM  =     11953.08265402
  Solvation  Ediel_sol  =         0.00000000
  ---------------------------------------------------
  free energy    TOTEN  =      -324.73420433 eV

  energy without entropy =     -324.73420433  energy(sigma->0) =     -324.73420433


--------------------------------------------------------------------------------------------------------




--------------------------------------- Iteration      1(   4)  ---------------------------------------


     EDDAV:  cpu time   68.7129: real time   68.8001
       DOS:  cpu time    0.0004: real time    0.0004
    --------------------------------------------
      LOOP:  cpu time   68.7133: real time   68.8005

 eigenvalue-minimisations  :  3040
 total energy-change (2. order) :-0.1203477E+02  (-0.1193690E+02)
 number of electron     324.0000000 magnetization 
 augmentation part      324.0000000 magnetization 

 Free energy of the ion-electron system (eV)
  ---------------------------------------------------
  alpha Z        PSCENC =       234.73852054
  Ewald energy   TEWEN  =     60764.78451063
  -Hartree energ DENC   =    -72400.03628990
  -exchange      EXHF   =         0.00000000
  -V(xc)+E(xc)   XCENC  =     -2106.50006753
  PAW double counting   =      7476.04436201    -4809.59211051
  entropy T*S    EENTRO =        -0.00000000
  eigenvalues    EBANDS =     -1449.29055353
  atomic energy  EATOM  =     11953.08265402
  Solvation  Ediel_sol  =         0.00000000
  ---------------------------------------------------
  free energy    TOTEN  =      -336.76897427 eV

  energy without entropy =     -336.76897427  energy(sigma->0) =     -336.76897427


--------------------------------------------------------------------------------------------------------




--------------------------------------- Iteration      1(   5)  ---------------------------------------


     EDDAV:  cpu time   68.0310: real time   68.1225
       DOS:  cpu time    0.0004: real time    0.0004
    CHARGE:  cpu time    1.1221: real time    1.1236
    MIXING:  cpu time    0.0075: real time    0.0078
    --------------------------------------------
      LOOP:  cpu time   69.1610: real time   69.2542

 eigenvalue-minimisations  :  3000
 total energy-change (2. order) :-0.4001073E+00  (-0.3990744E+00)
 number of electron     324.0000015 magnetization 
 augmentation part      -26.3319041 magnetization 

 Broyden mixing:
  rms(total) = 0.20352E+01    rms(broyden)= 0.20352E+01
  rms(prec ) = 0.21595E+01
  weight for this iteration     100.00

 Free energy of the ion-electron system (eV)
  ---------------------------------------------------
  alpha Z        PSCENC =       234.73852054
  Ewald energy   TEWEN  =     60764.78451063
  -Hartree energ DENC   =    -72400.03628990
  -exchange      EXHF   =         0.00000000
  -V(xc)+E(xc)   XCENC  =     -2106.50006753
  PAW double counting   =      7476.04436201    -4809.59211051
  entropy T*S    EENTRO =        -0.00000000
  eigenvalues    EBANDS =     -1449.69066081
  atomic energy  EATOM  =     11953.08265402
  Solvation  Ediel_sol  =         0.00000000
  ---------------------------------------------------
  free energy    TOTEN  =      -337.16908155 eV

  energy without entropy =     -337.16908155  energy(sigma->0) =     -337.16908155


--------------------------------------------------------------------------------------------------------




--------------------------------------- Iteration      1(   6)  ---------------------------------------


    POTLOK:  cpu time    0.2911: real time    0.2913
    SETDIJ:  cpu time    0.0114: real time    0.0114
    EDDIAG:  cpu time    2.4574: real time    2.4607
  RMM-DIIS:  cpu time   43.4231: real time   43.4809
    ORTHCH:  cpu time    0.2141: real time    0.2143
       DOS:  cpu time    0.0006: real time    0.0005
    CHARGE:  cpu time    1.1306: real time    1.1316
    MIXING:  cpu time    0.0070: real time    0.0071
    --------------------------------------------
      LOOP:  cpu time   47.5353: real time   47.5979

 eigenvalue-minimisations  :  2163
 total energy-change (2. order) : 0.8946521E+01  (-0.8277693E+01)
 number of electron     324.0000016 magnetization 
 augmentation part      -19.1348041 magnetization 

 Broyden mixing:
  rms(total) = 0.78455E+00    rms(broyden)= 0.78454E+00
  rms(prec ) = 0.92694E+00
  weight for this iteration     100.00

 eigenvalues of (default mixing * dielectric matrix)
  average eigenvalue GAMMA=   0.9166
  0.9166

 Free energy of the ion-electron system (eV)
  ---------------------------------------------------
  alpha Z        PSCENC =       234.73852054
  Ewald energy   TEWEN  =     60764.78451063
  -Hartree energ DENC   =    -72352.94349254
  -exchange      EXHF   =         0.00000000
  -V(xc)+E(xc)   XCENC  =     -2099.81931987
  PAW double counting   =      7578.99880854    -4922.98428116
  entropy T*S    EENTRO =        -0.00000051
  eigenvalues    EBANDS =     -1484.07996014
  atomic energy  EATOM  =     11953.08265402
  Solvation  Ediel_sol  =         0.00000000
  ---------------------------------------------------
  free energy    TOTEN  =      -328.22256050 eV

  energy without entropy =     -328.22255999  energy(sigma->0) =     -328.22256025


--------------------------------------------------------------------------------------------------------




--------------------------------------- Iteration      1(   7)  ---------------------------------------


    POTLOK:  cpu time    0.2869: real time    0.2872
    SETDIJ:  cpu time    0.0116: real time    0.0116
    EDDIAG:  cpu time    2.4621: real time    2.4650
  RMM-DIIS:  cpu time   39.7331: real time   39.7831
    ORTHCH:  cpu time    0.2122: real time    0.2125
       DOS:  cpu time    0.0004: real time    0.0004
    CHARGE:  cpu time    1.1226: real time    1.1236
    MIXING:  cpu time    0.0071: real time    0.0071
    --------------------------------------------
      LOOP:  cpu time   43.8360: real time   43.8904

 eigenvalue-minimisations  :  2020
 total energy-change (2. order) : 0.4301993E+01  (-0.1342644E+01)
 number of electron     324.0000016 magnetization 
 augmentation part      -21.6496998 magnetization 

 Broyden mixing:
  rms(total) = 0.49107E+00    rms(broyden)= 0.49107E+00
  rms(prec ) = 0.52288E+00
  weight for this iteration     100.00

 eigenvalues of (default mixing * dielectric matrix)
  average eigenvalue GAMMA=   1.4665
  0.7008  2.2322

 Free energy of the ion-electron system (eV)
  ---------------------------------------------------
  alpha Z        PSCENC =       234.73852054
  Ewald energy   TEWEN  =     60764.78451063
  -Hartree energ DENC   =    -72442.44352180
  -exchange      EXHF   =         0.00000000
  -V(xc)+E(xc)   XCENC  =     -2099.38086299
  PAW double counting   =      7822.58781949    -5170.11325604
  entropy T*S    EENTRO =        -0.00000000
  eigenvalues    EBANDS =     -1387.17643137
  atomic energy  EATOM  =     11953.08265402
  Solvation  Ediel_sol  =         0.00000000
  ---------------------------------------------------
  free energy    TOTEN  =      -323.92056753 eV

  energy without entropy =     -323.92056753  energy(sigma->0) =     -323.92056753


--------------------------------------------------------------------------------------------------------




--------------------------------------- Iteration      1(   8)  ---------------------------------------


    POTLOK:  cpu time    0.2871: real time    0.2874
    SETDIJ:  cpu time    0.0115: real time    0.0115
    EDDIAG:  cpu time    2.4576: real time    2.4602
  RMM-DIIS:  cpu time   40.2422: real time   40.2945
    ORTHCH:  cpu time    0.2131: real time    0.2133
       DOS:  cpu time    0.0005: real time    0.0004
    CHARGE:  cpu time    1.1517: real time    1.1529
    MIXING:  cpu time    0.0072: real time    0.0072
    --------------------------------------------
      LOOP:  cpu time   44.3709: real time   44.4276

 eigenvalue-minimisations  :  2044
 total energy-change (2. order) : 0.3336225E+00  (-0.1118097E+01)
 number of electron     324.0000016 magnetization 
 augmentation part      -21.9310382 magnetization 

 Broyden mixing:
  rms(total) = 0.20870E+00    rms(broyden)= 0.20870E+00
  rms(prec ) = 0.24406E+00
  weight for this iteration     100.00

 eigenvalues of (default mixing * dielectric matrix)
  average eigenvalue GAMMA=   1.2010
  2.1591  0.7219  0.7219

 Free energy of the ion-electron system (eV)
  ---------------------------------------------------
  alpha Z        PSCENC =       234.73852054
  Ewald energy   TEWEN  =     60764.78451063
  -Hartree energ DENC   =    -72511.46791244
  -exchange      EXHF   =         0.00000000
  -V(xc)+E(xc)   XCENC  =     -2095.55674594
  PAW double counting   =      8115.11171355    -5468.72603528
  entropy T*S    EENTRO =        -0.00000000
  eigenvalues    EBANDS =     -1315.55365007
  atomic energy  EATOM  =     11953.08265402
  Solvation  Ediel_sol  =         0.00000000
  ---------------------------------------------------
  free energy    TOTEN  =      -323.58694500 eV

  energy without entropy =     -323.58694500  energy(sigma->0) =     -323.58694500


--------------------------------------------------------------------------------------------------------




--------------------------------------- Iteration      1(   9)  ---------------------------------------


    POTLOK:  cpu time    0.2882: real time    0.2885
    SETDIJ:  cpu time    0.0114: real time    0.0114
    EDDIAG:  cpu time    2.4581: real time    2.4612
  RMM-DIIS:  cpu time   43.5140: real time   43.5750
    ORTHCH:  cpu time    0.2142: real time    0.2155
       DOS:  cpu time    0.0004: real time    0.0004
    CHARGE:  cpu time    1.1306: real time    1.1317
    MIXING:  cpu time    0.0072: real time    0.0072
    --------------------------------------------
      LOOP:  cpu time   47.6242: real time   47.6910

 eigenvalue-minimisations  :  2196
 total energy-change (2. order) : 0.9904615E-01  (-0.1666085E+00)
 number of electron     324.0000016 magnetization 
 augmentation part      -21.4289249 magnetization 

 Broyden mixing:
  rms(total) = 0.12061E+00    rms(broyden)= 0.12061E+00
  rms(prec ) = 0.13651E+00
  weight for this iteration     100.00

 eigenvalues of (default mixing * dielectric matrix)
  average eigenvalue GAMMA=   1.0438
  2.0855  0.8427  0.8427  0.4041

 Free energy of the ion-electron system (eV)
  ---------------------------------------------------
  alpha Z        PSCENC =       234.73852054
  Ewald energy   TEWEN  =     60764.78451063
  -Hartree energ DENC   =    -72502.90834530
  -exchange      EXHF   =         0.00000000
  -V(xc)+E(xc)   XCENC  =     -2095.27794130
  PAW double counting   =      8100.11514691    -5453.74267411
  entropy T*S    EENTRO =        -0.00000000
  eigenvalues    EBANDS =     -1324.27977024
  atomic energy  EATOM  =     11953.08265402
  Solvation  Ediel_sol  =         0.00000000
  ---------------------------------------------------
  free energy    TOTEN  =      -323.48789886 eV

  energy without entropy =     -323.48789886  energy(sigma->0) =     -323.48789886


--------------------------------------------------------------------------------------------------------




--------------------------------------- Iteration      1(  10)  ---------------------------------------


    POTLOK:  cpu time    0.2888: real time    0.2891
    SETDIJ:  cpu time    0.0116: real time    0.0116
    EDDIAG:  cpu time    2.4596: real time    2.4625
  RMM-DIIS:  cpu time   47.0081: real time   47.0638
    ORTHCH:  cpu time    0.2131: real time    0.2133
       DOS:  cpu time    0.0004: real time    0.0004
    CHARGE:  cpu time    1.1253: real time    1.1263
    MIXING:  cpu time    0.0074: real time    0.0074
    --------------------------------------------
      LOOP:  cpu time   51.1143: real time   51.1744

 eigenvalue-minimisations  :  2389
 total energy-change (2. order) : 0.5023363E-02  (-0.6377527E-01)
 number of electron     324.0000016 magnetization 
 augmentation part      -21.0997029 magnetization 

 Broyden mixing:
  rms(total) = 0.75146E-01    rms(broyden)= 0.75146E-01
  rms(prec ) = 0.81494E-01
  weight for this iteration     100.00

 eigenvalues of (default mixing * dielectric matrix)
  average eigenvalue GAMMA=   1.1918
  2.3313  1.1815  1.1815  0.9023  0.3625

 Free energy of the ion-electron system (eV)
  ---------------------------------------------------
  alpha Z        PSCENC =       234.73852054
  Ewald energy   TEWEN  =     60764.78451063
  -Hartree energ DENC   =    -72500.88506711
  -exchange      EXHF   =         0.00000000
  -V(xc)+E(xc)   XCENC  =     -2095.10157682
  PAW double counting   =      8101.55732489    -5455.16022246
  entropy T*S    EENTRO =        -0.00000000
  eigenvalues    EBANDS =     -1326.49901918
  atomic energy  EATOM  =     11953.08265402
  Solvation  Ediel_sol  =         0.00000000
  ---------------------------------------------------
  free energy    TOTEN  =      -323.48287549 eV

  energy without entropy =     -323.48287549  energy(sigma->0) =     -323.48287549


--------------------------------------------------------------------------------------------------------




--------------------------------------- Iteration      1(  11)  ---------------------------------------


    POTLOK:  cpu time    0.2894: real time    0.2897
    SETDIJ:  cpu time    0.0114: real time    0.0115
    EDDIAG:  cpu time    2.4818: real time    2.4851
  RMM-DIIS:  cpu time   42.5888: real time   42.6432
    ORTHCH:  cpu time    0.2131: real time    0.2133
       DOS:  cpu time    0.0004: real time    0.0004
    CHARGE:  cpu time    1.1294: real time    1.1305
    MIXING:  cpu time    0.0074: real time    0.0074
    --------------------------------------------
      LOOP:  cpu time   46.7218: real time   46.7812

 eigenvalue-minimisations  :  2148
 total energy-change (2. order) : 0.4548284E-02  (-0.1809694E-01)
 number of electron     324.0000016 magnetization 
 augmentation part      -21.3484679 magnetization 

 Broyden mixing:
  rms(total) = 0.50254E-01    rms(broyden)= 0.50254E-01
  rms(prec ) = 0.57638E-01
  weight for this iteration     100.00

 eigenvalues of (default mixing * dielectric matrix)
  average eigenvalue GAMMA=   1.1617
  2.5571  1.5313  1.2057  0.7884  0.5297  0.3579

 Free energy of the ion-electron system (eV)
  ---------------------------------------------------
  alpha Z        PSCENC =       234.73852054
  Ewald energy   TEWEN  =     60764.78451063
  -Hartree energ DENC   =    -72518.50973859
  -exchange      EXHF   =         0.00000000
  -V(xc)+E(xc)   XCENC  =     -2094.78275222
  PAW double counting   =      8150.81677026    -5504.67817193
  entropy T*S    EENTRO =        -0.00000000
  eigenvalues    EBANDS =     -1308.93011991
  atomic energy  EATOM  =     11953.08265402
  Solvation  Ediel_sol  =         0.00000000
  ---------------------------------------------------
  free energy    TOTEN  =      -323.47832721 eV

  energy without entropy =     -323.47832721  energy(sigma->0) =     -323.47832721


--------------------------------------------------------------------------------------------------------




--------------------------------------- Iteration      1(  12)  ---------------------------------------


    POTLOK:  cpu time    0.2903: real time    0.2906
    SETDIJ:  cpu time    0.0114: real time    0.0114
    EDDIAG:  cpu time    2.4590: real time    2.4621
  RMM-DIIS:  cpu time   51.6769: real time   51.7454
    ORTHCH:  cpu time    0.2129: real time    0.2131
       DOS:  cpu time    0.0004: real time    0.0004
    CHARGE:  cpu time    1.1287: real time    1.1302
    MIXING:  cpu time    0.0078: real time    0.0078
    --------------------------------------------
      LOOP:  cpu time   55.7874: real time   55.8610

 eigenvalue-minimisations  :  2519
 total energy-change (2. order) : 0.1155656E-03  (-0.6891989E-02)
 number of electron     324.0000016 magnetization 
 augmentation part      -21.3695780 magnetization 

 Broyden mixing:
  rms(total) = 0.37926E-01    rms(broyden)= 0.37926E-01
  rms(prec ) = 0.43254E-01
  weight for this iteration     100.00

 eigenvalues of (default mixing * dielectric matrix)
  average eigenvalue GAMMA=   1.1264
  2.5317  1.5195  1.5195  0.7918  0.7918  0.3858  0.3447

 Free energy of the ion-electron system (eV)
  ---------------------------------------------------
  alpha Z        PSCENC =       234.73852054
  Ewald energy   TEWEN  =     60764.78451063
  -Hartree energ DENC   =    -72524.05277275
  -exchange      EXHF   =         0.00000000
  -V(xc)+E(xc)   XCENC  =     -2094.63300294
  PAW double counting   =      8161.22546613    -5515.14978418
  entropy T*S    EENTRO =        -0.00000000
  eigenvalues    EBANDS =     -1303.47380309
  atomic energy  EATOM  =     11953.08265402
  Solvation  Ediel_sol  =         0.00000000
  ---------------------------------------------------
  free energy    TOTEN  =      -323.47821164 eV

  energy without entropy =     -323.47821164  energy(sigma->0) =     -323.47821164


--------------------------------------------------------------------------------------------------------




--------------------------------------- Iteration      1(  13)  ---------------------------------------


    POTLOK:  cpu time    0.2901: real time    0.2903
    SETDIJ:  cpu time    0.0115: real time    0.0115
    EDDIAG:  cpu time    2.4608: real time    2.4641
  RMM-DIIS:  cpu time   48.1760: real time   48.2378
    ORTHCH:  cpu time    0.2125: real time    0.2127
       DOS:  cpu time    0.0004: real time    0.0004
    CHARGE:  cpu time    1.1273: real time    1.1285
    MIXING:  cpu time    0.0077: real time    0.0078
    --------------------------------------------
      LOOP:  cpu time   52.2863: real time   52.3531

 eigenvalue-minimisations  :  2422
 total energy-change (2. order) : 0.3748664E-02  (-0.3968482E-02)
 number of electron     324.0000016 magnetization 
 augmentation part      -21.2389990 magnetization 

 Broyden mixing:
  rms(total) = 0.90526E-02    rms(broyden)= 0.90525E-02
  rms(prec ) = 0.12729E-01
  weight for this iteration     100.00

 eigenvalues of (default mixing * dielectric matrix)
  average eigenvalue GAMMA=   1.1006
  2.4808  1.6317  1.6317  0.8216  0.8216  0.6913  0.3827  0.3435

 Free energy of the ion-electron system (eV)
  ---------------------------------------------------
  alpha Z        PSCENC =       234.73852054
  Ewald energy   TEWEN  =     60764.78451063
  -Hartree energ DENC   =    -72525.28797797
  -exchange      EXHF   =         0.00000000
  -V(xc)+E(xc)   XCENC  =     -2094.54858858
  PAW double counting   =      8156.04296466    -5509.95081989
  entropy T*S    EENTRO =        -0.00000000
  eigenvalues    EBANDS =     -1302.33572639
  atomic energy  EATOM  =     11953.08265402
  Solvation  Ediel_sol  =         0.00000000
  ---------------------------------------------------
  free energy    TOTEN  =      -323.47446298 eV

  energy without entropy =     -323.47446298  energy(sigma->0) =     -323.47446298


--------------------------------------------------------------------------------------------------------




--------------------------------------- Iteration      1(  14)  ---------------------------------------


    POTLOK:  cpu time    0.2908: real time    0.2913
    SETDIJ:  cpu time    0.0117: real time    0.0117
    EDDIAG:  cpu time    2.4552: real time    2.4589
  RMM-DIIS:  cpu time   55.6713: real time   55.7443
    ORTHCH:  cpu time    0.2119: real time    0.2121
       DOS:  cpu time    0.0004: real time    0.0004
    CHARGE:  cpu time    1.1269: real time    1.1280
    MIXING:  cpu time    0.0077: real time    0.0077
    --------------------------------------------
      LOOP:  cpu time   59.7760: real time   59.8545

 eigenvalue-minimisations  :  2814
 total energy-change (2. order) :-0.1242653E-02  (-0.1406705E-02)
 number of electron     324.0000016 magnetization 
 augmentation part      -21.1996927 magnetization 

 Broyden mixing:
  rms(total) = 0.12416E-01    rms(broyden)= 0.12416E-01
  rms(prec ) = 0.15620E-01
  weight for this iteration     100.00

 eigenvalues of (default mixing * dielectric matrix)
  average eigenvalue GAMMA=   1.2510
  2.8142  2.6779  1.4635  1.4635  0.7793  0.7793  0.5577  0.3806  0.3429

 Free energy of the ion-electron system (eV)
  ---------------------------------------------------
  alpha Z        PSCENC =       234.73852054
  Ewald energy   TEWEN  =     60764.78451063
  -Hartree energ DENC   =    -72528.58323935
  -exchange      EXHF   =         0.00000000
  -V(xc)+E(xc)   XCENC  =     -2094.51885613
  PAW double counting   =      8153.64335605    -5507.52220038
  entropy T*S    EENTRO =        -0.00000000
  eigenvalues    EBANDS =     -1299.10045101
  atomic energy  EATOM  =     11953.08265402
  Solvation  Ediel_sol  =         0.00000000
  ---------------------------------------------------
  free energy    TOTEN  =      -323.47570563 eV

  energy without entropy =     -323.47570563  energy(sigma->0) =     -323.47570563


--------------------------------------------------------------------------------------------------------




--------------------------------------- Iteration      1(  15)  ---------------------------------------


    POTLOK:  cpu time    0.2923: real time    0.2925
    SETDIJ:  cpu time    0.0116: real time    0.0116
    EDDIAG:  cpu time    2.4581: real time    2.4608
  RMM-DIIS:  cpu time   41.6564: real time   41.7122
    ORTHCH:  cpu time    0.2125: real time    0.2127
       DOS:  cpu time    0.0004: real time    0.0004
    CHARGE:  cpu time    1.1265: real time    1.1276
    MIXING:  cpu time    0.0081: real time    0.0081
    --------------------------------------------
      LOOP:  cpu time   45.7659: real time   45.8259

 eigenvalue-minimisations  :  2111
 total energy-change (2. order) : 0.3228443E-03  (-0.5550484E-03)
 number of electron     324.0000016 magnetization 
 augmentation part      -21.2503365 magnetization 

 Broyden mixing:
  rms(total) = 0.69273E-02    rms(broyden)= 0.69272E-02
  rms(prec ) = 0.85170E-02
  weight for this iteration     100.00

 eigenvalues of (default mixing * dielectric matrix)
  average eigenvalue GAMMA=   1.2485
  3.6105  2.5239  1.5041  1.5041  0.7856  0.7856  0.6031  0.3426  0.3796  0.4454

 Free energy of the ion-electron system (eV)
  ---------------------------------------------------
  alpha Z        PSCENC =       234.73852054
  Ewald energy   TEWEN  =     60764.78451063
  -Hartree energ DENC   =    -72538.15202274
  -exchange      EXHF   =         0.00000000
  -V(xc)+E(xc)   XCENC  =     -2094.47658720
  PAW double counting   =      8152.76880132    -5506.56999202
  entropy T*S    EENTRO =        -0.00000000
  eigenvalues    EBANDS =     -1289.65126734
  atomic energy  EATOM  =     11953.08265402
  Solvation  Ediel_sol  =         0.00000000
  ---------------------------------------------------
  free energy    TOTEN  =      -323.47538279 eV

  energy without entropy =     -323.47538279  energy(sigma->0) =     -323.47538279


--------------------------------------------------------------------------------------------------------




--------------------------------------- Iteration      1(  16)  ---------------------------------------


    POTLOK:  cpu time    0.2918: real time    0.2921
    SETDIJ:  cpu time    0.0117: real time    0.0117
    EDDIAG:  cpu time    2.4578: real time    2.4608
  RMM-DIIS:  cpu time   47.9198: real time   47.9815
    ORTHCH:  cpu time    0.2123: real time    0.2126
       DOS:  cpu time    0.0004: real time    0.0004
    CHARGE:  cpu time    1.1281: real time    1.1292
    MIXING:  cpu time    0.0084: real time    0.0084
    --------------------------------------------
      LOOP:  cpu time   52.0304: real time   52.0968

 eigenvalue-minimisations  :  2396
 total energy-change (2. order) :-0.5685054E-03  (-0.1971573E-03)
 number of electron     324.0000016 magnetization 
 augmentation part      -21.2617163 magnetization 

 Broyden mixing:
  rms(total) = 0.75632E-02    rms(broyden)= 0.75632E-02
  rms(prec ) = 0.87649E-02
  weight for this iteration     100.00

 eigenvalues of (default mixing * dielectric matrix)
  average eigenvalue GAMMA=   1.2278
  3.5505  2.4301  1.6070  1.6070  1.1262  0.7631  0.7631  0.5648  0.3424  0.3805
  0.3708

 Free energy of the ion-electron system (eV)
  ---------------------------------------------------
  alpha Z        PSCENC =       234.73852054
  Ewald energy   TEWEN  =     60764.78451063
  -Hartree energ DENC   =    -72541.12830363
  -exchange      EXHF   =         0.00000000
  -V(xc)+E(xc)   XCENC  =     -2094.45560890
  PAW double counting   =      8152.46522018    -5506.25298393
  entropy T*S    EENTRO =        -0.00000000
  eigenvalues    EBANDS =     -1286.70996020
  atomic energy  EATOM  =     11953.08265402
  Solvation  Ediel_sol  =         0.00000000
  ---------------------------------------------------
  free energy    TOTEN  =      -323.47595129 eV

  energy without entropy =     -323.47595129  energy(sigma->0) =     -323.47595129


--------------------------------------------------------------------------------------------------------




--------------------------------------- Iteration      1(  17)  ---------------------------------------


    POTLOK:  cpu time    0.2931: real time    0.2933
    SETDIJ:  cpu time    0.0115: real time    0.0115
    EDDIAG:  cpu time    2.4580: real time    2.4609
  RMM-DIIS:  cpu time   43.1453: real time   43.2077
    ORTHCH:  cpu time    0.2131: real time    0.2133
       DOS:  cpu time    0.0004: real time    0.0004
    CHARGE:  cpu time    1.1278: real time    1.1295
    MIXING:  cpu time    0.0083: real time    0.0083
    --------------------------------------------
      LOOP:  cpu time   47.2575: real time   47.3251

 eigenvalue-minimisations  :  2186
 total energy-change (2. order) :-0.6739642E-03  (-0.6217743E-04)
 number of electron     324.0000016 magnetization 
 augmentation part      -21.2428546 magnetization 

 Broyden mixing:
  rms(total) = 0.26850E-02    rms(broyden)= 0.26850E-02
  rms(prec ) = 0.35250E-02
  weight for this iteration     100.00

 eigenvalues of (default mixing * dielectric matrix)
  average eigenvalue GAMMA=   1.3294
  4.0335  2.4451  2.4451  1.4424  1.4424  0.9478  0.7724  0.7724  0.5591  0.3425
  0.3814  0.3692

 Free energy of the ion-electron system (eV)
  ---------------------------------------------------
  alpha Z        PSCENC =       234.73852054
  Ewald energy   TEWEN  =     60764.78451063
  -Hartree energ DENC   =    -72542.36900848
  -exchange      EXHF   =         0.00000000
  -V(xc)+E(xc)   XCENC  =     -2094.43691050
  PAW double counting   =      8151.89002012    -5505.68945846
  entropy T*S    EENTRO =        -0.00000000
  eigenvalues    EBANDS =     -1285.47695313
  atomic energy  EATOM  =     11953.08265402
  Solvation  Ediel_sol  =         0.00000000
  ---------------------------------------------------
  free energy    TOTEN  =      -323.47662526 eV

  energy without entropy =     -323.47662526  energy(sigma->0) =     -323.47662526


--------------------------------------------------------------------------------------------------------




--------------------------------------- Iteration      1(  18)  ---------------------------------------


    POTLOK:  cpu time    0.2929: real time    0.2932
    SETDIJ:  cpu time    0.0115: real time    0.0115
    EDDIAG:  cpu time    2.4783: real time    2.4815
  RMM-DIIS:  cpu time   44.2137: real time   44.2755
    ORTHCH:  cpu time    0.2116: real time    0.2118
       DOS:  cpu time    0.0004: real time    0.0004
    CHARGE:  cpu time    1.1286: real time    1.1302
    MIXING:  cpu time    0.0085: real time    0.0085
    --------------------------------------------
      LOOP:  cpu time   48.3454: real time   48.4126

 eigenvalue-minimisations  :  2228
 total energy-change (2. order) :-0.1704826E-02  (-0.4060722E-04)
 number of electron     324.0000016 magnetization 
 augmentation part      -21.2384976 magnetization 

 Broyden mixing:
  rms(total) = 0.26553E-02    rms(broyden)= 0.26552E-02
  rms(prec ) = 0.31465E-02
  weight for this iteration     100.00

 eigenvalues of (default mixing * dielectric matrix)
  average eigenvalue GAMMA=   1.3738
  4.9902  2.9124  2.3990  1.4965  1.4965  1.0124  0.7724  0.7724  0.5575  0.3426
  0.3764  0.3764  0.3551

 Free energy of the ion-electron system (eV)
  ---------------------------------------------------
  alpha Z        PSCENC =       234.73852054
  Ewald energy   TEWEN  =     60764.78451063
  -Hartree energ DENC   =    -72545.43003572
  -exchange      EXHF   =         0.00000000
  -V(xc)+E(xc)   XCENC  =     -2094.42634201
  PAW double counting   =      8151.03949851    -5504.84582010
  entropy T*S    EENTRO =        -0.00000000
  eigenvalues    EBANDS =     -1282.42131596
  atomic energy  EATOM  =     11953.08265402
  Solvation  Ediel_sol  =         0.00000000
  ---------------------------------------------------
  free energy    TOTEN  =      -323.47833008 eV

  energy without entropy =     -323.47833008  energy(sigma->0) =     -323.47833008


--------------------------------------------------------------------------------------------------------




--------------------------------------- Iteration      1(  19)  ---------------------------------------


    POTLOK:  cpu time    0.2941: real time    0.2954
    SETDIJ:  cpu time    0.0117: real time    0.0117
    EDDIAG:  cpu time    2.4603: real time    2.4643
  RMM-DIIS:  cpu time   46.7053: real time   46.7717
    ORTHCH:  cpu time    0.2127: real time    0.2129
       DOS:  cpu time    0.0004: real time    0.0004
    CHARGE:  cpu time    1.1291: real time    1.1301
    MIXING:  cpu time    0.0086: real time    0.0086
    --------------------------------------------
      LOOP:  cpu time   50.8222: real time   50.8952

 eigenvalue-minimisations  :  2312
 total energy-change (2. order) :-0.6949524E-03  (-0.1733756E-04)
 number of electron     324.0000016 magnetization 
 augmentation part      -21.2364876 magnetization 

 Broyden mixing:
  rms(total) = 0.11871E-02    rms(broyden)= 0.11871E-02
  rms(prec ) = 0.14160E-02
  weight for this iteration     100.00

 eigenvalues of (default mixing * dielectric matrix)
  average eigenvalue GAMMA=   1.4560
  6.0299  3.0886  2.3339  1.5869  1.5869  1.2190  0.9982  0.7714  0.7714  0.5624
  0.3820  0.3722  0.3428  0.3388

 Free energy of the ion-electron system (eV)
  ---------------------------------------------------
  alpha Z        PSCENC =       234.73852054
  Ewald energy   TEWEN  =     60764.78451063
  -Hartree energ DENC   =    -72546.77132277
  -exchange      EXHF   =         0.00000000
  -V(xc)+E(xc)   XCENC  =     -2094.42318612
  PAW double counting   =      8150.80069196    -5504.60911502
  entropy T*S    EENTRO =        -0.00000000
  eigenvalues    EBANDS =     -1281.08177828
  atomic energy  EATOM  =     11953.08265402
  Solvation  Ediel_sol  =         0.00000000
  ---------------------------------------------------
  free energy    TOTEN  =      -323.47902504 eV

  energy without entropy =     -323.47902504  energy(sigma->0) =     -323.47902504


--------------------------------------------------------------------------------------------------------




--------------------------------------- Iteration      1(  20)  ---------------------------------------


    POTLOK:  cpu time    0.2947: real time    0.2950
    SETDIJ:  cpu time    0.0115: real time    0.0115
    EDDIAG:  cpu time    2.4590: real time    2.4621
  RMM-DIIS:  cpu time   44.1738: real time   44.2282
    ORTHCH:  cpu time    0.2139: real time    0.2141
       DOS:  cpu time    0.0004: real time    0.0004
    CHARGE:  cpu time    1.1304: real time    1.1315
    MIXING:  cpu time    0.0089: real time    0.0089
    --------------------------------------------
      LOOP:  cpu time   48.2926: real time   48.3518

 eigenvalue-minimisations  :  2217
 total energy-change (2. order) :-0.4959838E-03  (-0.1189711E-04)
 number of electron     324.0000016 magnetization 
 augmentation part      -21.2334333 magnetization 

 Broyden mixing:
  rms(total) = 0.10499E-02    rms(broyden)= 0.10499E-02
  rms(prec ) = 0.12238E-02
  weight for this iteration     100.00

 eigenvalues of (default mixing * dielectric matrix)
  average eigenvalue GAMMA=   1.4670
  6.5206  3.1647  2.3629  1.8768  1.3974  1.3974  1.0140  0.7799  0.7799  0.7033
  0.5695  0.3826  0.3728  0.3429  0.3404

 Free energy of the ion-electron system (eV)
  ---------------------------------------------------
  alpha Z        PSCENC =       234.73852054
  Ewald energy   TEWEN  =     60764.78451063
  -Hartree energ DENC   =    -72547.26462119
  -exchange      EXHF   =         0.00000000
  -V(xc)+E(xc)   XCENC  =     -2094.42427751
  PAW double counting   =      8151.18233323    -5504.99080975
  entropy T*S    EENTRO =        -0.00000000
  eigenvalues    EBANDS =     -1280.58783099
  atomic energy  EATOM  =     11953.08265402
  Solvation  Ediel_sol  =         0.00000000
  ---------------------------------------------------
  free energy    TOTEN  =      -323.47952102 eV

  energy without entropy =     -323.47952102  energy(sigma->0) =     -323.47952102


--------------------------------------------------------------------------------------------------------




--------------------------------------- Iteration      1(  21)  ---------------------------------------


    POTLOK:  cpu time    0.2951: real time    0.2954
    SETDIJ:  cpu time    0.0116: real time    0.0116
    EDDIAG:  cpu time    2.4547: real time    2.4581
  RMM-DIIS:  cpu time   50.6984: real time   50.7724
    ORTHCH:  cpu time    0.2114: real time    0.2116
       DOS:  cpu time    0.0004: real time    0.0004
    CHARGE:  cpu time    1.1311: real time    1.1324
    MIXING:  cpu time    0.0092: real time    0.0091
    --------------------------------------------
      LOOP:  cpu time   54.8119: real time   54.8911

 eigenvalue-minimisations  :  2499
 total energy-change (2. order) :-0.1749744E-03  (-0.3711731E-05)
 number of electron     324.0000016 magnetization 
 augmentation part      -21.2333450 magnetization 

 Broyden mixing:
  rms(total) = 0.10212E-02    rms(broyden)= 0.10212E-02
  rms(prec ) = 0.12003E-02
  weight for this iteration     100.00

 eigenvalues of (default mixing * dielectric matrix)
  average eigenvalue GAMMA=   1.5063
  7.1300  3.2992  2.5444  2.0958  1.5370  1.5370  1.0996  0.9600  0.7697  0.7697
  0.5645  0.3821  0.3742  0.3579  0.3426  0.3371

 Free energy of the ion-electron system (eV)
  ---------------------------------------------------
  alpha Z        PSCENC =       234.73852054
  Ewald energy   TEWEN  =     60764.78451063
  -Hartree energ DENC   =    -72547.45513968
  -exchange      EXHF   =         0.00000000
  -V(xc)+E(xc)   XCENC  =     -2094.42451081
  PAW double counting   =      8151.39013674    -5505.19862269
  entropy T*S    EENTRO =        -0.00000000
  eigenvalues    EBANDS =     -1280.39724475
  atomic energy  EATOM  =     11953.08265402
  Solvation  Ediel_sol  =         0.00000000
  ---------------------------------------------------
  free energy    TOTEN  =      -323.47969599 eV

  energy without entropy =     -323.47969599  energy(sigma->0) =     -323.47969599


--------------------------------------------------------------------------------------------------------




--------------------------------------- Iteration      1(  22)  ---------------------------------------


    POTLOK:  cpu time    0.2957: real time    0.2959
    SETDIJ:  cpu time    0.0115: real time    0.0115
    EDDIAG:  cpu time    2.4544: real time    2.4578
  RMM-DIIS:  cpu time   40.7401: real time   40.7909
    ORTHCH:  cpu time    0.2124: real time    0.2126
       DOS:  cpu time    0.0005: real time    0.0005
    CHARGE:  cpu time    1.1324: real time    1.1334
    MIXING:  cpu time    0.0089: real time    0.0089
    --------------------------------------------
      LOOP:  cpu time   44.8557: real time   44.9114

 eigenvalue-minimisations  :  1974
 total energy-change (2. order) :-0.1563428E-03  (-0.1282994E-05)
 number of electron     324.0000016 magnetization 
 augmentation part      -21.2355004 magnetization 

 Broyden mixing:
  rms(total) = 0.39283E-03    rms(broyden)= 0.39283E-03
  rms(prec ) = 0.47520E-03
  weight for this iteration     100.00

 eigenvalues of (default mixing * dielectric matrix)
  average eigenvalue GAMMA=   1.5421
  7.3042  3.5353  2.7137  2.3008  1.6310  1.4383  1.4383  0.9792  0.9792  0.7700
  0.7700  0.5658  0.3828  0.3735  0.3426  0.3574  0.3330

[...]
 -0.000  -0.000   0.001  -0.000   0.000   0.011   0.000  -0.000
  0.000  -0.000  -0.000   0.001   0.000   0.000   0.011  -0.000
 -0.000   0.000   0.000   0.000   0.001  -0.000  -0.000   0.011
 -0.000  -0.000  -0.000  -0.000  -0.000   0.000   0.000  -0.000
 -0.000   0.000   0.012   0.001  -0.000   0.000  -0.000   0.000
 -0.009  -0.000  -0.000   0.016   0.000   0.000   0.000  -0.000
  0.000  -0.000  -0.000  -0.000   0.012   0.000   0.000   0.000
 -0.000   0.000  -0.001   0.000  -0.000  -0.000  -0.000   0.000
 total augmentation occupancy for first ion, spin component:           1
  1.940   0.159   0.002  -0.201   0.001  -0.003  -0.023   0.002  -0.000   0.001   0.005  -0.000   0.001
  0.159   1.202   0.002   0.892  -0.011  -0.008  -0.337   0.011  -0.002   0.000  -0.018  -0.002   0.000
  0.002   0.002   1.320   0.007  -0.003  -0.437  -0.003   0.002  -0.002   0.107   0.001  -0.001   0.042
 -0.201   0.892   0.007   1.476  -0.003  -0.003  -0.501   0.004  -0.001   0.002   0.034  -0.002   0.003
  0.001  -0.011  -0.003  -0.003   1.328   0.002   0.004  -0.449   0.042  -0.001   0.000   0.111  -0.001
 -0.003  -0.008  -0.437  -0.003   0.002   0.255   0.000  -0.003   0.001  -0.033   0.001  -0.000  -0.006
 -0.023  -0.337  -0.003  -0.501   0.004   0.000   0.252  -0.001   0.000  -0.001  -0.039   0.001  -0.000
  0.002   0.011   0.002   0.004  -0.449  -0.003  -0.001   0.258  -0.008   0.000  -0.001  -0.034   0.001
 -0.000  -0.002  -0.002  -0.001   0.042   0.001   0.000  -0.008   0.017  -0.000   0.000  -0.000   0.000
  0.001   0.000   0.107   0.002  -0.001  -0.033  -0.001   0.000  -0.000   0.015   0.000  -0.000  -0.000
  0.005  -0.018   0.001   0.034   0.000   0.001  -0.039  -0.001   0.000   0.000   0.017  -0.000  -0.000
 -0.000  -0.002  -0.001  -0.002   0.111  -0.000   0.001  -0.034  -0.000  -0.000  -0.000   0.016  -0.000
  0.001   0.000   0.042   0.003  -0.001  -0.006  -0.000   0.001   0.000  -0.000  -0.000  -0.000   0.017


------------------------ aborting loop because EDIFF is reached ----------------------------------------


    CHARGE:  cpu time    1.1473: real time    1.1482
    FORLOC:  cpu time    0.0784: real time    0.0785
    FORNL :  cpu time   13.7588: real time   13.7702
    STRESS:  cpu time   72.1520: real time   72.2322
    FORCOR:  cpu time    0.3297: real time    0.3300
    FORHAR:  cpu time    0.1347: real time    0.1348
    MIXING:  cpu time    0.0074: real time    0.0074
    OFIELD:  cpu time    0.0000: real time    0.0000

  Number of pair interactions contributing to vdW energy:  258295
  Edisp (eV):  -18.87774
    FORVDW:  cpu time    0.0288: real time    0.0288

  FORCE on cell =-STRESS in cart. coord.  units (eV):
  Direction    XX          YY          ZZ          XY          YZ          ZX
  --------------------------------------------------------------------------------------
  Alpha Z   234.73852   234.73852   234.73852
  Ewald   69876.57090 69885.33174-78874.88639     4.14924    38.51618    -3.83935
  Hartree 72259.09670 72264.29427-71857.28047     1.65124     2.45561    -0.16121
  E(xc)   -1344.03228 -1343.78073 -1361.33210     0.11256    -1.94552     0.20354
  Local  ************************145692.87012    -5.59337   -41.72714     4.05794
  n-local  3527.49340  3524.73116  3697.83337     0.37295    14.20499    -1.46573
  augment  -761.35526  -760.72140  -798.55917    -0.12330    -2.52605     0.25686
  Kinetic  3256.06786  3259.69980  3237.43677    -1.39583     5.63892    -0.58310
  Fock        0.00000     0.00000     0.00000     0.00000     0.00000     0.00000
  vdW       -12.18108   -11.83204    -8.52001     0.14405    -1.34090     0.12181
  -------------------------------------------------------------------------------------
  Total     -38.03017   -35.22785   -37.69936    -0.68245    13.27609    -1.40924
  in kB     -19.92970   -18.46114   -19.75634    -0.35764     6.95733    -0.73851
  external pressure =      -19.38 kB  Pullay stress =        0.00 kB

  kinetic pressure (ideal gas correction) =      0.24 kB
  total pressure  =    -19.15 kB
  Total+kin.   -19.788     -18.153     -19.496      -0.320       6.889      -0.742

 VOLUME and BASIS-vectors are now :
 -----------------------------------------------------------------------------
  energy-cutoff  :      550.00
  volume of cell :     3057.30
      direct lattice vectors                 reciprocal lattice vectors
    10.792302069  0.000000000  0.000000000     0.092658637  0.053286215  0.001142124
    -5.360602751  9.321475450  0.000000000     0.000000000  0.107279154  0.002852643
     0.090130518 -0.808111807 30.390606280     0.000000000  0.000000000  0.032904905

  length of vectors
    10.792302069 10.752951521 30.401482172     0.106894098  0.107317074  0.032904905


 FORCES acting on ions
    electron-ion (+dipol)            ewald-force                    non-local-force                 convergence-correction
 -----------------------------------------------------------------------------------------------
   -.308E+01 0.180E+01 0.806E+03   0.309E+01 -.178E+01 -.811E+03   0.965E-01 -.236E+00 0.612E+01   -.332E-03 0.515E-03 0.199E-02
   -.201E-01 -.323E+00 0.806E+03   -.284E-01 0.368E+00 -.811E+03   0.525E-01 -.141E+00 0.583E+01   0.216E-02 -.192E-02 0.164E-03
   0.234E+01 -.130E+01 0.808E+03   -.233E+01 0.138E+01 -.813E+03   -.199E+00 -.296E+00 0.605E+01   -.783E-03 0.165E-02 -.820E-03
   0.247E+01 -.232E-01 0.805E+03   -.249E+01 0.140E+00 -.811E+03   -.137E+00 -.305E+00 0.614E+01   -.499E-03 0.882E-03 0.734E-03
   -.378E+01 0.416E+01 0.808E+03   0.376E+01 -.413E+01 -.813E+03   0.405E+00 -.408E+00 0.584E+01   -.620E-03 -.445E-03 0.148E-02
   0.421E-01 -.107E+01 0.807E+03   -.705E-01 0.117E+01 -.813E+03   0.120E+00 -.308E+00 0.578E+01   -.418E-03 -.142E-02 -.881E-03
   0.703E+00 0.253E+01 0.808E+03   -.691E+00 -.246E+01 -.813E+03   -.723E-01 -.468E+00 0.594E+01   0.956E-03 0.172E-02 -.519E-04
   0.194E+01 -.183E+00 0.806E+03   -.196E+01 0.270E+00 -.811E+03   -.465E-01 -.257E+00 0.581E+01   -.168E-02 -.975E-03 -.242E-03
   -.271E+01 -.203E+00 0.808E+03   0.272E+01 0.249E+00 -.814E+03   0.180E+00 -.154E+00 0.587E+01   0.110E-02 -.526E-03 -.207E-03
   -.602E+00 0.237E+01 -.108E+03   0.668E+00 -.230E+01 0.103E+03   -.382E-01 -.530E+00 0.569E+01   -.154E-02 -.894E-04 -.625E-03
   -.907E+00 -.177E+01 -.110E+03   0.827E+00 0.188E+01 0.104E+03   0.294E+00 -.216E+00 0.572E+01   -.436E-03 -.284E-03 0.481E-03
   0.217E+01 0.413E+01 -.111E+03   -.217E+01 -.409E+01 0.105E+03   -.188E+00 -.651E+00 0.582E+01   0.592E-03 -.396E-03 0.341E-03
   -.135E+01 0.597E+00 -.109E+03   0.134E+01 -.536E+00 0.104E+03   0.191E-01 -.520E+00 0.606E+01   0.136E-02 -.430E-03 -.332E-03
   -.164E+01 0.134E+01 -.111E+03   0.162E+01 -.125E+01 0.106E+03   0.154E+00 -.480E+00 0.592E+01   -.864E-03 0.708E-03 -.742E-03
   -.990E+00 0.446E+00 -.108E+03   0.993E+00 -.376E+00 0.103E+03   0.175E-01 -.312E+00 0.590E+01   0.191E-03 0.155E-03 0.643E-03
   0.211E+01 0.283E+01 -.108E+03   -.217E+01 -.284E+01 0.103E+03   -.152E+00 -.330E+00 0.607E+01   0.297E-03 0.178E-03 0.888E-03
   0.662E-01 -.166E+01 -.109E+03   -.886E-01 0.174E+01 0.104E+03   0.128E+00 -.237E+00 0.614E+01   0.121E-02 -.660E-03 0.150E-03
   -.312E+00 0.171E+01 -.110E+03   0.356E+00 -.168E+01 0.105E+03   -.851E-01 -.252E+00 0.578E+01   -.647E-03 0.748E-03 0.373E-03
   -.148E+01 -.339E+01 0.112E+03   0.148E+01 0.341E+01 -.106E+03   -.202E-01 0.356E+00 -.590E+01   -.521E-03 0.344E-03 -.202E-02
   -.290E+01 -.423E+00 0.108E+03   0.292E+01 0.425E+00 -.103E+03   0.154E+00 0.125E+00 -.623E+01   0.172E-02 -.143E-02 0.197E-03
   0.830E+00 -.124E+01 0.109E+03   -.848E+00 0.118E+01 -.104E+03   -.158E-01 0.316E+00 -.593E+01   -.963E-03 0.156E-02 0.982E-03
   0.126E+01 -.330E+01 0.112E+03   -.129E+01 0.330E+01 -.107E+03   -.149E-01 0.515E+00 -.589E+01   -.466E-03 0.868E-03 -.724E-03
   0.146E+01 -.224E+00 0.108E+03   -.152E+01 0.207E+00 -.103E+03   -.808E-01 0.297E+00 -.582E+01   -.326E-03 -.344E-03 -.166E-02
   -.124E+01 0.157E+01 0.111E+03   0.126E+01 -.165E+01 -.105E+03   0.778E-01 0.125E+00 -.584E+01   -.306E-03 -.117E-02 0.928E-03
   0.469E+00 -.169E+01 0.109E+03   -.437E+00 0.168E+01 -.104E+03   -.159E+00 0.344E+00 -.598E+01   0.104E-02 0.149E-02 0.577E-03
   0.479E+00 -.266E+01 0.110E+03   -.470E+00 0.258E+01 -.104E+03   0.132E-01 0.626E+00 -.574E+01   -.148E-02 -.104E-02 0.229E-03
   0.740E+00 0.543E+00 0.109E+03   -.734E+00 -.608E+00 -.103E+03   -.190E+00 0.255E+00 -.571E+01   0.120E-02 0.383E-04 0.191E-03
   0.286E+01 -.217E+00 -.808E+03   -.284E+01 0.185E+00 0.813E+03   -.262E+00 0.128E+00 -.595E+01   -.112E-02 -.328E-03 0.194E-03
   0.231E+00 -.165E+01 -.808E+03   -.266E+00 0.155E+01 0.814E+03   0.621E-01 0.506E+00 -.588E+01   -.235E-03 -.157E-03 -.889E-03
   0.291E+01 0.347E+01 -.808E+03   -.291E+01 -.356E+01 0.813E+03   -.204E+00 -.640E-01 -.593E+01   0.309E-03 -.924E-05 -.270E-03
   -.134E+01 -.344E+01 -.807E+03   0.136E+01 0.337E+01 0.812E+03   -.105E-02 0.374E+00 -.584E+01   0.121E-02 -.660E-03 0.320E-03
   -.515E+00 -.174E+00 -.807E+03   0.545E+00 0.165E+00 0.813E+03   -.100E+00 0.877E-01 -.619E+01   -.716E-03 0.775E-03 0.726E-03
   0.163E+00 0.665E+00 -.808E+03   -.171E+00 -.792E+00 0.813E+03   -.639E-01 0.347E+00 -.589E+01   0.312E-03 0.379E-03 -.639E-03
   -.182E+01 -.350E+01 -.806E+03   0.181E+01 0.341E+01 0.812E+03   0.979E-01 0.647E+00 -.585E+01   -.114E-03 -.373E-03 -.135E-02
   -.697E-01 -.313E+01 -.807E+03   0.977E-01 0.307E+01 0.812E+03   -.510E-01 0.402E+00 -.575E+01   0.112E-02 -.588E-03 -.396E-03
   -.232E+01 0.732E+00 -.805E+03   0.239E+01 -.797E+00 0.811E+03   0.850E-03 0.177E+00 -.583E+01   -.698E-03 0.115E-02 -.502E-03
   -.290E+01 -.503E+00 0.462E+03   0.293E+01 0.463E+00 -.462E+03   0.214E+00 -.132E-01 -.217E+00   -.279E-03 0.161E-02 -.553E-04
   -.235E+01 -.434E+00 0.456E+03   0.235E+01 0.458E+00 -.456E+03   0.156E+00 0.391E-01 0.183E+00   0.149E-02 -.231E-03 -.486E-03
   0.612E-01 -.981E+00 0.460E+03   -.329E-01 0.989E+00 -.460E+03   -.468E-01 0.562E-01 0.242E+00   0.386E-04 -.756E-03 -.213E-03
   0.324E+01 -.193E+01 0.458E+03   -.330E+01 0.188E+01 -.459E+03   -.340E-01 0.265E+00 -.161E+00   -.400E-03 0.110E-02 -.360E-03
   -.762E-01 0.175E+01 0.458E+03   0.691E-01 -.176E+01 -.458E+03   -.289E-01 -.120E+00 -.262E+00   -.107E-02 0.570E-03 -.296E-03
   0.230E+01 0.233E+01 0.458E+03   -.238E+01 -.232E+01 -.458E+03   -.300E+00 0.146E-01 0.517E+00   0.794E-03 -.184E-02 -.431E-03
   0.313E+00 -.169E+01 0.461E+03   -.291E+00 0.173E+01 -.461E+03   -.358E-01 0.117E+00 0.942E-01   0.101E-02 0.411E-04 -.460E-04
   0.200E+01 0.250E+01 0.457E+03   -.197E+01 -.259E+01 -.457E+03   0.439E-01 -.320E+00 -.457E-01   -.495E-03 0.492E-03 -.278E-03
   -.739E-01 0.191E+01 0.457E+03   0.344E-01 -.194E+01 -.457E+03   0.788E-02 -.171E+00 -.129E+00   -.796E-03 -.988E-03 -.428E-03
   -.221E+01 -.411E+01 -.459E+03   0.226E+01 0.418E+01 0.459E+03   0.222E+00 0.567E+00 0.182E-01   -.236E-03 -.185E-03 0.284E-03
   -.381E-01 0.791E+00 -.458E+03   -.188E-01 -.771E+00 0.458E+03   -.155E+00 -.199E+00 0.179E+00   -.994E-03 0.708E-03 0.218E-03
   -.212E+01 -.145E+00 -.459E+03   0.220E+01 0.188E+00 0.459E+03   0.293E+00 0.166E+00 -.197E+00   0.849E-03 -.671E-03 0.240E-03
   0.327E+00 0.411E+00 -.461E+03   -.301E+00 -.465E+00 0.461E+03   -.558E-01 -.125E+00 -.433E+00   0.133E-02 -.679E-03 0.223E-03
   -.973E+00 0.170E+01 -.460E+03   0.990E+00 -.173E+01 0.460E+03   0.656E-01 -.452E-01 -.130E+00   0.193E-03 0.894E-03 0.173E-03
   0.376E+00 -.175E+00 -.454E+03   -.428E+00 0.148E+00 0.454E+03   0.974E-01 -.612E-01 -.126E+00   -.297E-03 0.640E-03 0.504E-03
   0.151E+01 0.204E+01 -.458E+03   -.155E+01 -.205E+01 0.458E+03   -.139E-01 -.314E+00 0.322E+00   -.114E-02 -.226E-04 0.230E-04
   0.346E+01 -.276E+01 -.462E+03   -.351E+01 0.282E+01 0.463E+03   -.191E+00 0.274E+00 -.231E+00   0.689E-03 -.622E-03 -.386E-04
   0.876E+00 0.216E+01 -.456E+03   -.829E+00 -.210E+01 0.456E+03   0.785E-01 0.222E+00 0.194E+00   -.443E-03 0.101E-03 0.469E-03
 -----------------------------------------------------------------------------------------------
   -.113E+00 0.178E+00 -.154E+00   0.330E-13 0.382E-13 0.114E-12   0.109E+00 -.181E+00 0.151E+00   0.254E-03 0.557E-04 -.127E-02
 
 
 POSITION                                       TOTAL-FORCE (eV/Angst)
 -----------------------------------------------------------------------------------
      0.02631      1.80487      9.74368         0.109537     -0.206157      0.737197
     -1.74286      4.89341      9.76090         0.007194     -0.092904      0.431849
     -3.51807      8.01692      9.73376        -0.188165     -0.211584      0.693551
      3.65884      1.79664      9.74736        -0.153451     -0.177115      0.746808
      1.82129      4.92124      9.74480         0.375346     -0.360230      0.496238
      0.05661      8.01965      9.76213         0.089680     -0.205529      0.356442
      7.23654      1.83952      9.74167        -0.056970     -0.381618      0.600119
      5.44559      4.91605      9.77269        -0.072288     -0.160134      0.387640
      3.63256      8.00561      9.74822         0.183073     -0.104623      0.509435
     -0.24872      0.07348     16.98324         0.026540     -0.473585      0.205904
      8.74154      3.16899     16.98838         0.208342     -0.125573      0.287703
     -3.79024      6.31004     16.99082        -0.179809     -0.615356      0.360954
      3.36328      0.09021     16.96737         0.018196     -0.465084      0.640657
      1.54960      3.16852     16.98884         0.128627     -0.400082      0.431447
     -0.23028      6.28428     16.97090         0.022537     -0.247203      0.456812
      6.97614      0.07747     16.95317        -0.200154     -0.354729      0.650970
      5.15977      3.15901     16.96135         0.108619     -0.163923      0.725940
      3.37635      6.25706     16.99490        -0.038000     -0.237590      0.236372
      0.03980      1.71478     13.40770        -0.022914      0.392008     -0.440922
     -1.75967      4.85254     13.44705         0.165754      0.142791     -0.844672
     -3.54196      7.92454     13.42297        -0.038842      0.266066     -0.554294
      3.64691      1.67917     13.40502        -0.038918      0.526890     -0.399347
      1.87016      4.83189     13.41608        -0.135106      0.289750     -0.412209
      0.06880      7.95029     13.39891         0.093831      0.054230     -0.386912
      7.25264      1.71618     13.42994        -0.121974      0.345156     -0.602117
      5.44605      4.80677     13.40221         0.020651      0.551590     -0.296270
      3.67750      7.95329     13.40715        -0.180321      0.201177     -0.307890
     -0.22575     -0.02282     20.63991        -0.239783      0.088012     -0.577492
     -2.01213      3.05988     20.63935         0.027320      0.388914     -0.500892
     -3.79582      6.23143     20.63921        -0.197926     -0.149506     -0.508523
      3.35782     -0.03299     20.63375         0.020901      0.294366     -0.411466
      1.57547      3.08310     20.65579        -0.067849      0.072887     -0.767326
     -0.20889      6.19102     20.64269        -0.070555      0.210097     -0.541389
      6.95662     -0.05983     20.62749         0.090995      0.539316     -0.462727
      5.17627      3.07510     20.62765        -0.017295      0.331228     -0.299808
      3.36716      6.20453     20.61496         0.069942      0.107246     -0.384006
      5.44753      9.00721     11.58722         0.255855     -0.045822     -0.347573
      9.02248      2.80216     11.58187         0.171036      0.062143      0.236600
     -3.53767      5.90445     11.57105        -0.022058      0.062207      0.233638
     -1.73276      8.97998     11.59227        -0.101782      0.232234     -0.232830
      1.84778      2.80355     11.59700        -0.037225     -0.136947     -0.343901
      0.07813      5.90329     11.55567        -0.384351      0.019761      0.634758
      7.22779     -0.30119     11.57299        -0.022216      0.158553      0.078371
      5.44284      2.81084     11.58978         0.061927     -0.413653     -0.105144
      3.64415      5.92119     11.59307        -0.023591     -0.205231     -0.184925
      1.54223      1.00732     18.80856         0.276389      0.654696      0.069757
     -0.22007      4.17463     18.79832        -0.208625     -0.187488      0.222313
     -2.02044      7.26498     18.81924         0.378454      0.199251     -0.216993
      5.16705      1.05642     18.82648        -0.036375     -0.183920     -0.478000
      3.36642      4.14907     18.81525         0.079340     -0.077181     -0.111781
      1.56999      7.27073     18.80064         0.052692     -0.086670     -0.210384
      8.76389      1.06925     18.78169        -0.055883     -0.336063      0.428143
      6.98535      4.14433     18.82668        -0.251021      0.339354     -0.182038
      5.17262      7.25640     18.79149         0.116350      0.272284      0.247738
 -----------------------------------------------------------------------------------
    total drift:                               -0.004317     -0.003293     -0.004480


--------------------------------------------------------------------------------------------------------



  FREE ENERGIE OF THE ION-ELECTRON SYSTEM (eV)
  ---------------------------------------------------
  free  energy   TOTEN  =      -342.34970457 eV

  energy  without entropy=     -342.34970457  energy(sigma->0) =     -342.34970457
 
 d Force = 0.1029524E-02[-0.111E-02, 0.317E-02]  d Energy = 0.1112579E-02-0.831E-04
 d Force =-0.2275846E+02[-0.228E+02,-0.227E+02]  d Ewald  =-0.2275846E+02-0.875E-07


--------------------------------------------------------------------------------------------------------


    POTLOK:  cpu time    0.3103: real time    0.3106


--------------------------------------------------------------------------------------------------------


           RANDOM_SEED =         241119115              324                0
   IONSTEP:  cpu time    0.0001: real time    0.0001

  ENERGY OF THE ELECTRON-ION-THERMOSTAT SYSTEM (eV)
  ---------------------------------------------------
% ion-electron   TOTEN  =      -342.349705  see above
  kinetic energy EKIN   =         0.678716
  kin. lattice  EKIN_LAT=         0.000000  (temperature   99.07 K)
  nose potential ES     =        -0.006737
  nose kinetic   EPS    =         0.000090
  ---------------------------------------------------
  total energy   ETOTAL =      -341.677635 eV

  maximum distance moved by ions :      0.64E-03


 mean value of Nose-termostat <S>:     0.994 mean value of <T> :    99.071
 mean temperature <T/S>/<1/S>  :    99.071

    WAVPRE:  cpu time    0.1059: real time    0.1093
    FEWALD:  cpu time    0.0009: real time    0.0009
    ORTHCH:  cpu time    8.1161: real time    8.1255
    POTLOK:  cpu time    0.3089: real time    0.3092
    EDDIAG:  cpu time    2.4625: real time    2.4652
     LOOP+:  cpu time  476.5672: real time  477.1531
    4ORBIT:  cpu time    0.0000: real time    0.0000

 total amount of memory used by VASP MPI-rank0   383984. kBytes
=======================================================================

   base      :      30000. kBytes
   nonl-proj :     206530. kBytes
   fftplans  :      19943. kBytes
   grid      :      90496. kBytes
   one-center:        839. kBytes
   wavefun   :      36176. kBytes
 
  
  
 General timing and accounting informations for this job:
 ========================================================
  
                  Total CPU time used (sec):     5847.647
                            User time (sec):     5834.816
                          System time (sec):       12.831
                         Elapsed time (sec):     5855.288
  
                   Maximum memory used (kb):      850824.
                   Average memory used (kb):           0.
  
                          Minor page faults:       440469
                          Major page faults:            0
                 Voluntary context switches:          605
