0.000000000000000000e+00 2.032270000000000021e+00 9.386649999999999494e+00 -1.760000000000000009e+00 5.080680000000000085e+00 9.386649999999999494e+00 -3.520000000000000018e+00 8.129089999999999705e+00 9.386649999999999494e+00 3.520000000000000018e+00 2.032270000000000021e+00 9.386649999999999494e+00 1.760000000000000009e+00 5.080680000000000085e+00 9.386649999999999494e+00 0.000000000000000000e+00 8.129089999999999705e+00 9.386649999999999494e+00 7.040000000000000036e+00 2.032270000000000021e+00 9.386649999999999494e+00 5.280000000000000249e+00 5.080680000000000085e+00 9.386649999999999494e+00 3.520000000000000018e+00 8.129089999999999705e+00 9.386649999999999494e+00 0.000000000000000000e+00 1.422590000000000021e+00 1.698610000000000042e+01 -1.760000000000000009e+00 4.471000000000000085e+00 1.698610000000000042e+01 -3.520000000000000018e+00 7.519409999999999705e+00 1.698610000000000042e+01 3.520000000000000018e+00 1.422590000000000021e+00 1.698610000000000042e+01 1.760000000000000009e+00 4.471000000000000085e+00 1.698610000000000042e+01 0.000000000000000000e+00 7.519409999999999705e+00 1.698610000000000042e+01 7.040000000000000036e+00 1.422590000000000021e+00 1.698610000000000042e+01 5.280000000000000249e+00 4.471000000000000085e+00 1.698610000000000042e+01 3.520000000000000018e+00 7.519409999999999705e+00 1.698610000000000042e+01 0.000000000000000000e+00 2.032270000000000021e+00 1.301393000000000022e+01 -1.760000000000000009e+00 5.080680000000000085e+00 1.301393000000000022e+01 -3.520000000000000018e+00 8.129089999999999705e+00 1.301393000000000022e+01 3.520000000000000018e+00 2.032270000000000021e+00 1.301393000000000022e+01 1.760000000000000009e+00 5.080680000000000085e+00 1.301393000000000022e+01 0.000000000000000000e+00 8.129089999999999705e+00 1.301393000000000022e+01 7.040000000000000036e+00 2.032270000000000021e+00 1.301393000000000022e+01 5.280000000000000249e+00 5.080680000000000085e+00 1.301393000000000022e+01 3.520000000000000018e+00 8.129089999999999705e+00 1.301393000000000022e+01 0.000000000000000000e+00 1.422590000000000021e+00 2.061337999999999937e+01 -1.760000000000000009e+00 4.471000000000000085e+00 2.061337999999999937e+01 -3.520000000000000018e+00 7.519409999999999705e+00 2.061337999999999937e+01 3.520000000000000018e+00 1.422590000000000021e+00 2.061337999999999937e+01 1.760000000000000009e+00 4.471000000000000085e+00 2.061337999999999937e+01 0.000000000000000000e+00 7.519409999999999705e+00 2.061337999999999937e+01 7.040000000000000036e+00 1.422590000000000021e+00 2.061337999999999937e+01 5.280000000000000249e+00 4.471000000000000085e+00 2.061337999999999937e+01 3.520000000000000018e+00 7.519409999999999705e+00 2.061337999999999937e+01 0.000000000000000000e+00 0.000000000000000000e+00 1.119975999999999949e+01 -1.760000000000000009e+00 3.048410000000000064e+00 1.119975999999999949e+01 -3.520000000000000018e+00 6.096820000000000128e+00 1.119975999999999949e+01 3.520000000000000018e+00 0.000000000000000000e+00 1.119975999999999949e+01 1.760000000000000009e+00 3.048410000000000064e+00 1.119975999999999949e+01 0.000000000000000000e+00 6.096820000000000128e+00 1.119975999999999949e+01 7.040000000000000036e+00 0.000000000000000000e+00 1.119975999999999949e+01 5.280000000000000249e+00 3.048410000000000064e+00 1.119975999999999949e+01 3.520000000000000018e+00 6.096820000000000128e+00 1.119975999999999949e+01 1.760000000000000009e+00 2.438730000000000064e+00 1.880021999999999949e+01 0.000000000000000000e+00 5.487140000000000128e+00 1.880021999999999949e+01 -1.760000000000000009e+00 8.535550000000000637e+00 1.880021999999999949e+01 5.280000000000000249e+00 2.438730000000000064e+00 1.880021999999999949e+01 3.520000000000000018e+00 5.487140000000000128e+00 1.880021999999999949e+01 1.760000000000000009e+00 8.535550000000000637e+00 1.880021999999999949e+01 8.800000000000000711e+00 2.438730000000000064e+00 1.880021999999999949e+01 7.040000000000000036e+00 5.487140000000000128e+00 1.880021999999999949e+01 5.280000000000000249e+00 8.535550000000000637e+00 1.880021999999999949e+01
3.380000000000000192e-03 2.030580000000000052e+00 9.386620000000000630e+00 -1.756920000000000037e+00 5.082779999999999632e+00 9.389670000000000627e+00 -3.519760000000000222e+00 8.128729999999999123e+00 9.385870000000000601e+00 3.522110000000000074e+00 2.031480000000000175e+00 9.385590000000000543e+00 1.761660000000000004e+00 5.079699999999999882e+00 9.389250000000000540e+00 -2.060000000000000199e-03 8.126820000000000377e+00 9.388389999999999347e+00 7.037609999999999921e+00 2.031620000000000203e+00 9.386290000000000688e+00 5.276589999999999669e+00 5.078420000000000378e+00 9.387069999999999581e+00 3.518720000000000070e+00 8.127589999999999648e+00 9.384740000000000748e+00 2.000000000000000096e-04 1.422649999999999970e+00 1.698445999999999856e+01 -1.760389999999999899e+00 4.473130000000000273e+00 1.698435999999999879e+01 -3.519120000000000026e+00 7.521729999999999805e+00 1.698479999999999990e+01 3.520999999999999908e+00 1.423750000000000071e+00 1.698620999999999981e+01 1.759900000000000020e+00 4.473250000000000171e+00 1.698613999999999891e+01 -5.400000000000000069e-04 7.518580000000000041e+00 1.698459000000000074e+01 7.040180000000000327e+00 1.423589999999999911e+00 1.698450000000000060e+01 5.280789999999999651e+00 4.473429999999999573e+00 1.698669999999999902e+01 3.524519999999999875e+00 7.517479999999999940e+00 1.698415999999999926e+01 -1.920000000000000049e-03 2.029790000000000205e+00 1.301614000000000004e+01 -1.761179999999999968e+00 5.082530000000000214e+00 1.301449999999999996e+01 -3.519569999999999865e+00 8.129060000000000841e+00 1.301182000000000016e+01 3.521430000000000060e+00 2.032929999999999904e+00 1.301196000000000019e+01 1.760739999999999972e+00 5.082139999999999880e+00 1.301460999999999935e+01 0.000000000000000000e+00 8.128119999999999123e+00 1.301319999999999943e+01 7.042919999999999625e+00 2.031419999999999781e+00 1.301745999999999981e+01 5.280490000000000350e+00 5.082530000000000214e+00 1.301510000000000034e+01 3.517469999999999875e+00 8.130729999999999791e+00 1.301397000000000048e+01 -2.000000000000000042e-03 1.422649999999999970e+00 2.061301999999999879e+01 -1.761810000000000098e+00 4.472520000000000273e+00 2.061407000000000167e+01 -3.520700000000000163e+00 7.517240000000000144e+00 2.061355999999999966e+01 3.520509999999999806e+00 1.423519999999999897e+00 2.061553999999999931e+01 1.758650000000000047e+00 4.470810000000000173e+00 2.061138000000000048e+01 -2.639999999999999986e-03 7.522599999999999731e+00 2.061412999999999940e+01 7.041220000000000034e+00 1.420409999999999950e+00 2.061375999999999920e+01 5.278559999999999697e+00 4.467530000000000001e+00 2.061424999999999841e+01 3.519559999999999800e+00 7.519589999999999996e+00 2.061456000000000088e+01 2.160000000000000028e-03 2.949999999999999931e-03 1.120102999999999938e+01 -1.760780000000000012e+00 3.050310000000000077e+00 1.120026999999999973e+01 -3.517619999999999969e+00 6.093219999999999636e+00 1.119886999999999944e+01 -1.757260000000000044e+00 9.142760000000000886e+00 1.119904000000000011e+01 1.758520000000000083e+00 3.047610000000000152e+00 1.120245000000000068e+01 1.410000000000000012e-03 6.098849999999999660e+00 1.119976999999999911e+01 7.040569999999999773e+00 2.990000000000000036e-03 1.120060999999999929e+01 5.277759999999999785e+00 3.049739999999999895e+00 1.119969999999999999e+01 3.520020000000000149e+00 6.097610000000000419e+00 1.120016000000000034e+01 1.761379999999999946e+00 2.440580000000000194e+00 1.879758999999999958e+01 -1.020000000000000073e-03 5.486209999999999809e+00 1.879926000000000030e+01 -1.762150000000000105e+00 8.535890000000000200e+00 1.880071999999999832e+01 5.280249999999999666e+00 2.439470000000000027e+00 1.879863999999999891e+01 3.521739999999999871e+00 5.484950000000000436e+00 1.879995999999999867e+01 1.758869999999999933e+00 8.533060000000000755e+00 1.879918999999999940e+01 8.798149999999999693e+00 2.436949999999999950e+00 1.880180999999999969e+01 7.039930000000000021e+00 5.486139999999999795e+00 1.879769999999999897e+01 5.278590000000000337e+00 8.534330000000000638e+00 1.880066000000000059e+01
6.749999999999999924e-03 2.028900000000000148e+00 9.386589999999999989e+00 -1.753830000000000000e+00 5.084869999999999557e+00 9.392680000000000362e+00 -3.519519999999999982e+00 8.128370000000000317e+00 9.385099999999999554e+00 3.524210000000000065e+00 2.030679999999999819e+00 9.384529999999999816e+00 1.763309999999999933e+00 5.078710000000000058e+00 9.391840000000000188e+00 -4.109999999999999938e-03 8.124549999999999272e+00 9.390129999999999200e+00 7.035230000000000317e+00 2.030980000000000008e+00 9.385939999999999728e+00 5.273179999999999978e+00 5.076159999999999783e+00 9.387489999999999668e+00 3.517440000000000122e+00 8.126089999999999591e+00 9.382849999999999469e+00 4.099999999999999912e-04 1.422700000000000076e+00 1.698282999999999987e+01 -1.760780000000000012e+00 4.475249999999999950e+00 1.698263000000000034e+01 -3.518240000000000034e+00 7.524040000000000283e+00 1.698349999999999937e+01 3.521990000000000176e+00 1.424889999999999990e+00 1.698630999999999958e+01 1.759810000000000096e+00 4.475480000000000125e+00 1.698618000000000094e+01 -1.080000000000000014e-03 7.517739999999999867e+00 1.698308000000000106e+01 7.040350000000000108e+00 1.424569999999999892e+00 1.698290000000000077e+01 5.281579999999999941e+00 4.475839999999999819e+00 1.698729000000000156e+01 3.529030000000000111e+00 7.515539999999999665e+00 1.698222000000000165e+01 -3.840000000000000097e-03 2.027320000000000011e+00 1.301834000000000024e+01 -1.762340000000000018e+00 5.084389999999999965e+00 1.301506000000000007e+01 -3.519140000000000157e+00 8.129049999999999443e+00 1.300971000000000011e+01 3.522850000000000037e+00 2.033589999999999787e+00 1.300999999999999979e+01 1.761470000000000091e+00 5.083610000000000184e+00 1.301528000000000063e+01 1.000000000000000082e-05 8.127169999999999561e+00 1.301246000000000080e+01 7.045819999999999972e+00 2.030590000000000117e+00 1.302097999999999978e+01 5.280969999999999942e+00 5.084399999999999586e+00 1.301626000000000083e+01 3.514940000000000175e+00 8.132389999999999119e+00 1.301401000000000074e+01 -3.989999999999999623e-03 1.422700000000000076e+00 2.061264999999999858e+01 -1.763619999999999965e+00 4.474039999999999573e+00 2.061475000000000080e+01 -3.521399999999999864e+00 7.515080000000000204e+00 2.061372000000000071e+01 3.521020000000000039e+00 1.424449999999999994e+00 2.061768999999999963e+01 1.757300000000000084e+00 4.470609999999999751e+00 2.060936999999999841e+01 -5.270000000000000379e-03 7.525780000000000136e+00 2.061486000000000018e+01 7.042419999999999902e+00 1.418230000000000102e+00 2.061412999999999940e+01 5.277140000000000164e+00 4.464059999999999917e+00 2.061511000000000138e+01 3.519109999999999960e+00 7.519759999999999778e+00 2.061571999999999960e+01 4.300000000000000003e-03 5.879999999999999810e-03 1.120228999999999964e+01 -1.761540000000000106e+00 3.052200000000000024e+00 1.120077999999999996e+01 -3.515260000000000051e+00 6.089649999999999785e+00 1.119797999999999938e+01 -1.754529999999999923e+00 9.140309999999999491e+00 1.119832000000000072e+01 1.757050000000000001e+00 3.046809999999999796e+00 1.120513000000000048e+01 2.820000000000000024e-03 6.100869999999999571e+00 1.119980999999999938e+01 7.041140000000000398e+00 5.960000000000000020e-03 1.120144999999999946e+01 5.275549999999999962e+00 3.051060000000000105e+00 1.119965999999999973e+01 3.520049999999999901e+00 6.098399999999999821e+00 1.120055999999999941e+01 1.762750000000000039e+00 2.442400000000000126e+00 1.879495999999999967e+01 -2.040000000000000147e-03 5.485289999999999999e+00 1.879831000000000074e+01 -1.764299999999999979e+00 8.536239999999999384e+00 1.880122000000000071e+01 5.280499999999999972e+00 2.440199999999999925e+00 1.879705999999999833e+01 3.523470000000000102e+00 5.482770000000000366e+00 1.879970000000000141e+01 1.757759999999999989e+00 8.530580000000000496e+00 1.879814999999999969e+01 8.796319999999999695e+00 2.435189999999999966e+00 1.880338000000000065e+01 7.039850000000000385e+00 5.485149999999999970e+00 1.879519000000000162e+01 5.277190000000000047e+00 8.533120000000000260e+00 1.880110000000000170e+01
1.010999999999999920e-02 2.027229999999999865e+00 9.386570000000000746e+00 -1.750760000000000094e+00 5.086940000000000239e+00 9.395659999999999457e+00 -3.519280000000000186e+00 8.128009999999999735e+00 9.384339999999999904e+00 3.526299999999999990e+00 2.029879999999999907e+00 9.383490000000000109e+00 1.764960000000000084e+00 5.077729999999999855e+00 9.394429999999999836e+00 -6.130000000000000032e-03 8.122289999999999566e+00 9.391849999999999810e+00 7.032860000000000333e+00 2.030349999999999877e+00 9.385590000000000543e+00 5.269800000000000040e+00 5.073920000000000208e+00 9.387909999999999755e+00 3.516179999999999861e+00 8.124620000000000175e+00 9.380979999999999208e+00 5.999999999999999474e-04 1.422739999999999894e+00 1.698122000000000043e+01 -1.761160000000000059e+00 4.477319999999999744e+00 1.698091000000000150e+01 -3.517370000000000108e+00 7.526340000000000252e+00 1.698220999999999847e+01 3.522980000000000000e+00 1.426010000000000000e+00 1.698640999999999934e+01 1.759710000000000107e+00 4.477689999999999948e+00 1.698620999999999981e+01 -1.629999999999999939e-03 7.516890000000000072e+00 1.698158000000000101e+01 7.040530000000000399e+00 1.425519999999999898e+00 1.698131000000000057e+01 5.282370000000000232e+00 4.478220000000000312e+00 1.698786000000000129e+01 3.533510000000000151e+00 7.513589999999999769e+00 1.698029000000000011e+01 -5.749999999999999903e-03 2.024890000000000079e+00 1.302054000000000045e+01 -1.763500000000000068e+00 5.086249999999999716e+00 1.301562000000000019e+01 -3.518710000000000004e+00 8.129030000000000200e+00 1.300760000000000005e+01 3.524270000000000014e+00 2.034250000000000114e+00 1.300805000000000078e+01 1.762210000000000054e+00 5.085079999999999600e+00 1.301595999999999975e+01 3.000000000000000076e-05 8.126239999999999242e+00 1.301173999999999964e+01 7.048700000000000188e+00 2.029790000000000205e+00 1.302447000000000088e+01 5.281460000000000043e+00 5.086260000000000225e+00 1.301740999999999993e+01 3.512439999999999785e+00 8.134050000000000225e+00 1.301403999999999961e+01 -5.960000000000000020e-03 1.422760000000000025e+00 2.061227999999999838e+01 -1.765430000000000055e+00 4.475550000000000139e+00 2.061542999999999992e+01 -3.522110000000000074e+00 7.512920000000000265e+00 2.061389000000000138e+01 3.521529999999999827e+00 1.425389999999999935e+00 2.061981000000000108e+01 1.755949999999999900e+00 4.470419999999999838e+00 2.060736999999999952e+01 -7.900000000000000772e-03 7.528940000000000410e+00 2.061558000000000135e+01 7.043619999999999770e+00 1.416050000000000031e+00 2.061448999999999998e+01 5.275719999999999743e+00 4.460609999999999964e+00 2.061596000000000117e+01 3.518660000000000121e+00 7.519919999999999938e+00 2.061687999999999832e+01 6.409999999999999899e-03 8.760000000000000425e-03 1.120351999999999926e+01 -1.762289999999999912e+00 3.054069999999999840e+00 1.120128000000000057e+01 -3.512950000000000017e+00 6.086129999999999818e+00 1.119708999999999932e+01 -1.751840000000000064e+00 9.137900000000000134e+00 1.119760999999999918e+01 1.755589999999999984e+00 3.046009999999999884e+00 1.120778999999999925e+01 4.230000000000000253e-03 6.102859999999999729e+00 1.119987000000000066e+01 7.041680000000000383e+00 8.909999999999999518e-03 1.120227000000000039e+01 5.273380000000000400e+00 3.052369999999999806e+00 1.119963000000000086e+01 3.520090000000000163e+00 6.099210000000000242e+00 1.120097999999999949e+01 1.764089999999999936e+00 2.444199999999999928e+00 1.879238000000000142e+01 -3.059999999999999786e-03 5.484399999999999942e+00 1.879738000000000042e+01 -1.766420000000000101e+00 8.536590000000000344e+00 1.880170000000000030e+01 5.280759999999999899e+00 2.440910000000000135e+00 1.879551000000000016e+01 3.525180000000000202e+00 5.480620000000000047e+00 1.879945999999999984e+01 1.756660000000000110e+00 8.528109999999999857e+00 1.879709000000000074e+01 8.794489999999999696e+00 2.433450000000000113e+00 1.880490999999999957e+01 7.039769999999999861e+00 5.484169999999999767e+00 1.879271999999999920e+01 5.275809999999999889e+00 8.531919999999999504e+00 1.880152999999999963e+01
1.342999999999999923e-02 2.025589999999999780e+00 9.386559999999999349e+00 -1.747679999999999900e+00 5.089000000000000412e+00 9.398600000000000065e+00 -3.519039999999999946e+00 8.127629999999999910e+00 9.383589999999999876e+00 3.528350000000000097e+00 2.029079999999999995e+00 9.382469999999999644e+00 1.766590000000000105e+00 5.076740000000000030e+00 9.397000000000000242e+00 -8.120000000000000481e-03 8.120060000000000500e+00 9.393539999999999779e+00 7.030499999999999972e+00 2.029739999999999878e+00 9.385249999999999204e+00 5.266429999999999723e+00 5.071690000000000254e+00 9.388320000000000221e+00 3.514930000000000110e+00 8.123160000000000380e+00 9.379139999999999588e+00 7.900000000000000121e-04 1.422770000000000090e+00 1.697963999999999984e+01 -1.761549999999999949e+00 4.479359999999999786e+00 1.697919999999999874e+01 -3.516509999999999803e+00 7.528609999999999580e+00 1.698093000000000075e+01 3.523979999999999890e+00 1.427119999999999944e+00 1.698648999999999987e+01 1.759619999999999962e+00 4.479890000000000150e+00 1.698622999999999905e+01 -2.180000000000000080e-03 7.516040000000000276e+00 1.698009000000000057e+01 7.040700000000000180e+00 1.426449999999999996e+00 1.697972999999999999e+01 5.283150000000000013e+00 4.480570000000000164e+00 1.698840999999999823e+01 3.537970000000000059e+00 7.511630000000000251e+00 1.697838000000000136e+01 -7.669999999999999735e-03 2.022499999999999964e+00 1.302274000000000065e+01 -1.764629999999999921e+00 5.088110000000000355e+00 1.301618999999999993e+01 -3.518269999999999786e+00 8.129009999999999181e+00 1.300549999999999962e+01 3.525689999999999991e+00 2.034899999999999931e+00 1.300611999999999924e+01 1.762930000000000108e+00 5.086560000000000414e+00 1.301665000000000028e+01 5.000000000000000240e-05 8.125349999999999184e+00 1.301103999999999949e+01 7.051560000000000272e+00 2.029030000000000111e+00 1.302793999999999919e+01 5.281939999999999635e+00 5.088129999999999598e+00 1.301856000000000080e+01 3.509959999999999969e+00 8.135730000000000572e+00 1.301407000000000025e+01 -7.910000000000000364e-03 1.422819999999999974e+00 2.061188999999999893e+01 -1.767230000000000079e+00 4.477050000000000196e+00 2.061608999999999980e+01 -3.522829999999999906e+00 7.510760000000000325e+00 2.061403999999999925e+01 3.522019999999999929e+00 1.426320000000000032e+00 2.062190999999999974e+01 1.754610000000000003e+00 4.470229999999999926e+00 2.060538000000000025e+01 -1.051000000000000024e-02 7.532070000000000043e+00 2.061628999999999934e+01 7.044789999999999885e+00 1.413869999999999960e+00 2.061484000000000094e+01 5.274320000000000341e+00 4.457169999999999632e+00 2.061680000000000135e+01 3.518209999999999837e+00 7.520069999999999588e+00 2.061801000000000172e+01 8.449999999999999178e-03 1.157000000000000042e-02 1.120471000000000039e+01 -1.762999999999999901e+00 3.055890000000000217e+00 1.120177999999999940e+01 -3.510709999999999997e+00 6.082679999999999865e+00 1.119619999999999926e+01 -1.749179999999999957e+00 9.135540000000000660e+00 1.119689999999999941e+01 1.754170000000000007e+00 3.045209999999999972e+00 1.121040999999999954e+01 5.640000000000000048e-03 6.104809999999999626e+00 1.119997000000000043e+01 7.042189999999999728e+00 1.180999999999999932e-02 1.120306000000000068e+01 5.271279999999999966e+00 3.053659999999999819e+00 1.119965000000000011e+01 3.520140000000000047e+00 6.100030000000000285e+00 1.120139999999999958e+01 1.765400000000000080e+00 2.445949999999999847e+00 1.878984000000000165e+01 -4.089999999999999886e-03 5.483539999999999637e+00 1.879646999999999935e+01 -1.768520000000000092e+00 8.536960000000000548e+00 1.880217999999999989e+01 5.281039999999999957e+00 2.441580000000000084e+00 1.879400000000000048e+01 3.526860000000000106e+00 5.478519999999999612e+00 1.879924000000000106e+01 1.755589999999999984e+00 8.525660000000000238e+00 1.879602999999999824e+01 8.792699999999999960e+00 2.431770000000000209e+00 1.880638000000000076e+01 7.039679999999999715e+00 5.483220000000000205e+00 1.879029999999999845e+01 5.274469999999999992e+00 8.530730000000000146e+00 1.880196000000000112e+01
1.671999999999999875e-02 2.023969999999999825e+00 9.386549999999999727e+00 -1.744620000000000060e+00 5.091020000000000323e+00 9.401490000000000791e+00 -3.518810000000000215e+00 8.127240000000000464e+00 9.382860000000000866e+00 3.530380000000000074e+00 2.028280000000000083e+00 9.381479999999999819e+00 1.768219999999999903e+00 5.075739999999999696e+00 9.399570000000000647e+00 -1.005999999999999950e-02 8.117850000000000676e+00 9.395189999999999486e+00 7.028159999999999741e+00 2.029160000000000075e+00 9.384930000000000661e+00 5.263099999999999667e+00 5.069490000000000052e+00 9.388719999999999288e+00 3.513700000000000045e+00 8.121740000000000848e+00 9.377340000000000231e+00 9.700000000000000505e-04 1.422789999999999999e+00 1.697809000000000168e+01 -1.761929999999999996e+00 4.481340000000000323e+00 1.697749999999999915e+01 -3.515660000000000007e+00 7.530850000000000044e+00 1.697965999999999909e+01 3.524970000000000159e+00 1.428209999999999980e+00 1.698656000000000077e+01 1.759540000000000104e+00 4.482070000000000221e+00 1.698621999999999943e+01 -2.749999999999999840e-03 7.515179999999999971e+00 1.697861999999999938e+01 7.040869999999999962e+00 1.427340000000000053e+00 1.697817999999999827e+01 5.283929999999999794e+00 4.482890000000000263e+00 1.698892000000000024e+01 3.542380000000000084e+00 7.509669999999999845e+00 1.697648999999999830e+01 -9.579999999999999974e-03 2.020160000000000178e+00 1.302494000000000085e+01 -1.765730000000000022e+00 5.089970000000000105e+00 1.301675999999999966e+01 -3.517809999999999881e+00 8.128989999999999938e+00 1.300339999999999918e+01 3.527089999999999836e+00 2.035540000000000127e+00 1.300421000000000049e+01 1.763660000000000005e+00 5.088040000000000340e+00 1.301732999999999940e+01 1.000000000000000048e-04 8.124480000000000146e+00 1.301036000000000037e+01 7.054369999999999585e+00 2.028319999999999901e+00 1.303137000000000079e+01 5.282429999999999737e+00 5.089999999999999858e+00 1.301970000000000027e+01 3.507509999999999906e+00 8.137420000000000542e+00 1.301408999999999949e+01 -9.820000000000000603e-03 1.422889999999999988e+00 2.061148999999999987e+01 -1.769020000000000037e+00 4.478519999999999612e+00 2.061673000000000044e+01 -3.523550000000000182e+00 7.508610000000000007e+00 2.061418000000000106e+01 3.522499999999999964e+00 1.427259999999999973e+00 2.062396000000000029e+01 1.753279999999999950e+00 4.470040000000000013e+00 2.060340000000000060e+01 -1.311999999999999972e-02 7.535169999999999924e+00 2.061698000000000164e+01 7.045930000000000248e+00 1.411680000000000046e+00 2.061517999999999873e+01 5.272949999999999804e+00 4.453759999999999941e+00 2.061762999999999835e+01 3.517749999999999932e+00 7.520190000000000374e+00 2.061912999999999840e+01 1.043000000000000003e-02 1.429000000000000062e-02 1.120584000000000024e+01 -1.763660000000000005e+00 3.057650000000000201e+00 1.120227000000000039e+01 -3.508570000000000189e+00 6.079320000000000057e+00 1.119532000000000060e+01 -1.746580000000000021e+00 9.133250000000000313e+00 1.119621000000000066e+01 1.752769999999999939e+00 3.044420000000000126e+00 1.121299999999999919e+01 7.040000000000000251e-03 6.106700000000000017e+00 1.120012000000000008e+01 7.042670000000000208e+00 1.465999999999999942e-02 1.120382000000000033e+01 5.269260000000000055e+00 3.054920000000000080e+00 1.119970999999999961e+01 3.520199999999999996e+00 6.100869999999999571e+00 1.120185000000000031e+01 1.766659999999999897e+00 2.447639999999999816e+00 1.878735999999999962e+01 -5.139999999999999604e-03 5.482739999999999725e+00 1.879559000000000069e+01 -1.770580000000000043e+00 8.537340000000000373e+00 1.880264999999999986e+01 5.281329999999999636e+00 2.442210000000000214e+00 1.879253999999999891e+01 3.528519999999999879e+00 5.476479999999999571e+00 1.879905000000000115e+01 1.754559999999999897e+00 8.523239999999999483e+00 1.879494000000000042e+01 8.790940000000000865e+00 2.430149999999999810e+00 1.880778000000000105e+01 7.039570000000000327e+00 5.482289999999999885e+00 1.878794999999999860e+01 5.273170000000000357e+00 8.529560000000000031e+00 1.880236999999999981e+01
1.997000000000000164e-02 2.022400000000000198e+00 9.386559999999999349e+00 -1.741549999999999931e+00 5.093009999999999593e+00 9.404320000000000235e+00 -3.518559999999999910e+00 8.126829999999999998e+00 9.382149999999999324e+00 3.532360000000000166e+00 2.027480000000000171e+00 9.380509999999999238e+00 1.769830000000000014e+00 5.074740000000000251e+00 9.402120000000000033e+00 -1.193999999999999923e-02 8.115669999999999717e+00 9.396800000000000708e+00 7.025839999999999641e+00 2.028610000000000024e+00 9.384610000000000340e+00 5.259800000000000253e+00 5.067309999999999981e+00 9.389110000000000511e+00 3.512500000000000178e+00 8.120359999999999800e+00 9.375590000000000757e+00 1.129999999999999928e-03 1.422800000000000065e+00 1.697657999999999845e+01 -1.762299999999999978e+00 4.483249999999999957e+00 1.697581999999999880e+01 -3.514829999999999899e+00 7.533070000000000377e+00 1.697839000000000098e+01 3.525949999999999918e+00 1.429280000000000106e+00 1.698661999999999850e+01 1.759460000000000024e+00 4.484230000000000160e+00 1.698620000000000019e+01 -3.330000000000000061e-03 7.514319999999999666e+00 1.697716000000000136e+01 7.041050000000000253e+00 1.428190000000000071e+00 1.697663999999999973e+01 5.284709999999999575e+00 4.485159999999999592e+00 1.698939000000000021e+01 3.546749999999999847e+00 7.507690000000000197e+00 1.697463000000000122e+01 -1.148000000000000062e-02 2.017879999999999896e+00 1.302713999999999928e+01 -1.766799999999999926e+00 5.091829999999999856e+00 1.301734000000000080e+01 -3.517339999999999911e+00 8.128970000000000695e+00 1.300131000000000014e+01 3.528480000000000061e+00 2.036160000000000192e+00 1.300234000000000023e+01 1.764369999999999994e+00 5.089520000000000266e+00 1.301802999999999955e+01 1.600000000000000131e-04 8.123649999999999594e+00 1.300971999999999973e+01 7.057140000000000413e+00 2.027660000000000018e+00 1.303475000000000072e+01 5.282910000000000217e+00 5.091879999999999740e+00 1.302082000000000050e+01 3.505100000000000104e+00 8.139129999999999754e+00 1.301409999999999911e+01 -1.170000000000000033e-02 1.422949999999999937e+00 2.061107000000000156e+01 -1.770820000000000061e+00 4.479969999999999786e+00 2.061734999999999829e+01 -3.524300000000000210e+00 7.506459999999999688e+00 2.061430999999999969e+01 3.522969999999999935e+00 1.428209999999999980e+00 2.062596999999999881e+01 1.751949999999999896e+00 4.469859999999999722e+00 2.060144000000000020e+01 -1.570999999999999827e-02 7.538219999999999921e+00 2.061764000000000152e+01 7.047039999999999971e+00 1.409499999999999975e+00 2.061550000000000082e+01 5.271609999999999907e+00 4.450370000000000381e+00 2.061844999999999928e+01 3.517269999999999897e+00 7.520279999999999632e+00 2.062022999999999939e+01 1.230999999999999976e-02 1.689999999999999836e-02 1.120691000000000059e+01 -1.764280000000000070e+00 3.059349999999999792e+00 1.120274999999999999e+01 -3.506540000000000212e+00 6.076069999999999638e+00 1.119444000000000017e+01 -1.744059999999999944e+00 9.131040000000000489e+00 1.119552000000000014e+01 1.751409999999999911e+00 3.043620000000000214e+00 1.121555000000000035e+01 8.439999999999999586e-03 6.108530000000000015e+00 1.120034000000000063e+01 7.043099999999999916e+00 1.743000000000000105e-02 1.120453000000000010e+01 5.267350000000000421e+00 3.056140000000000079e+00 1.119982000000000077e+01 3.520290000000000141e+00 6.101720000000000255e+00 1.120232000000000028e+01 1.767870000000000053e+00 2.449269999999999836e+00 1.878496000000000166e+01 -6.190000000000000190e-03 5.481989999999999696e+00 1.879476000000000013e+01 -1.772590000000000110e+00 8.537750000000000838e+00 1.880311000000000021e+01 5.281640000000000335e+00 2.442779999999999951e+00 1.879112999999999900e+01 3.530130000000000212e+00 5.474510000000000431e+00 1.879889000000000010e+01 1.753579999999999917e+00 8.520849999999999369e+00 1.879382000000000019e+01 8.789210000000000633e+00 2.428620000000000001e+00 1.880910000000000082e+01 7.039450000000000429e+00 5.481390000000000207e+00 1.878567999999999927e+01 5.271919999999999717e+00 8.528420000000000556e+00 1.880275999999999925e+01