-3.428107280199999991e+02
-3.428079898199999889e+02
-3.428000349800000208e+02
-3.427870754599999827e+02
-3.427694413799999893e+02
-3.427475593600000252e+02
-3.427219334800000183e+02
-3.426931238399999984e+02
-3.426617233200000214e+02
-3.426283403699999894e+02
-3.418515456100000165e+02
-3.418552554999999984e+02
-3.418569295199999942e+02
-3.418566048600000045e+02
-3.418544204899999954e+02
-3.418506088799999816e+02
-3.418454864899999848e+02
-3.418394314000000236e+02
-3.418328663500000175e+02
-3.418262351600000102e+02
-3.418827883000000156e+02
-3.418772041400000035e+02
-3.418692771500000163e+02
-3.418591540499999724e+02
-3.418470703599999752e+02
-3.418333518800000093e+02
-3.418183977699999900e+02
-3.418026653699999997e+02
-3.417866670600000134e+02
-3.417709454399999913e+02
-3.423101422199999888e+02
-3.423000946899999803e+02
-3.422866467599999964e+02
-3.422702258799999981e+02
-3.422513905299999806e+02
-3.422308031200000187e+02
-3.422091940999999906e+02
-3.421873364499999752e+02
-3.421660016100000234e+02
-3.421459333700000229e+02
-3.410716205699999932e+02
-3.410780964699999913e+02
-3.410876049500000136e+02
-3.410999751100000026e+02
-3.411150212200000169e+02
-3.411325365499999975e+02
-3.411522991100000013e+02
-3.411740589400000090e+02
-3.411975439799999776e+02
-3.412224590399999897e+02
-3.420772331800000075e+02
-3.420848770700000046e+02
-3.420914400099999853e+02
-3.420969652699999983e+02
-3.421016068499999960e+02
-3.421056188499999848e+02
-3.421093281000000275e+02
-3.421131089300000099e+02
-3.421173584399999754e+02
-3.421224586100000238e+02
-3.413398263700000257e+02
-3.413542065199999911e+02
-3.413687267700000234e+02
-3.413832596999999964e+02
-3.413977349699999877e+02
-3.414121422700000039e+02
-3.414265264699999989e+02
-3.414409881799999766e+02
-3.414556783699999869e+02
-3.414707767200000035e+02
-3.420975113900000224e+02
-3.420992774900000200e+02
-3.420976103099999932e+02
-3.420926734600000145e+02
-3.420847881799999755e+02
-3.420744120800000019e+02
-3.420621059599999967e+02
-3.420485078099999896e+02
-3.420342921000000160e+02
-3.420201407600000039e+02
-3.422249851899999840e+02
-3.422185160899999801e+02
-3.422087548599999991e+02
-3.421959650900000156e+02
-3.421804781899999739e+02
-3.421626886299999910e+02
-3.421430271199999993e+02
-3.421219516699999872e+02
-3.420999288200000024e+02
-3.420774213000000259e+02
-3.422753663899999879e+02
-3.422784689499999899e+02
-3.422770620599999916e+02
-3.422713446700000191e+02
-3.422616773199999898e+02
-3.422485680099999854e+02
-3.422326481299999728e+02
-3.422146341399999869e+02
-3.421952989999999772e+02
-3.421754389199999764e+02
-3.420983486299999754e+02
-3.420942379800000026e+02
-3.420848093800000242e+02
-3.420703229599999986e+02
-3.420511635199999887e+02
-3.420278283200000260e+02
-3.420008856900000183e+02
-3.419709683099999893e+02
-3.419387457799999765e+02
-3.419048931099999891e+02
-3.397068363600000112e+02
-3.397205336299999772e+02
-3.397459450700000048e+02
-3.397827796999999919e+02
-3.398306340899999896e+02
-3.398889579300000037e+02
-3.399570391099999824e+02
-3.400339621300000204e+02
-3.401185907799999768e+02
-3.402095777900000257e+02
-3.424711310100000219e+02
-3.424658283499999811e+02
-3.424575120200000242e+02
-3.424463586100000043e+02
-3.424326189700000214e+02
-3.424166022200000157e+02
-3.423986737399999924e+02
-3.423792320900000163e+02
-3.423587080699999774e+02
-3.423375467500000013e+02
-3.422198971000000256e+02
-3.422085509899999920e+02
-3.421943495799999937e+02
-3.421775870899999745e+02
-3.421586134899999934e+02
-3.421378303399999936e+02
-3.421156685999999922e+02
-3.420925818399999798e+02
-3.420690291799999727e+02
-3.420454648300000144e+02
-3.419154412500000149e+02
-3.419148352099999784e+02
-3.419115927600000191e+02
-3.419059061699999802e+02
-3.418980580200000077e+02
-3.418884087199999726e+02
-3.418773802700000033e+02
-3.418654446900000039e+02
-3.418531029200000262e+02
-3.418408697400000165e+02
-3.423267152500000066e+02
-3.423247826400000235e+02
-3.423188961999999833e+02
-3.423092674600000009e+02
-3.422962066399999799e+02
-3.422801140299999929e+02
-3.422614530999999829e+02
-3.422407320600000276e+02
-3.422184883200000058e+02
-3.421952628899999809e+02
-3.419821515099999942e+02
-3.419870061099999816e+02
-3.419892038400000160e+02
-3.419888209499999903e+02
-3.419860300400000028e+02
-3.419810942999999952e+02
-3.419743462399999885e+02
-3.419661737999999787e+02
-3.419570022300000005e+02
-3.419472732599999745e+02
-3.406390331599999968e+02
-3.406517492599999741e+02
-3.406665047899999763e+02
-3.406831566899999757e+02
-3.407015738700000043e+02
-3.407216394399999899e+02
-3.407432484000000272e+02
-3.407663159300000189e+02
-3.407907733399999870e+02
-3.408165655099999753e+02
-3.419737112099999763e+02
-3.419684562799999981e+02
-3.419596005500000047e+02
-3.419474928299999874e+02
-3.419325559000000112e+02
-3.419152691099999970e+02
-3.418961502299999893e+02
-3.418757303300000103e+02
-3.418545393499999818e+02
-3.418330858599999829e+02
-3.422492218799999932e+02
-3.422480279200000268e+02
-3.422429667800000175e+02
-3.422342405399999734e+02
-3.422221846900000060e+02
-3.422072518599999853e+02
-3.421899854299999788e+02
-3.421709910000000150e+02
-3.421509083299999929e+02
-3.421303743400000030e+02
-3.404898838999999953e+02
-3.405070111300000235e+02
-3.405310178400000041e+02
-3.405614289700000086e+02
-3.405977159099999767e+02
-3.406392832799999724e+02
-3.406854799399999933e+02
-3.407356024000000048e+02
-3.407888988199999858e+02
-3.408445763899999861e+02
-3.418591879400000266e+02
-3.418583115299999804e+02
-3.418584702100000072e+02
-3.418599230199999965e+02
-3.418629912499999932e+02
-3.418680381199999943e+02
-3.418754447599999935e+02
-3.418855835699999943e+02
-3.418987896599999772e+02
-3.419153321599999913e+02
-3.421561474999999746e+02
-3.421575784400000089e+02
-3.421548199499999896e+02
-3.421480312200000071e+02
-3.421375031100000115e+02
-3.421236395799999741e+02
-3.421069392900000139e+02
-3.420879719700000123e+02
-3.420673585999999773e+02
-3.420457412299999760e+02
-3.420773373000000106e+02
-3.420743924399999969e+02
-3.420686794700000064e+02
-3.420603863599999954e+02
-3.420497896499999797e+02
-3.420372326599999724e+02
-3.420231103400000165e+02
-3.420078552599999853e+02
-3.419919076599999812e+02
-3.419757045499999890e+02
-3.420033161900000209e+02
-3.420005832400000259e+02
-3.419948977600000148e+02
-3.419864863700000228e+02
-3.419756756900000028e+02
-3.419628807999999935e+02
-3.419485779500000149e+02
-3.419332896600000140e+02
-3.419175576499999920e+02
-3.419019239300000095e+02
-3.420246540599999889e+02
-3.420341678500000171e+02
-3.420417989000000034e+02
-3.420474880500000268e+02
-3.420512517199999820e+02
-3.420531861299999719e+02
-3.420534505499999796e+02
-3.420522719900000084e+02
-3.420499255400000038e+02
-3.420467216999999778e+02
-3.420597867700000165e+02
-3.420551317100000119e+02
-3.420481022100000246e+02
-3.420388200699999857e+02
-3.420274455800000055e+02
-3.420141940999999974e+02
-3.419993134700000041e+02
-3.419830929799999808e+02
-3.419658393600000181e+02
-3.419478804999999966e+02
-3.410035107599999833e+02
-3.410055107700000008e+02
-3.410103258099999834e+02
-3.410179249799999752e+02
-3.410282686300000137e+02
-3.410413170400000240e+02
-3.410570241099999862e+02
-3.410753396999999723e+02
-3.410962066600000071e+02
-3.411195644800000082e+02
-3.413139995099999737e+02
-3.413169326299999966e+02
-3.413209588199999871e+02
-3.413260742200000095e+02
-3.413322986200000173e+02
-3.413396872399999893e+02
-3.413483166899999901e+02
-3.413582822299999862e+02
-3.413697019499999783e+02
-3.413826956400000086e+02
-3.421794548199999895e+02
-3.421738103000000137e+02
-3.421650766399999952e+02
-3.421534627199999932e+02
-3.421392473600000130e+02
-3.421227799700000105e+02
-3.421044585700000198e+02
-3.420847199699999805e+02
-3.420640224100000069e+02
-3.420428305500000192e+02
-3.419674557600000071e+02
-3.419642238499999962e+02
-3.419586843800000224e+02
-3.419510306299999911e+02
-3.419415439300000230e+02
-3.419305834400000208e+02
-3.419185662500000262e+02
-3.419059463599999731e+02
-3.418932010699999751e+02
-3.418808057900000108e+02
-3.416473942000000079e+02
-3.416465737899999908e+02
-3.416443987600000014e+02
-3.416409267000000227e+02
-3.416362657000000240e+02
-3.416305562399999758e+02
-3.416239638499999955e+02
-3.416166756100000157e+02
-3.416088857199999893e+02
-3.416007840299999998e+02
-3.421340043800000217e+02
-3.421273556599999779e+02
-3.421162161799999808e+02
-3.421008866000000239e+02
-3.420817801399999780e+02
-3.420594113600000128e+02
-3.420343642899999850e+02
-3.420072780200000011e+02
-3.419788115999999718e+02
-3.419496326299999964e+02
-3.417718989100000044e+02
-3.417690089000000171e+02
-3.417640469099999905e+02
-3.417571862500000179e+02
-3.417486631400000192e+02
-3.417387721900000201e+02
-3.417278486499999985e+02
-3.417162547300000028e+02
-3.417043726800000059e+02
-3.416925878299999795e+02
-3.421615848499999970e+02
-3.421724937600000089e+02
-3.421796462600000268e+02
-3.421829765499999780e+02
-3.421825774499999966e+02
-3.421786886599999775e+02
-3.421716788800000018e+02
-3.421620366399999966e+02
-3.421503217399999812e+02
-3.421371421499999883e+02
-3.424852965599999948e+02
-3.424825721199999862e+02
-3.424749366899999927e+02
-3.424626220100000182e+02
-3.424460034200000109e+02
-3.424255893499999956e+02
-3.424019925100000137e+02
-3.423759112100000266e+02
-3.423481039499999952e+02
-3.423193620299999793e+02
-3.416119392200000107e+02
-3.416195000999999820e+02
-3.416268366799999967e+02
-3.416339233200000081e+02
-3.416407713300000069e+02
-3.416474165600000106e+02
-3.416539157000000273e+02
-3.416603296800000180e+02
-3.416667172599999844e+02
-3.416731265700000222e+02
-3.419902372399999990e+02
-3.419950206600000229e+02
-3.419989262099999792e+02
-3.420019430099999909e+02
-3.420040981399999964e+02
-3.420054559899999731e+02
-3.420061107500000048e+02
-3.420061919999999986e+02
-3.420058512300000189e+02
-3.420052582000000143e+02
-3.410564457400000151e+02
-3.410606270399999858e+02
-3.410681304600000203e+02
-3.410788948800000071e+02
-3.410928254300000049e+02
-3.411098003299999846e+02
-3.411296684399999890e+02
-3.411522595600000045e+02
-3.411773759800000221e+02
-3.412048060100000271e+02
-3.424704481699999974e+02
-3.424700178499999765e+02
-3.424651621799999930e+02
-3.424560658099999841e+02
-3.424430250600000250e+02
-3.424264391099999898e+02
-3.424067891700000246e+02
-3.423846263799999861e+02
-3.423605401600000278e+02
-3.423351441600000271e+02
-3.420082077000000140e+02
-3.420111252300000046e+02
-3.420111429199999975e+02
-3.420084182599999849e+02
-3.420032221600000071e+02
-3.419959270599999854e+02
-3.419869819200000052e+02
-3.419768955499999947e+02
-3.419662050100000101e+02
-3.419554494500000033e+02
-3.404614621100000136e+02
-3.404585288200000264e+02
-3.404617263900000239e+02
-3.404711039000000028e+02
-3.404866972899999951e+02
-3.405085016400000200e+02
-3.405364567899999884e+02
-3.405704173799999808e+02
-3.406101193499999908e+02
-3.406551658299999872e+02
-3.423706728399999974e+02
-3.423743156799999952e+02
-3.423746913699999936e+02
-3.423718676999999957e+02
-3.423660002099999815e+02
-3.423573333400000251e+02
-3.423461804099999881e+02
-3.423329182499999774e+02
-3.423179625899999792e+02
-3.423017596799999751e+02
-3.420003574899999990e+02
-3.419949157199999945e+02
-3.419846916899999769e+02
-3.419699651500000073e+02
-3.419511729899999750e+02
-3.419288701300000071e+02
-3.419037133499999754e+02
-3.418764265199999954e+02
-3.418477785399999789e+02
-3.418185447700000168e+02
-3.421528408199999944e+02
-3.421520582699999977e+02
-3.421474297299999989e+02
-3.421390683199999785e+02
-3.421272106900000267e+02
-3.421122033999999985e+02
-3.420944906700000274e+02
-3.420745935900000063e+02
-3.420530923700000017e+02
-3.420306012699999769e+02
-3.410229690099999971e+02
-3.410338525500000060e+02
-3.410471057600000222e+02
-3.410625424400000156e+02
-3.410799879200000078e+02
-3.410992828700000246e+02
-3.411202792500000101e+02
-3.411428477700000030e+02
-3.411668813900000146e+02
-3.411922890299999835e+02
-3.423082181199999923e+02
-3.423088142700000276e+02
-3.423047113499999909e+02
-3.422960772700000120e+02
-3.422832074600000283e+02
-3.422664962999999716e+02
-3.422464277700000252e+02
-3.422235488800000098e+02
-3.421984468300000231e+02
-3.421717276599999877e+02
-3.420774785699999825e+02
-3.420814508400000022e+02
-3.420818646999999828e+02
-3.420788423500000022e+02
-3.420726510499999904e+02
-3.420636887499999830e+02
-3.420524565100000132e+02
-3.420395411599999989e+02
-3.420255795900000066e+02
-3.420112293600000157e+02
-3.414970953499999951e+02
-3.414988437900000235e+02
-3.414988557199999946e+02
-3.414971621500000083e+02
-3.414939244099999769e+02
-3.414894249000000173e+02
-3.414840439199999764e+02
-3.414782469099999958e+02
-3.414725442999999814e+02
-3.414674678000000085e+02
-3.418682967500000132e+02
-3.418807052099999737e+02
-3.418895768300000100e+02
-3.418947408799999721e+02
-3.418961310600000161e+02
-3.418937964099999931e+02
-3.418878882299999873e+02
-3.418786617600000000e+02
-3.418664515400000141e+02
-3.418516629999999736e+02
