-1.999999999999999909e-06 -1.301000000000000073e-03 -1.399999999999999877e-04 3.000000000000000076e-06 -1.301999999999999989e-03 -1.389999999999999905e-04 1.999999999999999909e-06 -1.299999999999999940e-03 -1.399999999999999877e-04 3.000000000000000076e-06 -1.304999999999999953e-03 -1.379999999999999933e-04 -1.999999999999999909e-06 -1.301000000000000073e-03 -1.399999999999999877e-04 -9.999999999999999547e-07 -1.301000000000000073e-03 -1.369999999999999961e-04 0.000000000000000000e+00 -1.302999999999999905e-03 -1.359999999999999989e-04 0.000000000000000000e+00 -1.304000000000000038e-03 -1.420000000000000092e-04 -3.000000000000000076e-06 -1.299999999999999940e-03 -1.410000000000000120e-04 -9.999999999999999547e-07 -3.778800000000000214e-02 7.399999999999999623e-05 1.999999999999999909e-06 -3.779199999999999920e-02 6.899999999999999667e-05 0.000000000000000000e+00 -3.778499999999999914e-02 6.999999999999999387e-05 -1.999999999999999909e-06 -3.779099999999999820e-02 7.100000000000000462e-05 -1.999999999999999909e-06 -3.778999999999999720e-02 7.100000000000000462e-05 9.999999999999999547e-07 -3.778700000000000114e-02 7.100000000000000462e-05 3.999999999999999819e-06 -3.779199999999999920e-02 7.299999999999999903e-05 -9.999999999999999547e-07 -3.778900000000000314e-02 6.600000000000000506e-05 -9.999999999999999547e-07 -3.778499999999999914e-02 6.999999999999999387e-05 -1.999999999999999909e-06 3.876799999999999691e-02 -6.700000000000000226e-05 3.000000000000000076e-06 3.876600000000000185e-02 -6.700000000000000226e-05 3.999999999999999819e-06 3.876999999999999891e-02 -6.600000000000000506e-05 3.000000000000000076e-06 3.876399999999999985e-02 -6.799999999999999946e-05 -3.000000000000000076e-06 3.876799999999999691e-02 -6.499999999999999431e-05 9.999999999999999547e-07 3.876999999999999891e-02 -7.100000000000000462e-05 -9.999999999999999547e-07 3.876500000000000085e-02 -7.100000000000000462e-05 0.000000000000000000e+00 3.876199999999999785e-02 -6.399999999999999710e-05 -3.999999999999999819e-06 3.876999999999999891e-02 -6.600000000000000506e-05 -9.999999999999999547e-07 6.400000000000000524e-04 1.620000000000000075e-04 1.999999999999999909e-06 6.359999999999999551e-04 1.659999999999999963e-04 0.000000000000000000e+00 6.409999999999999682e-04 1.679999999999999907e-04 -1.999999999999999909e-06 6.380000000000000037e-04 1.669999999999999935e-04 0.000000000000000000e+00 6.369999999999999794e-04 1.659999999999999963e-04 3.000000000000000076e-06 6.409999999999999682e-04 1.659999999999999963e-04 3.000000000000000076e-06 6.369999999999999794e-04 1.640000000000000019e-04 0.000000000000000000e+00 6.409999999999999682e-04 1.700000000000000122e-04 -9.999999999999999547e-07 6.419999999999999925e-04 1.669999999999999935e-04 -9.999999999999999547e-07 1.044400000000000016e-02 1.450000000000000009e-04 -3.000000000000000076e-06 1.043799999999999936e-02 1.459999999999999981e-04 3.999999999999999819e-06 1.043999999999999963e-02 1.440000000000000036e-04 6.999999999999999895e-06 1.044100000000000063e-02 1.459999999999999981e-04 0.000000000000000000e+00 1.043799999999999936e-02 1.459999999999999981e-04 -9.999999999999999547e-07 1.044400000000000016e-02 1.459999999999999981e-04 -5.000000000000000409e-06 1.044400000000000016e-02 1.479999999999999925e-04 1.999999999999999909e-06 1.043200000000000030e-02 1.459999999999999981e-04 -5.000000000000000409e-06 1.043999999999999963e-02 1.430000000000000064e-04 -6.999999999999999895e-06 -1.087499999999999925e-02 -1.789999999999999870e-04 1.999999999999999909e-06 -1.087399999999999999e-02 -1.800000000000000113e-04 9.999999999999999547e-07 -1.087100000000000045e-02 -1.789999999999999870e-04 1.999999999999999909e-06 -1.087800000000000052e-02 -1.789999999999999870e-04 -5.000000000000000409e-06 -1.087100000000000045e-02 -1.800000000000000113e-04 1.999999999999999909e-06 -1.087100000000000045e-02 -1.789999999999999870e-04 3.000000000000000076e-06 -1.087800000000000052e-02 -1.800000000000000113e-04 1.999999999999999909e-06 -1.087199999999999972e-02 -1.779999999999999898e-04 -3.000000000000000076e-06 -1.086699999999999992e-02 -1.810000000000000085e-04
-3.250000000000000111e-02 2.607299999999999895e-02 8.092999999999999500e-03 -6.787999999999999763e-03 -2.539999999999999897e-02 -4.486300000000000010e-02 2.069999999999999900e-04 -1.194899999999999955e-02 1.636100000000000054e-02 -3.010699999999999835e-02 -1.781999999999999947e-03 2.282100000000000101e-02 -1.161500000000000032e-02 -4.517000000000000182e-03 -1.258100000000000017e-02 4.073600000000000138e-02 2.297700000000000090e-02 -3.075200000000000156e-02 1.716799999999999923e-02 2.184699999999999837e-02 1.095299999999999919e-02 2.789200000000000013e-02 1.981399999999999828e-02 -7.112000000000000266e-03 1.906300000000000008e-02 2.827899999999999858e-02 3.802200000000000024e-02 -8.987999999999999462e-03 -3.718199999999999977e-02 3.002000000000000154e-02 3.157000000000000084e-03 -7.603400000000000436e-02 1.440600000000000040e-02 -1.271300000000000034e-02 -4.982099999999999723e-02 9.421000000000000554e-03 -2.660000000000000038e-03 -4.568500000000000338e-02 -1.161200000000000079e-02 4.597999999999999657e-03 -4.574899999999999800e-02 -1.479600000000000012e-02 -9.414000000000000493e-03 -3.146899999999999697e-02 1.509800000000000031e-02 -8.620000000000000275e-04 -5.886899999999999772e-02 1.746100000000000083e-02 -2.554999999999999979e-03 -6.180800000000000183e-02 -2.919899999999999926e-02 -3.749799999999999661e-02 -3.410900000000000043e-02 1.994100000000000039e-02 4.802999999999999978e-03 7.359899999999999776e-02 -2.831999999999999882e-03 2.499799999999999939e-02 2.716800000000000118e-02 3.484000000000000118e-03 9.905000000000000610e-03 2.560799999999999882e-02 6.288000000000000186e-03 -9.943999999999999714e-03 1.859200000000000089e-02 2.168499999999999941e-02 -6.474999999999999853e-03 2.877199999999999896e-02 4.466999999999999617e-03 1.271699999999999914e-02 5.738599999999999951e-02 2.072699999999999890e-02 -3.581399999999999861e-02 6.966999999999999582e-02 -3.534000000000000336e-02 -1.990000000000000124e-04 2.894700000000000051e-02 -1.007100000000000009e-02 2.976000000000000173e-02 3.828600000000000059e-02 -5.806999999999999662e-03 2.920100000000000126e-02 3.219000000000000073e-03 -1.283899999999999972e-02 5.621000000000000128e-03 -1.679999999999999896e-02 -1.564799999999999872e-02 -9.308000000000000301e-03 5.879999999999999810e-03 -9.957000000000000572e-03 -1.041100000000000012e-02 3.841999999999999929e-03 -3.555500000000000327e-02 6.298999999999999912e-03 3.389000000000000085e-03 1.114300000000000013e-02 1.146499999999999950e-02 -3.230999999999999844e-02 -1.884500000000000064e-02 -2.514299999999999868e-02 1.132999999999999893e-03 -1.316999999999999942e-02 2.261600000000000069e-02 2.174799999999999997e-02 -1.178799999999999987e-02 -6.344999999999999946e-03 -1.895300000000000110e-02 -1.826399999999999899e-02 -4.815400000000000236e-02 -5.282599999999999796e-02 -3.669599999999999945e-02 2.871800000000000047e-02 -2.902899999999999925e-02 -6.343999999999999813e-03 -6.132499999999999757e-02 6.685099999999999376e-02 1.773000000000000053e-03 -3.670699999999999658e-02 5.221499999999999753e-02 5.722999999999999789e-03 2.200300000000000172e-02 6.997999999999999880e-03 -2.696499999999999939e-02 -2.720000000000000195e-03 -2.792299999999999990e-02 3.402600000000000069e-02 -2.417300000000000004e-02 -3.119399999999999951e-02 -2.443499999999999839e-02 5.677299999999999708e-02 -1.317800000000000048e-02 3.022199999999999886e-02 1.137900000000000023e-02 1.765500000000000055e-02 1.171400000000000045e-02 -2.962400000000000103e-02 -4.648100000000000148e-02 4.254600000000000048e-02 -6.407999999999999634e-03 2.381799999999999889e-02 2.208299999999999846e-02 2.441499999999999920e-02 2.893999999999999871e-03 -7.664999999999999938e-03 1.160699999999999926e-02 -3.715399999999999953e-02 3.130100000000000243e-02 -2.254400000000000154e-02 3.184100000000000125e-02 1.792799999999999949e-02 2.474600000000000063e-02 1.018799999999999914e-02 -1.331199999999999918e-02 2.193300000000000111e-02 3.494300000000000184e-02 -4.836599999999999927e-02 -9.173000000000000598e-03 1.007199999999999936e-02 4.521499999999999825e-02 2.840799999999999922e-02 5.518000000000000335e-03 -8.165999999999999648e-03
-6.437900000000000567e-02 5.320400000000000129e-02 1.571600000000000080e-02 -1.341099999999999931e-02 -4.963499999999999857e-02 -8.982099999999999806e-02 4.330000000000000081e-04 -2.237899999999999959e-02 3.248299999999999799e-02 -5.963700000000000251e-02 -2.410999999999999949e-03 4.517800000000000288e-02 -2.325100000000000083e-02 -7.744000000000000015e-03 -2.501099999999999851e-02 8.144700000000000550e-02 4.718399999999999678e-02 -6.219100000000000322e-02 3.411899999999999655e-02 4.487399999999999722e-02 2.169700000000000101e-02 5.548999999999999766e-02 4.091600000000000098e-02 -1.436300000000000077e-02 3.751000000000000167e-02 5.727800000000000252e-02 7.508399999999999797e-02 -1.776900000000000007e-02 -3.653700000000000003e-02 5.952799999999999758e-02 6.309000000000000372e-03 -1.134359999999999952e-01 2.811299999999999910e-02 -2.530100000000000057e-02 -6.173900000000000221e-02 1.864000000000000032e-02 -5.326000000000000005e-03 -5.351199999999999707e-02 -2.328099999999999961e-02 9.171999999999999598e-03 -5.360899999999999693e-02 -2.946800000000000114e-02 -1.866500000000000103e-02 -2.518600000000000005e-02 2.993200000000000027e-02 -1.724999999999999971e-03 -7.958899999999999308e-02 3.463299999999999712e-02 -5.261000000000000051e-03 -8.593299999999999550e-02 -5.859099999999999725e-02 -7.451900000000000190e-02 -3.053300000000000111e-02 3.927900000000000141e-02 9.693999999999999492e-03 1.082010000000000055e-01 -5.426000000000000267e-03 4.981800000000000117e-02 1.542999999999999927e-02 7.277999999999999747e-03 1.975599999999999926e-02 1.249600000000000016e-02 1.283499999999999919e-02 -2.000100000000000142e-02 -1.618000000000000081e-03 4.365800000000000236e-02 -1.281500000000000000e-02 1.873999999999999971e-02 9.079000000000000264e-03 2.539500000000000091e-02 7.600700000000000511e-02 4.174400000000000333e-02 -7.070099999999999996e-02 9.982699999999999907e-02 -6.961699999999999833e-02 -4.420000000000000101e-04 1.915599999999999942e-02 -1.988900000000000043e-02 5.935200000000000198e-02 3.760999999999999760e-02 -1.122199999999999934e-02 5.793299999999999839e-02 5.544999999999999582e-03 -2.532900000000000082e-02 1.124200000000000026e-02 -3.416000000000000286e-02 -3.124599999999999947e-02 -1.847400000000000084e-02 1.115299999999999972e-02 -1.997099999999999917e-02 -2.068700000000000053e-02 6.849000000000000053e-03 -7.073300000000000420e-02 1.256299999999999951e-02 6.080000000000000335e-03 2.212599999999999983e-02 2.297799999999999843e-02 -6.468000000000000138e-02 -3.746499999999999830e-02 -4.997999999999999665e-02 1.516999999999999902e-03 -2.622199999999999878e-02 4.476600000000000024e-02 4.259999999999999898e-02 -2.330499999999999933e-02 -1.261499999999999948e-02 -3.824600000000000222e-02 -3.641799999999999898e-02 -9.541600000000000081e-02 -1.151409999999999934e-01 -7.267400000000000249e-02 5.709299999999999792e-02 -6.799299999999999788e-02 -1.223600000000000035e-02 -1.223769999999999997e-01 1.228650000000000020e-01 3.583999999999999946e-03 -7.365599999999999925e-02 9.382400000000000462e-02 1.160399999999999973e-02 4.345299999999999857e-02 4.061999999999999639e-03 -5.344700000000000145e-02 -5.108999999999999826e-03 -6.626500000000000445e-02 6.792900000000000327e-02 -4.819799999999999779e-02 -7.231100000000000028e-02 -4.852000000000000063e-02 1.125629999999999964e-01 -3.610399999999999721e-02 5.919200000000000156e-02 2.259800000000000003e-02 2.480299999999999866e-02 2.319399999999999934e-02 -5.880500000000000310e-02 -8.146899999999999975e-02 8.432499999999999718e-02 -1.285900000000000064e-02 5.788200000000000289e-02 4.377799999999999747e-02 4.841700000000000170e-02 1.652500000000000149e-02 -1.499799999999999918e-02 2.310100000000000001e-02 -6.309099999999999431e-02 6.218800000000000022e-02 -4.501000000000000140e-02 7.413599999999999357e-02 3.579899999999999749e-02 4.897800000000000070e-02 3.093600000000000169e-02 -2.578300000000000036e-02 4.349000000000000088e-02 7.995099999999999429e-02 -9.572799999999999365e-02 -1.768700000000000133e-02 3.106499999999999886e-02 9.020300000000000540e-02 5.643700000000000105e-02 2.161899999999999933e-02 -1.597300000000000109e-02
-9.559700000000000142e-02 7.995800000000000129e-02 2.267999999999999877e-02 -2.001299999999999954e-02 -7.393600000000000172e-02 -1.346630000000000049e-01 6.819999999999999890e-04 -3.254100000000000048e-02 4.811700000000000005e-02 -8.846400000000000097e-02 -3.129999999999999970e-03 6.687099999999999989e-02 -3.485300000000000203e-02 -1.089799999999999970e-02 -3.737599999999999950e-02 1.219060000000000005e-01 7.118599999999999928e-02 -9.422800000000000620e-02 5.096300000000000135e-02 6.762700000000000655e-02 3.207900000000000335e-02 8.276500000000000523e-02 6.198499999999999843e-02 -2.181699999999999959e-02 5.520499999999999713e-02 8.554699999999999804e-02 1.108600000000000002e-01 -2.628199999999999981e-02 -3.585900000000000198e-02 8.840299999999999547e-02 9.403999999999999165e-03 -1.497410000000000130e-01 4.117500000000000326e-02 -3.768900000000000028e-02 -7.357099999999999751e-02 2.773400000000000171e-02 -8.030000000000000679e-03 -6.120300000000000046e-02 -3.487500000000000322e-02 1.367200000000000013e-02 -6.142199999999999743e-02 -4.378699999999999953e-02 -2.768999999999999934e-02 -1.891299999999999926e-02 4.445999999999999952e-02 -2.582000000000000094e-03 -9.986899999999999944e-02 5.145399999999999974e-02 -8.139999999999999666e-03 -1.101189999999999947e-01 -8.782700000000000229e-02 -1.109679999999999972e-01 -2.698400000000000104e-02 5.801800000000000013e-02 1.475100000000000022e-02 1.423770000000000036e-01 -7.988000000000000309e-03 7.428600000000000481e-02 3.549000000000000071e-03 1.114399999999999939e-02 2.944599999999999995e-02 -4.679999999999999915e-04 1.958199999999999871e-02 -3.017799999999999996e-02 -2.177400000000000169e-02 6.586400000000000587e-02 -1.894699999999999857e-02 8.628000000000000252e-03 1.372600000000000035e-02 3.791599999999999832e-02 9.455700000000000216e-02 6.281599999999999684e-02 -1.044930000000000025e-01 1.290360000000000118e-01 -1.028670000000000001e-01 -7.410000000000000137e-04 9.424999999999999351e-03 -2.947299999999999920e-02 8.863000000000000045e-02 3.669399999999999745e-02 -1.628200000000000133e-02 8.604199999999999349e-02 7.601000000000000117e-03 -3.719800000000000190e-02 1.688600000000000170e-02 -5.137900000000000106e-02 -4.651199999999999779e-02 -2.742199999999999846e-02 1.657000000000000139e-02 -2.978199999999999945e-02 -3.079899999999999999e-02 9.603000000000000425e-03 -1.051750000000000046e-01 1.877300000000000149e-02 8.725000000000000117e-03 3.317400000000000210e-02 3.457699999999999663e-02 -9.636899999999999633e-02 -5.556699999999999834e-02 -7.433199999999999530e-02 1.881999999999999992e-03 -3.892199999999999827e-02 6.634700000000000319e-02 6.320299999999999530e-02 -3.432500000000000134e-02 -1.870499999999999940e-02 -5.709399999999999892e-02 -5.422600000000000336e-02 -1.415049999999999919e-01 -1.760750000000000093e-01 -1.074760000000000021e-01 8.489599999999999924e-02 -1.061850000000000016e-01 -1.753899999999999904e-02 -1.826260000000000105e-01 1.781169999999999976e-01 5.570000000000000298e-03 -1.106449999999999934e-01 1.349499999999999866e-01 1.778599999999999973e-02 6.426400000000000168e-02 1.672000000000000092e-03 -7.913900000000000101e-02 -7.248000000000000102e-03 -1.043189999999999951e-01 1.014980000000000049e-01 -7.190100000000000657e-02 -1.127009999999999956e-01 -7.192800000000000582e-02 1.670570000000000110e-01 -5.819099999999999967e-02 8.682499999999999940e-02 3.350800000000000306e-02 3.174600000000000338e-02 3.447399999999999770e-02 -8.731899999999999384e-02 -1.155909999999999993e-01 1.248660000000000048e-01 -1.927200000000000094e-02 9.108800000000000230e-02 6.472700000000000675e-02 7.187499999999999445e-02 2.991800000000000015e-02 -2.216399999999999967e-02 3.433900000000000147e-02 -8.845200000000000284e-02 9.220299999999999330e-02 -6.725399999999999434e-02 1.157109999999999944e-01 5.324000000000000260e-02 7.260500000000000287e-02 5.131899999999999656e-02 -3.745600000000000318e-02 6.457799999999999652e-02 1.238540000000000058e-01 -1.419040000000000024e-01 -2.549999999999999836e-02 5.196900000000000130e-02 1.344359999999999999e-01 8.387899999999999523e-02 3.736300000000000038e-02 -2.351400000000000018e-02
-1.260680000000000134e-01 1.061590000000000034e-01 2.896400000000000016e-02 -2.665800000000000114e-02 -9.818899999999999850e-02 -1.790640000000000009e-01 9.190000000000000035e-04 -4.234299999999999869e-02 6.313299999999999468e-02 -1.164229999999999987e-01 -3.851999999999999955e-03 8.786900000000000266e-02 -4.636200000000000043e-02 -1.391599999999999955e-02 -4.958499999999999713e-02 1.618719999999999881e-01 9.480700000000000238e-02 -1.266289999999999916e-01 6.770900000000000529e-02 8.999300000000000355e-02 4.203899999999999998e-02 1.096229999999999982e-01 8.290599999999999359e-02 -2.939100000000000046e-02 7.206300000000000205e-02 1.129470000000000057e-01 1.451780000000000015e-01 -3.446400000000000158e-02 -3.514899999999999969e-02 1.164950000000000013e-01 1.241100000000000016e-02 -1.847090000000000121e-01 5.361400000000000193e-02 -4.979399999999999799e-02 -8.532800000000000107e-02 3.670299999999999951e-02 -1.078600000000000045e-02 -6.869500000000000606e-02 -4.628100000000000269e-02 1.803599999999999995e-02 -6.921499999999999875e-02 -5.751900000000000068e-02 -3.643699999999999717e-02 -1.263300000000000013e-02 5.864400000000000168e-02 -3.428000000000000057e-03 -1.196399999999999963e-01 6.783699999999999453e-02 -1.120499999999999968e-02 -1.343000000000000027e-01 -1.166029999999999983e-01 -1.467430000000000123e-01 -2.340599999999999972e-02 7.609899999999999998e-02 2.002800000000000066e-02 1.758560000000000123e-01 -1.064700000000000021e-02 9.820299999999999863e-02 -8.451000000000000179e-03 1.495900000000000007e-02 3.883199999999999846e-02 -1.315900000000000056e-02 2.652600000000000097e-02 -4.043200000000000266e-02 -4.174400000000000333e-02 8.825700000000000212e-02 -2.478400000000000047e-02 -1.588999999999999918e-03 1.840299999999999922e-02 5.016299999999999926e-02 1.129620000000000068e-01 8.383599999999999386e-02 -1.370470000000000022e-01 1.571160000000000057e-01 -1.350429999999999964e-01 -1.111999999999999924e-03 -2.410000000000000033e-04 -3.876099999999999685e-02 1.174469999999999958e-01 3.552799999999999708e-02 -2.093799999999999828e-02 1.133630000000000054e-01 9.395999999999999838e-03 -4.837799999999999739e-02 2.255300000000000013e-02 -6.838500000000000134e-02 -6.135399999999999882e-02 -3.605099999999999971e-02 2.220700000000000104e-02 -3.930100000000000260e-02 -4.071999999999999925e-02 1.205200000000000021e-02 -1.387210000000000110e-01 2.488699999999999940e-02 1.133200000000000006e-02 4.427999999999999992e-02 4.628999999999999782e-02 -1.272419999999999940e-01 -7.308900000000000119e-02 -9.799399999999999777e-02 2.262999999999999821e-03 -5.127600000000000213e-02 8.726499999999999535e-02 8.353499999999999814e-02 -4.481899999999999773e-02 -2.455900000000000097e-02 -7.534299999999999331e-02 -7.161199999999999510e-02 -1.861130000000000007e-01 -2.351530000000000009e-01 -1.407990000000000075e-01 1.118999999999999995e-01 -1.433260000000000089e-01 -2.221000000000000058e-02 -2.415090000000000015e-01 2.321699999999999875e-01 7.721000000000000432e-03 -1.474159999999999915e-01 1.752499999999999891e-01 2.421099999999999988e-02 8.437600000000000655e-02 -1.659999999999999963e-04 -1.038660000000000000e-01 -9.171000000000000332e-03 -1.417640000000000011e-01 1.343920000000000115e-01 -9.507599999999999385e-02 -1.520940000000000070e-01 -9.445099999999999330e-02 2.198559999999999959e-01 -7.926400000000000112e-02 1.129060000000000064e-01 4.397999999999999826e-02 3.834100000000000008e-02 4.544200000000000322e-02 -1.149329999999999935e-01 -1.485579999999999956e-01 1.638459999999999916e-01 -2.558900000000000063e-02 1.231980000000000020e-01 8.472699999999999676e-02 9.464799999999999602e-02 4.294499999999999706e-02 -2.916399999999999895e-02 4.517399999999999888e-02 -1.130189999999999945e-01 1.210799999999999932e-01 -8.911099999999999577e-02 1.562070000000000125e-01 7.003099999999999603e-02 9.547899999999999443e-02 7.121500000000000052e-02 -4.821299999999999891e-02 8.505699999999999372e-02 1.663479999999999959e-01 -1.865370000000000084e-01 -3.256400000000000267e-02 7.261199999999999599e-02 1.775190000000000101e-01 1.105000000000000010e-01 5.265199999999999741e-02 -3.078200000000000033e-02
-1.557189999999999963e-01 1.316430000000000100e-01 3.454100000000000226e-02 -3.344699999999999757e-02 -1.223019999999999941e-01 -2.227079999999999893e-01 1.106999999999999911e-03 -5.170500000000000096e-02 7.741800000000000070e-02 -1.433619999999999894e-01 -4.492000000000000333e-03 1.081430000000000030e-01 -5.770200000000000329e-02 -1.674300000000000094e-02 -6.157699999999999979e-02 2.011040000000000050e-01 1.178870000000000057e-01 -1.591410000000000047e-01 8.437799999999999467e-02 1.118590000000000001e-01 5.155599999999999766e-02 1.359760000000000135e-01 1.035739999999999994e-01 -3.699700000000000211e-02 8.801200000000000689e-02 1.393560000000000076e-01 1.778740000000000043e-01 -4.227399999999999908e-02 -3.440900000000000208e-02 1.436659999999999882e-01 1.528799999999999951e-02 -2.181319999999999926e-01 6.545900000000000329e-02 -6.154899999999999954e-02 -9.700000000000000289e-02 4.555200000000000221e-02 -1.361799999999999990e-02 -7.592799999999999550e-02 -5.738800000000000151e-02 2.220799999999999857e-02 -7.700899999999999412e-02 -7.044400000000000661e-02 -4.485200000000000298e-02 -6.331999999999999955e-03 7.242899999999999339e-02 -4.246999999999999907e-03 -1.388340000000000130e-01 8.370500000000000163e-02 -1.447299999999999975e-02 -1.584019999999999873e-01 -1.446149999999999936e-01 -1.817380000000000106e-01 -1.974000000000000060e-02 9.347199999999999953e-02 2.556699999999999945e-02 2.083909999999999929e-01 -1.353099999999999963e-02 1.213739999999999958e-01 -2.056699999999999848e-02 1.861000000000000154e-02 4.778000000000000302e-02 -2.545800000000000146e-02 3.365900000000000142e-02 -5.072499999999999926e-02 -6.142000000000000237e-02 1.107830000000000065e-01 -3.024500000000000105e-02 -1.193100000000000063e-02 2.312300000000000119e-02 6.203199999999999686e-02 1.311609999999999998e-01 1.046779999999999933e-01 -1.682389999999999997e-01 1.839079999999999881e-01 -1.661330000000000029e-01 -1.556000000000000091e-03 -9.828999999999999196e-03 -4.767099999999999810e-02 1.456620000000000137e-01 3.411899999999999655e-02 -2.516499999999999987e-02 1.397400000000000031e-01 1.094400000000000060e-02 -5.883200000000000235e-02 2.825099999999999834e-02 -8.511299999999999422e-02 -7.568600000000000327e-02 -4.427500000000000185e-02 2.814200000000000035e-02 -4.843999999999999695e-02 -5.042599999999999860e-02 1.415800000000000045e-02 -1.712110000000000021e-01 3.086399999999999907e-02 1.390699999999999922e-02 5.544099999999999723e-02 5.813399999999999818e-02 -1.571680000000000021e-01 -8.996600000000000430e-02 -1.207690000000000013e-01 2.700999999999999842e-03 -6.328499999999999404e-02 1.074299999999999977e-01 1.035689999999999944e-01 -5.475300000000000306e-02 -3.011799999999999894e-02 -9.285100000000000298e-02 -8.851499999999999646e-02 -2.289549999999999919e-01 -2.919240000000000168e-01 -1.723550000000000082e-01 1.378759999999999986e-01 -1.791580000000000117e-01 -2.625500000000000056e-02 -2.984820000000000251e-01 2.846119999999999761e-01 1.000000000000000021e-02 -1.836929999999999952e-01 2.143930000000000002e-01 3.082999999999999977e-02 1.037359999999999949e-01 -1.456999999999999962e-03 -1.274450000000000027e-01 -1.093500000000000028e-02 -1.782700000000000118e-01 1.662520000000000109e-01 -1.175289999999999946e-01 -1.902129999999999932e-01 -1.158880000000000049e-01 2.706180000000000252e-01 -9.918399999999999439e-02 1.372309999999999919e-01 5.389599999999999946e-02 4.446499999999999758e-02 5.598000000000000198e-02 -1.414390000000000092e-01 -1.801190000000000013e-01 2.009610000000000007e-01 -3.175599999999999951e-02 1.539810000000000068e-01 1.035999999999999976e-01 1.165970000000000062e-01 5.549500000000000266e-02 -3.598699999999999816e-02 5.547499999999999654e-02 -1.365830000000000100e-01 1.485569999999999946e-01 -1.104200000000000043e-01 1.952849999999999864e-01 8.597799999999999887e-02 1.174830000000000041e-01 9.052300000000000624e-02 -5.796400000000000163e-02 1.048150000000000054e-01 2.071340000000000126e-01 -2.292720000000000036e-01 -3.885600000000000165e-02 9.281599999999999573e-02 2.190580000000000027e-01 1.360760000000000025e-01 6.740699999999999470e-02 -3.771399999999999753e-02
-1.845040000000000013e-01 1.562709999999999932e-01 3.940699999999999759e-02 -4.046299999999999897e-02 -1.461669999999999914e-01 -2.652550000000000185e-01 1.231000000000000106e-03 -6.056399999999999978e-02 9.088300000000000545e-02 -1.691590000000000038e-01 -4.957999999999999734e-03 1.276780000000000137e-01 -6.882499999999999729e-02 -1.931000000000000077e-02 -7.328999999999999404e-02 2.393879999999999897e-01 1.402680000000000038e-01 -1.914829999999999866e-01 1.010069999999999996e-01 1.331239999999999923e-01 6.060000000000000109e-02 1.617639999999999911e-01 1.238979999999999942e-01 -4.455499999999999738e-02 1.029810000000000031e-01 1.646809999999999941e-01 2.088260000000000116e-01 -4.968000000000000194e-02 -3.364600000000000229e-02 1.698060000000000125e-01 1.801200000000000023e-02 -2.498329999999999995e-01 7.675300000000000178e-02 -7.287899999999999934e-02 -1.085829999999999990e-01 5.428800000000000292e-02 -1.653999999999999915e-02 -8.285499999999999809e-02 -6.809400000000000175e-02 2.613100000000000145e-02 -8.483000000000000262e-02 -8.237899999999999390e-02 -5.290299999999999864e-02 1.000000000000000082e-05 8.578800000000000314e-02 -5.035000000000000413e-03 -1.573930000000000051e-01 9.899499999999999966e-02 -1.795700000000000074e-02 -1.823649999999999993e-01 -1.715800000000000103e-01 -2.158499999999999863e-01 -1.592899999999999872e-02 1.100819999999999993e-01 3.144600000000000173e-02 2.397610000000000019e-01 -1.678500000000000131e-02 1.436139999999999917e-01 -3.276300000000000046e-02 2.195700000000000082e-02 5.616399999999999865e-02 -3.726899999999999658e-02 4.098399999999999960e-02 -6.102799999999999891e-02 -8.069800000000000584e-02 1.334249999999999881e-01 -3.525500000000000161e-02 -2.242500000000000049e-02 2.787099999999999994e-02 7.341799999999999715e-02 1.490920000000000023e-01 1.252189999999999970e-01 -1.979789999999999883e-01 2.092690000000000106e-01 -1.961340000000000028e-01 -2.080999999999999951e-03 -1.932299999999999990e-02 -5.615699999999999859e-02 1.731370000000000131e-01 3.245800000000000074e-02 -2.892799999999999885e-02 1.650389999999999913e-01 1.225799999999999980e-02 -6.852300000000000058e-02 3.399800000000000044e-02 -1.015210000000000001e-01 -8.942700000000000649e-02 -5.201200000000000268e-02 3.446699999999999764e-02 -5.711600000000000010e-02 -5.989300000000000179e-02 1.588600000000000081e-02 -2.025139999999999996e-01 3.666500000000000314e-02 1.646099999999999994e-02 6.667099999999999416e-02 7.013400000000000190e-02 -1.860630000000000062e-01 -1.061560000000000004e-01 -1.424769999999999925e-01 3.253999999999999948e-03 -7.499000000000000110e-02 1.267719999999999958e-01 1.232980000000000048e-01 -6.409199999999999620e-02 -3.532199999999999923e-02 -1.094890000000000030e-01 -1.048790000000000000e-01 -2.697840000000000238e-01 -3.459889999999999910e-01 -2.018880000000000119e-01 1.626229999999999898e-01 -2.134199999999999986e-01 -2.966900000000000093e-02 -3.530010000000000092e-01 3.350580000000000225e-01 1.237399999999999958e-02 -2.191859999999999919e-01 2.520350000000000090e-01 3.755700000000000011e-02 1.222840000000000038e-01 -2.201999999999999964e-03 -1.497290000000000010e-01 -1.259200000000000076e-02 -2.135180000000000133e-01 1.967389999999999972e-01 -1.390810000000000102e-01 -2.268259999999999998e-01 -1.360810000000000075e-01 3.190160000000000218e-01 -1.178020000000000039e-01 1.596470000000000111e-01 6.314100000000000268e-02 5.000099999999999684e-02 6.600599999999999523e-02 -1.666459999999999886e-01 -2.100460000000000105e-01 2.359380000000000088e-01 -3.772299999999999959e-02 1.832380000000000120e-01 1.211880000000000041e-01 1.376050000000000051e-01 6.746800000000000019e-02 -4.263200000000000323e-02 6.511899999999999633e-02 -1.589780000000000082e-01 1.744010000000000005e-01 -1.310219999999999996e-01 2.326340000000000074e-01 1.008789999999999965e-01 1.384970000000000090e-01 1.091580000000000050e-01 -6.662600000000000466e-02 1.237440000000000068e-01 2.459500000000000020e-01 -2.697939999999999783e-01 -4.435100000000000153e-02 1.124050000000000049e-01 2.586780000000000190e-01 1.603940000000000088e-01 8.156299999999999661e-02 -4.431100000000000316e-02