1.217886825380938981e-01 0.000000000000000000e+00 0.000000000000000000e+00 0.000000000000000000e+00 3.855104562775982235e-01 -1.980191755013587462e+00 0.000000000000000000e+00 -1.980191755013587462e+00 -2.992005258018265446e-01
3.376087161078267923e-02 -6.021623056449186724e-03 1.771948478382749936e-01 -6.021623056449186724e-03 2.676638573019846090e-01 -1.997876882188384329e+00 1.771948478382749936e-01 -1.997876882188384329e+00 -5.672441250983619732e-01
-4.229602501211605914e-02 -1.394195608565262055e-02 3.536663775916912833e-01 -1.394195608565262055e-02 1.595278036155997892e-01 -2.018039373803822478e+00 3.536663775916912833e-01 -2.018039373803822478e+00 -8.175302654116147760e-01
-1.061650119051446711e-01 -2.359825251851708355e-02 5.291795108826696792e-01 -2.359825251851708355e-02 6.168094968633085901e-02 -2.040624981003536842e+00 5.291795108826696792e-01 -2.040624981003536842e+00 -1.049082467327025814e+00
-1.582981628713398814e-01 -3.479159988170641565e-02 7.034630034293881673e-01 -3.479159988170641565e-02 -2.612986581552274520e-02 -2.065597537883285817e+00 7.034630034293881673e-01 -2.065597537883285817e+00 -1.262027311509445138e+00
-1.995634596125322180e-01 -4.728691979764151204e-02 8.763179427585106041e-01 -4.728691979764151204e-02 -1.044290485014836428e-01 -2.092866629682461177e+00 8.763179427585106041e-01 -2.092866629682461177e+00 -1.456979618331002646e+00
-2.308831326869165423e-01 -6.081296798450034485e-02 1.047527333444579378e+00 -6.081296798450034485e-02 -1.737771698873173676e-01 -2.122450339353184390e+00 1.047527333444579378e+00 -2.122450339353184390e+00 -1.635060530823229552e+00
-2.536134035036031742e-01 -7.508041720833941168e-02 1.217036926631230198e+00 -7.508041720833941168e-02 -2.352230411960691270e-01 -2.154276335086970029e+00 1.217036926631230198e+00 -2.154276335086970029e+00 -1.798006012389787189e+00
-2.690924105195806049e-01 -8.978185728309373559e-02 1.384756307557855282e+00 -8.978185728309373559e-02 -2.897612247944197361e-01 -2.188344616883817650e+00 1.384756307557855282e+00 -2.188344616883817650e+00 -1.947678607099186276e+00
-2.788752876172953532e-01 -1.045917950705768651e-01 1.550830139841427036e+00 -1.045917950705768651e-01 -3.387117761872364130e-01 -2.224637101791605787e+00 1.550830139841427036e+00 -2.224637101791605787e+00 -2.086248269206003592e+00
-8.483736987483084135e+00 1.245084911723598964e+01 -1.975371451955759738e+01 1.245084911723598964e+01 2.392811767674862722e+01 1.229458439952209758e+01 -1.975371451955759738e+01 1.229458439952209758e+01 2.132846053407763875e+01
-8.531273247962765538e+00 1.246642010617323315e+01 -1.971967311615686214e+01 1.246642010617323315e+01 2.373093884327549219e+01 1.230532301258226724e+01 -1.971967311615686214e+01 1.230532301258226724e+01 2.102717084698616290e+01
-8.585556936981920018e+00 1.247155674275368220e+01 -1.964781389709590087e+01 1.247155674275368220e+01 2.348985698007470191e+01 1.228173385922676175e+01 -1.964781389709590087e+01 1.228173385922676175e+01 2.064083134445814949e+01
-8.646462770721511149e+00 1.246650959461540076e+01 -1.953815476006314000e+01 1.246650959461540076e+01 2.320685873056238435e+01 1.222433597242015857e+01 -1.953815476006314000e+01 1.222433597242015857e+01 2.017198349825117987e+01
-8.714778247472619199e+00 1.245145763864273114e+01 -1.939074939812388720e+01 1.245145763864273114e+01 2.288342960287852890e+01 1.213348730593112990e+01 -1.939074939812388720e+01 1.213348730593112990e+01 1.962257815640450076e+01
-8.791505637787526695e+00 1.242674093091590848e+01 -1.920566940203187656e+01 1.242674093091590848e+01 2.252107300285156199e+01 1.200961740428208024e+01 -1.920566940203187656e+01 1.200961740428208024e+01 1.899478093921859312e+01
-8.878094654429354193e+00 1.239286060671107670e+01 -1.898311164635987680e+01 1.239286060671107670e+01 2.212132813168677714e+01 1.185324530043758706e+01 -1.898311164635987680e+01 1.185324530043758706e+01 1.829059638779801844e+01
-8.976012907849661104e+00 1.235031780130437262e+01 -1.872329090336909019e+01 1.235031780130437262e+01 2.168580578134319126e+01 1.166478264123162312e+01 -1.872329090336909019e+01 1.166478264123162312e+01 1.751219012244323991e+01
-9.086906985384340274e+00 1.229972103610254486e+01 -1.842640404763228545e+01 1.229972103610254486e+01 2.121611674377983547e+01 1.144480215269406287e+01 -1.842640404763228545e+01 1.144480215269406287e+01 1.666181725189689544e+01
-9.212512962811448602e+00 1.224176832095449896e+01 -1.809275533985283957e+01 1.224176832095449896e+01 2.071403289015163551e+01 1.119380497010104847e+01 -1.809275533985283957e+01 1.119380497010104847e+01 1.574180447565535523e+01
-2.375787971427844525e+01 -1.251404092943649360e+01 -1.861301823912596376e+01 -1.251404092943649360e+01 -1.443499364556932107e+01 1.673713011198753486e+00 -1.861301823912596376e+01 1.673713011198753486e+00 -3.486781175889242945e+01
-2.373534741978124885e+01 -1.243721102791831612e+01 -1.877979079301623955e+01 -1.243721102791831612e+01 -1.436299475752363897e+01 1.673190739471997146e+00 -1.877979079301623955e+01 1.673190739471997146e+00 -3.472224716762079311e+01
-2.365991646038830964e+01 -1.235012221748170980e+01 -1.892332225506585885e+01 -1.235012221748170980e+01 -1.424110026701106335e+01 1.662857220306891204e+00 -1.892332225506585885e+01 1.662857220306891204e+00 -3.444557372037167653e+01
-2.353169875146965140e+01 -1.225368847364850389e+01 -1.904420950724825801e+01 -1.225368847364850389e+01 -1.406951535220996519e+01 1.642619190895086456e+00 -1.904420950724825801e+01 1.642619190895086456e+00 -3.404001107198377696e+01
-2.335162692110876037e+01 -1.214878646681717633e+01 -1.914269503286515217e+01 -1.214878646681717633e+01 -1.384956434499890499e+01 1.612607219168272099e+00 -1.914269503286515217e+01 1.612607219168272099e+00 -3.350880476818765885e+01
-2.312115586911589915e+01 -1.203623690970120386e+01 -1.921881613703987668e+01 -1.203623690970120386e+01 -1.358301923873651873e+01 1.572821305126447688e+00 -1.921881613703987668e+01 1.572821305126447688e+00 -3.285521900727555078e+01
-2.284147935943792618e+01 -1.191700973550742049e+01 -1.927251686208741788e+01 -1.191700973550742049e+01 -1.327135358579472602e+01 1.523317406454623102e+00 -1.927251686208741788e+01 1.523317406454623102e+00 -3.208330139512980850e+01
-2.251550719169534531e+01 -1.179177643645593854e+01 -1.930357337726774603e+01 -1.179177643645593854e+01 -1.291786888958909429e+01 1.464058218029458569e+00 -1.930357337726774603e+01 1.464058218029458569e+00 -3.119547676476752684e+01
-2.214461965545172717e+01 -1.166150694575359559e+01 -1.931150071597744144e+01 -1.166150694575359559e+01 -1.252435579603992899e+01 1.395099697535963745e+00 -1.931150071597744144e+01 1.395099697535963745e+00 -3.019752741030635335e+01
-2.173167059264256196e+01 -1.152713389148387968e+01 -1.929581391161308446e+01 -1.152713389148387968e+01 -1.209402254575444857e+01 1.316535107782487835e+00 -1.929581391161308446e+01 1.316535107782487835e+00 -2.909422838753377150e+01
2.693124371846298004e+01 7.669023350286845897e+00 -8.805522560672223165e+00 7.669023350286845897e+00 1.512033639523918893e+01 4.031620147960830458e+00 -8.805522560672223165e+00 4.031620147960830458e+00 2.983275650663989254e+01
2.688870181473537002e+01 7.840546812294561185e+00 -8.858840807562621933e+00 7.840546812294561185e+00 1.523575948254650569e+01 4.086646410025721821e+00 -8.858840807562621933e+00 4.086646410025721821e+00 2.992299957642631369e+01
2.680375887451103623e+01 7.999709174792019262e+00 -8.892191124474910779e+00 7.999709174792019262e+00 1.532357259260014359e+01 4.125578590961874070e+00 -8.892191124474910779e+00 4.125578590961874070e+00 2.990768026506744803e+01
2.667569295323169243e+01 8.145172199085800813e+00 -8.905749595447698397e+00 8.145172199085800813e+00 1.538171554214839176e+01 4.148592774807894124e+00 -8.905749595447698397e+00 4.148592774807894124e+00 2.978399883634943279e+01
2.650406384080081423e+01 8.275650471694072863e+00 -8.899657087711874581e+00 8.275650471694072863e+00 1.540814575634340144e+01 4.155812220390807887e+00 -8.899657087711874581e+00 4.155812220390807887e+00 2.955021205829005027e+01
2.628850176073732214e+01 8.389876187538858332e+00 -8.873931209671296116e+00 8.389876187538858332e+00 1.540075022672187721e+01 4.147254536114476586e+00 -8.873931209671296116e+00 4.147254536114476586e+00 2.920484082496500022e+01
2.602835520209837483e+01 8.486863276003951739e+00 -8.828695220152990686e+00 8.486863276003951739e+00 1.535722225237806526e+01 4.122919721978898444e+00 -8.828695220152990686e+00 4.122919721978898444e+00 2.874652928927699946e+01
2.572284939511409974e+01 8.565854575723346187e+00 -8.763843468733790942e+00 8.565854575723346187e+00 1.527518469879075980e+01 4.082702127560910554e+00 -8.763843468733790942e+00 4.082702127560910554e+00 2.817293553351256818e+01
2.537099826916828604e+01 8.626145750542606905e+00 -8.679323130202117653e+00 8.626145750542606905e+00 1.515201391378470852e+01 4.026408060418043000e+00 -8.679323130202117653e+00 4.026408060418043000e+00 2.748231632568949223e+01
2.497223835533739233e+01 8.667208548345911368e+00 -8.574993337327084575e+00 8.667208548345911368e+00 1.498550884687730900e+01 3.953773394492386739e+00 -8.574993337327084575e+00 3.953773394492386739e+00 2.667217127245953989e+01
4.976154441894495051e+01 7.678871630019432182e+00 1.282402704035700758e+01 7.678871630019432182e+00 -5.516330844631722741e+00 1.361643290582756627e-01 1.282402704035700758e+01 1.361643290582756627e-01 5.242356494714415760e+01
4.959599273630175276e+01 7.694661849856108127e+00 1.279546428714133022e+01 7.694661849856108127e+00 -5.554929159788044579e+00 3.114884033115096762e-01 1.279546428714133022e+01 3.114884033115096762e-01 5.217406192903595752e+01
4.931397941001870322e+01 7.689398443243882220e+00 1.272488200447138418e+01 7.689398443243882220e+00 -5.635599638464754868e+00 4.641271950660513790e-01 1.272488200447138418e+01 4.641271950660513790e-01 5.171074178965044865e+01
4.891771507087294424e+01 7.663098954871461643e+00 1.261231528172458560e+01 7.663098954871461643e+00 -5.758851076634369903e+00 5.932034698865299438e-01 1.261231528172458560e+01 5.932034698865299438e-01 5.103613096416150086e+01
4.841046303096405978e+01 7.616254636022653735e+00 1.245834309362828130e+01 7.616254636022653735e+00 -5.925402806533895728e+00 6.981031636681857000e-01 1.245834309362828130e+01 6.981031636681857000e-01 5.015519459947330461e+01
4.779652173902536560e+01 7.549725176444122887e+00 1.226393039806137431e+01 7.549725176444122887e+00 -6.135921526334211507e+00 7.784402932594554070e-01 1.226393039806137431e+01 7.784402932594554070e-01 4.907423123883182825e+01
4.708031245661112507e+01 7.464580802147019689e+00 1.203062112763012337e+01 7.464580802147019689e+00 -6.392091526151229885e+00 8.343903055474133357e-01 1.203062112763012337e+01 8.343903055474133357e-01 4.780052192805065658e+01
4.626969520426226268e+01 7.362505803247259450e+00 1.176022238527138875e+01 7.362505803247259450e+00 -6.692702222464139261e+00 8.663216389949150997e-01 1.176022238527138875e+01 8.663216389949150997e-01 4.634359343309790802e+01
4.537123169555535185e+01 7.245307282681702432e+00 1.145527815084774659e+01 7.245307282681702432e+00 -7.039034377548582633e+00 8.749887152163798865e-01 1.145527815084774659e+01 8.749887152163798865e-01 4.471525332947368270e+01
4.439371181953281820e+01 7.115108147783949732e+00 1.111870084268462833e+01 7.115108147783949732e+00 -7.430702008252994872e+00 8.615319389777897907e-01 1.111870084268462833e+01 8.615319389777897907e-01 4.292797589084894838e+01
2.359396173813751574e+01 9.142688284334344218e+00 -3.348067278173430417e+00 9.142688284334344218e+00 1.555644979385807147e+01 7.775782770653002274e+00 -3.348067278173430417e+00 7.775782770653002274e+00 4.400869672696984480e+01
2.348434716377654752e+01 9.121517333524121085e+00 -3.340934161136957847e+00 9.121517333524121085e+00 1.540711113669053844e+01 7.753048156255967882e+00 -3.340934161136957847e+00 7.753048156255967882e+00 4.365604666500904329e+01
2.330881274921644675e+01 9.087099165360450925e+00 -3.328389713934884586e+00 9.087099165360450925e+00 1.521138964953214234e+01 7.698847008331044073e+00 -3.328389713934884586e+00 7.698847008331044073e+00 4.314028365091373729e+01
2.306790314132453545e+01 9.039802734172804222e+00 -3.310135259252876772e+00 9.039802734172804222e+00 1.497004081029562350e+01 7.613337450162292797e+00 -3.310135259252876772e+00 7.613337450162292797e+00 4.246414848827426880e+01
2.276225083323705434e+01 8.980190256082279276e+00 -3.285854550522814055e+00 8.980190256082279276e+00 1.468359169659450636e+01 7.496888436079184537e+00 -3.285854550522814055e+00 7.496888436079184537e+00 4.163099690456348867e+01
2.239245317958267023e+01 8.909034778255396247e+00 -3.255319187445499196e+00 8.909034778255396247e+00 1.435227070872799082e+01 7.350044612949035994e+00 -3.255319187445499196e+00 7.350044612949035994e+00 4.064437788904582760e+01
2.195935350454303148e+01 8.827214763381372009e+00 -3.218160215691459491e+00 8.827214763381372009e+00 1.397634138550284355e+01 7.173491181669440664e+00 -3.218160215691459491e+00 7.173491181669440664e+00 3.950713766083436695e+01
2.146295180811814518e+01 8.735837074448623341e+00 -3.174026250185006948e+00 8.735837074448623341e+00 1.355492526422984412e+01 6.968212020452326350e+00 -3.174026250185006948e+00 6.968212020452326350e+00 3.822423074949632138e+01
2.090660381778083021e+01 8.636008574445572350e+00 -3.122636182865590193e+00 8.636008574445572350e+00 1.309028877864718154e+01 6.734980176464205215e+00 -3.122636182865590193e+00 6.734980176464205215e+00 3.679973322190966911e+01
2.029143396577329383e+01 8.529064526659833945e+00 -3.063691336418874922e+00 8.529064526659833945e+00 1.258230894397836508e+01 6.475078205231340256e+00 -3.063691336418874922e+00 6.475078205231340256e+00 3.524039167152761820e+01
4.406481816162962417e+00 -4.889055942472451122e+00 1.705454861747317707e+01 -4.889055942472451122e+00 -3.366419888312228181e+01 1.497490921782344842e+01 1.705454861747317707e+01 1.497490921782344842e+01 -4.440268899186901308e+01
4.565718793785298324e+00 -4.922036219840989268e+00 1.701739456488963853e+01 -4.922036219840989268e+00 -3.345029290335344996e+01 1.500274680787350512e+01 1.701739456488963853e+01 1.500274680787350512e+01 -4.385044635873412489e+01
4.771724413325732606e+00 -4.954625205783122155e+00 1.695544008904195721e+01 -4.954625205783122155e+00 -3.317161887605182358e+01 1.501644200779772831e+01 1.695544008904195721e+01 1.501644200779772831e+01 -4.314826457758530864e+01
5.024722269885067760e+00 -4.986636571048179256e+00 1.686844296190426817e+01 -4.986636571048179256e+00 -3.282782277564113826e+01 1.501569669079504976e+01 1.686844296190426817e+01 1.501569669079504976e+01 -4.230149129791679741e+01
5.321507500351787101e+00 -5.017902619310556922e+00 1.675644044932670340e+01 -5.017902619310556922e+00 -3.242225852863344926e+01 1.499987733741319218e+01 1.675644044932670340e+01 1.499987733741319218e+01 -4.131277239508811050e+01
5.660719901195998105e+00 -5.048106590844117392e+00 1.661928348790872789e+01 -5.048106590844117392e+00 -3.195610000930795991e+01 1.496848085867534550e+01 1.661928348790872789e+01 1.496848085867534550e+01 -4.018868529164786452e+01
6.039657698282992371e+00 -5.076968991772855766e+00 1.645706524227567868e+01 -5.076968991772855766e+00 -3.143232848567540216e+01 1.492081783635403269e+01 1.645706524227567868e+01 1.492081783635403269e+01 -3.893575151136951717e+01
6.455060129726049034e+00 -5.104135796520500534e+00 1.626999067460328519e+01 -5.104135796520500534e+00 -3.085433515009794903e+01 1.485616158637164119e+01 1.626999067460328519e+01 1.485616158637164119e+01 -3.756250493393373802e+01
6.903927294589386143e+00 -5.129215713660642884e+00 1.605809705074169003e+01 -5.129215713660642884e+00 -3.022521306813673192e+01 1.477363636125002522e+01 1.605809705074169003e+01 1.477363636125002522e+01 -3.607744217317106461e+01
7.382476709084409450e+00 -5.151798818841812455e+00 1.582183156089249287e+01 -5.151798818841812455e+00 -2.954928507840728358e+01 1.467238504643610497e+01 1.582183156089249287e+01 1.467238504643610497e+01 -3.449105356589419813e+01
-4.823730158264861068e+00 -5.768870909055667795e+00 2.549976097521028384e-01 -5.768870909055667795e+00 1.009707786219292736e+01 -1.884553592921170662e+01 2.549976097521028384e-01 -1.884553592921170662e+01 3.383187996526849162e+01
-4.908233826369828634e+00 -5.588454323887940944e+00 4.515698347313350514e-01 -5.588454323887940944e+00 1.004017490467502149e+01 -1.885936315086856041e+01 4.515698347313350514e-01 -1.885936315086856041e+01 3.365873520910682970e+01
-5.016182874201248865e+00 -5.403291347866501226e+00 6.471032269954150040e-01 -5.403291347866501226e+00 9.939497685849666198e+00 -1.883335651117199205e+01 6.471032269954150040e-01 -1.883335651117199205e+01 3.338315796504938504e+01
-5.147559390850238614e+00 -5.214976051881841101e+00 8.415619647265788483e-01 -5.214976051881841101e+00 9.795529800256675301e+00 -1.876817871375063262e+01 8.415619647265788483e-01 -1.876817871375063262e+01 3.300477210400963202e+01
-5.302846970856611719e+00 -5.025209972277743908e+00 1.034587829747187993e+00 -5.025209972277743908e+00 9.608647376982570876e+00 -1.866483276950186720e+01 1.034587829747187993e+00 -1.866483276950186720e+01 3.252436570597838283e+01
-5.482815783302291024e+00 -4.835712556306876131e+00 1.225840514788485658e+00 -4.835712556306876131e+00 9.378796683300704373e+00 -1.852448288750303007e+01 1.225840514788485658e+00 -1.852448288750303007e+01 3.194276267276420711e+01
-5.688844968171184568e+00 -4.648203251221902477e+00 1.414908068946187036e+00 -4.648203251221902477e+00 9.105762788304492261e+00 -1.834870522773572077e+01 1.414908068946187036e+00 -1.834870522773572077e+01 3.126024957890920319e+01
-5.922062912722854122e+00 -4.464258217004434037e+00 1.601468095860417939e+00 -4.464258217004434037e+00 8.789366582905117298e+00 -1.813904012836379920e+01 1.601468095860417939e+00 -1.813904012836379920e+01 3.047775779167524846e+01
-6.184009955121148039e+00 -4.285453613636081016e+00 1.785198199171303068e+00 -4.285453613636081016e+00 8.429339403469350955e+00 -1.789729659118432537e+01 1.785198199171303068e+00 -1.789729659118432537e+01 2.959559179651332173e+01
-6.476065235349973470e+00 -4.113204402918515967e+00 1.965829715245613674e+00 -4.113204402918515967e+00 8.025484229999490182e+00 -1.762526570708550011e+01 1.965829715245613674e+00 -1.762526570708550011e+01 2.861445011886982570e+01
7.747062628103066118e+00 -1.206846749541689334e+01 -1.553995485652163211e+01 -1.206846749541689334e+01 -1.873858010862498347e+01 -3.456460066771283035e+00 -1.553995485652163211e+01 -3.456460066771283035e+00 -6.045130359800969799e+00
7.741044415566610937e+00 -1.212669826095902792e+01 -1.557666595299401280e+01 -1.212669826095902792e+01 -1.877372282243635127e+01 -3.383001399811146115e+00 -1.557666595299401280e+01 -3.383001399811146115e+00 -6.124461343236072608e+00
7.736558111675797988e+00 -1.216725736605320485e+01 -1.558166289310003982e+01 -1.216725736605320485e+01 -1.878070759638017861e+01 -3.315615656410524359e+00 -1.558166289310003982e+01 -3.315615656410524359e+00 -6.176856266318613287e+00
7.733603716430629049e+00 -1.218996244062256196e+01 -1.555467212172441904e+01 -1.218996244062256196e+01 -1.875958914147952328e+01 -3.254229888538672011e+00 -1.555467212172441904e+01 -3.254229888538672011e+00 -6.203172268409844037e+00
7.731469986531339877e+00 -1.219461287758255175e+01 -1.549542008375185453e+01 -1.219461287758255175e+01 -1.871095104198034775e+01 -3.198880570210961949e+00 -1.549542008375185453e+01 -3.198880570210961949e+00 -6.204193540840273080e+00
7.729099175532128996e+00 -1.218115396591011290e+01 -1.540359675005168327e+01 -1.218115396591011290e+01 -1.863599694038994059e+01 -3.149440042373591098e+00 -1.540359675005168327e+01 -3.149440042373591098e+00 -6.181543177293974622e+00
7.725415299979510486e+00 -1.214965865363599207e+01 -1.527905622456241552e+01 -1.214965865363599207e+01 -1.853602166425402231e+01 -3.105598275895892435e+00 -1.527905622456241552e+01 -3.105598275895892435e+00 -6.136826034447337541e+00
7.719305902404624220e+00 -1.210032754784473852e+01 -1.512157966319181668e+01 -1.210032754784473852e+01 -1.841253888521055515e+01 -3.066972293616456291e+00 -1.512157966319181668e+01 -3.066972293616456291e+00 -6.071938761099729298e+00
7.709585577307862536e+00 -1.203332478160552732e+01 -1.493100293287070635e+01 -1.203332478160552732e+01 -1.826715345993592621e+01 -3.033106170343126351e+00 -1.493100293287070635e+01 -3.033106170343126351e+00 -5.988686821012086270e+00
7.695196578243426622e+00 -1.194899685806439749e+01 -1.470714366352222591e+01 -1.194899685806439749e+01 -1.810154319313726745e+01 -3.003416321829942781e+00 -1.470714366352222591e+01 -3.003416321829942781e+00 -5.888948625976091478e+00
1.041506475326386472e+01 -3.271852628111261652e+00 -1.765643785368505547e+01 -3.271852628111261652e+00 -9.383466114693559845e+00 -6.393558717727583662e+00 -1.765643785368505547e+01 -6.393558717727583662e+00 2.169166879743645637e+01
1.033374062477031785e+01 -3.295452994530976731e+00 -1.740685318594606912e+01 -3.295452994530976731e+00 -9.262262403614261785e+00 -6.485963506064531536e+00 -1.740685318594606912e+01 -6.485963506064531536e+00 2.170998066711273111e+01
1.022394135904932710e+01 -3.315275863276804458e+00 -1.711744289987381862e+01 -3.315275863276804458e+00 -9.142929453287743868e+00 -6.574069142286912637e+00 -1.711744289987381862e+01 -6.574069142286912637e+00 2.166742085998693312e+01
1.008599074161579345e+01 -3.330907508413033735e+00 -1.678910639967636342e+01 -3.330907508413033735e+00 -9.027212107877662817e+00 -6.657875626394726964e+00 -1.678910639967636342e+01 -6.657875626394726964e+00 2.156139909193982973e+01
9.920248534152948494e+00 -3.341970180172274762e+00 -1.642281504189842067e+01 -3.341970180172274762e+00 -8.917053080473444027e+00 -6.737508874977104156e+00 -1.642281504189842067e+01 -6.737508874977104156e+00 2.139205926764471144e+01
9.726570831987496391e+00 -3.348212045376269597e+00 -1.601972006392632153e+01 -3.348212045376269597e+00 -8.815240524120099508e+00 -6.812986876118205082e+00 -1.601972006392632153e+01 -6.812986876118205082e+00 2.115821417354692358e+01
9.504741778109503159e+00 -3.349453223183403772e+00 -1.558088276272558481e+01 -3.349453223183403772e+00 -8.724778448872578807e+00 -6.884381582154674994e+00 -1.558088276272558481e+01 -6.884381582154674994e+00 2.085898239352256311e+01
9.254419598919904288e+00 -3.345603773172871609e+00 -1.510731047100924229e+01 -3.345603773172871609e+00 -8.649120566889864747e+00 -6.951746957339000055e+00 -1.510731047100924229e+01 -6.951746957339000055e+00 2.049314073784865897e+01
8.975118616146341211e+00 -3.336537778755541694e+00 -1.459999253340617464e+01 -3.336537778755541694e+00 -8.591648637994293125e+00 -7.015029037418693214e+00 -1.459999253340617464e+01 -7.015029037418693214e+00 2.005939406446558593e+01
8.666461080021424124e+00 -3.322309204183899745e+00 -1.405968444945115969e+01 -3.322309204183899745e+00 -8.555852350513170279e+00 -7.074353738982884998e+00 -1.405968444945115969e+01 -7.074353738982884998e+00 1.955592557687305089e+01
1.857344025151408928e+01 5.950168101690401556e+00 -4.470006128357789876e+00 5.950168101690401556e+00 3.465209607204310061e+01 -3.516544030574960011e+00 -4.470006128357789876e+00 -3.516544030574960011e+00 -5.982285240408772076e+00
1.857957042045538643e+01 6.023871458529258760e+00 -4.528799218376897251e+00 6.023871458529258760e+00 3.472903234218529178e+01 -3.587261800811284651e+00 -4.528799218376897251e+00 -3.587261800811284651e+00 -5.884502862627593700e+00
1.860944395267362594e+01 6.092098295564652766e+00 -4.575208307163014076e+00 6.092098295564652766e+00 3.481478404259176784e+01 -3.657467251453091706e+00 -4.575208307163014076e+00 -3.657467251453091706e+00 -5.753260715466550934e+00
1.866226586948766908e+01 6.154442290359554590e+00 -4.609463055224026107e+00 6.154442290359554590e+00 3.490809687356560431e+01 -3.727089717728722995e+00 -4.609463055224026107e+00 -3.727089717728722995e+00 -5.591297058827374933e+00
1.873697619932264757e+01 6.210514786669845577e+00 -4.631669459717421944e+00 6.210514786669845577e+00 3.500768120302404895e+01 -3.795970203901950502e+00 -4.631669459717421944e+00 -3.795970203901950502e+00 -5.401279487840138671e+00
1.883239130725329602e+01 6.260033125408894783e+00 -4.642180844501486270e+00 6.260033125408894783e+00 3.511207073695521075e+01 -3.863755386114485546e+00 -4.642180844501486270e+00 -3.863755386114485546e+00 -5.186264253879033781e+00
1.894690356972440526e+01 6.302714647490074817e+00 -4.641403532013252509e+00 6.302714647490074817e+00 3.521960485322513534e+01 -3.930180271472611508e+00 -4.641403532013252509e+00 -3.930180271472611508e+00 -4.949625599790708819e+00
1.907890536318076968e+01 6.338382690984238899e+00 -4.629902840425981658e+00 6.338382690984238899e+00 3.532865826208570326e+01 -3.994891536118041930e+00 -4.629902840425981658e+00 -3.994891536118041930e+00 -4.694879097965127812e+00
1.922650640498054031e+01 6.366860593962243797e+00 -4.608191089334190416e+00 6.366860593962243797e+00 3.543744667805254522e+01 -4.057518189999573366e+00 -4.608191089334190416e+00 -4.057518189999573366e+00 -4.425822979878887509e+00
1.938799307441102826e+01 6.388042359266603576e+00 -4.576815930718224124e+00 6.388042359266603576e+00 3.554413281706257521e+01 -4.117742241644746670e+00 -4.576815930718224124e+00 -4.117742241644746670e+00 -4.146184812236923811e+00
6.253839541125616819e+01 -1.462018453950009977e+01 2.300022412480853617e+01 -1.462018453950009977e+01 6.399134458009925197e+01 1.330458417010128436e+01 2.300022412480853617e+01 1.330458417010128436e+01 8.115808095889838114e+01
6.239429753255795674e+01 -1.458079812176433876e+01 2.303927476745703018e+01 -1.458079812176433876e+01 6.384771678652320048e+01 1.314522531368703540e+01 2.303927476745703018e+01 1.314522531368703540e+01 8.079730741639039593e+01
6.210267686927144126e+01 -1.451728626400884892e+01 2.300704035907994083e+01 -1.451728626400884892e+01 6.356591754453909004e+01 1.293331765611637785e+01 2.300704035907994083e+01 1.293331765611637785e+01 8.007759030559998337e+01
6.166554807192021315e+01 -1.443079060153031890e+01 2.290404135106251360e+01 -1.443079060153031890e+01 6.314821333598592901e+01 1.266998604393164030e+01 2.290404135106251360e+01 1.266998604393164030e+01 7.900294213881994665e+01
6.108423745209895372e+01 -1.432299000976504999e+01 2.273141937870143536e+01 -1.432299000976504999e+01 6.259613193751076921e+01 1.235679183128858760e+01 2.273141937870143536e+01 1.235679183128858760e+01 7.758069960170691104e+01
6.036514152521998255e+01 -1.419610060428897391e+01 2.249097083871356162e+01 -1.419610060428897391e+01 6.191586839947358101e+01 1.199574966871078985e+01 2.249097083871356162e+01 1.199574966871078985e+01 7.582231262473652578e+01
5.951349838264458469e+01 -1.405277500829145509e+01 2.218519725549898780e+01 -1.405277500829145509e+01 6.111208999558728294e+01 1.158939465810706793e+01 2.218519725549898780e+01 1.158939465810706793e+01 7.374312612939661449e+01
5.853760166902811335e+01 -1.389613593008401971e+01 2.181760747871959083e+01 -1.389613593008401971e+01 6.019243560908708446e+01 1.114110133910440048e+01 2.181760747871959083e+01 1.114110133910440048e+01 7.136382386106247111e+01
5.744880058231999698e+01 -1.372965864181982809e+01 2.139271768329904333e+01 -1.372965864181982809e+01 5.916719674639755766e+01 1.065496616776737504e+01 2.139271768329904333e+01 1.065496616776737504e+01 6.871096562913648143e+01
5.626040860473015925e+01 -1.355703666945875518e+01 2.091635356700132320e+01 -1.355703666945875518e+01 5.804832700062518569e+01 1.013609292542236240e+01 2.091635356700132320e+01 1.013609292542236240e+01 6.581806178732733770e+01
-1.637612839043159241e+01 6.585520663035783429e+00 -5.739939706124713048e+00 6.585520663035783429e+00 -1.861258429836073702e+01 3.874357840814546261e+00 -5.739939706124713048e+00 3.874357840814546261e+00 -2.360593915688685129e+01
-1.637668434012821805e+01 6.636834820034332338e+00 -5.707323990589340035e+00 6.636834820034332338e+00 -1.867866818563297215e+01 3.944537224185259205e+00 -5.707323990589340035e+00 3.944537224185259205e+00 -2.368794173713913764e+01
-1.634197454740222355e+01 6.682997176510815152e+00 -5.666331966291475730e+00 6.682997176510815152e+00 -1.870626182224215839e+01 4.008971794024172475e+00 -5.666331966291475730e+00 4.008971794024172475e+00 -2.367652623670175771e+01
-1.627370392465659421e+01 6.723859479212801027e+00 -5.617186013109767728e+00 6.723859479212801027e+00 -1.869669948746019728e+01 4.067661550331288289e+00 -5.617186013109767728e+00 4.067661550331288289e+00 -2.357765984898516010e+01
-1.616862943199434355e+01 6.759106689978868765e+00 -5.559941726013878593e+00 6.759106689978868765e+00 -1.864634897660246793e+01 4.120272923288629485e+00 -5.559941726013878593e+00 4.120272923288629485e+00 -2.338346661995381481e+01
-1.602928990636339890e+01 6.788572023900028007e+00 -5.494821484882460361e+00 6.788572023900028007e+00 -1.855732289851614425e+01 4.166472343078221563e+00 -5.494821484882460361e+00 4.166472343078221563e+00 -2.309878331196837209e+01
-1.585777942495438531e+01 6.812144291036955401e+00 -5.421973542967944759e+00 6.812144291036955401e+00 -1.843151148216975699e+01 4.205926239882089135e+00 -5.421973542967944759e+00 4.205926239882089135e+00 -2.272803899094527580e+01
-1.565556198863507831e+01 6.829712301450327594e+00 -5.341509090209657806e+00 6.829712301450327594e+00 -1.827015634855244031e+01 4.238023069033943990e+00 -5.341509090209657806e+00 4.238023069033943990e+00 -2.227295710094406544e+01
-1.542397187667738478e+01 6.841127801887707527e+00 -5.253446658264152802e+00 6.841127801887707527e+00 -1.807425820711810971e+01 4.262169817524051219e+00 -5.253446658264152802e+00 4.262169817524051219e+00 -2.173674361854861914e+01
-1.516467693817117812e+01 6.846261070753217659e+00 -5.157786247131432411e+00 6.846261070753217659e+00 -1.784546637530009860e+01 4.277662282403353444e+00 -5.157786247131432411e+00 4.277662282403353444e+00 -2.112138143101023502e+01