0.000000000000000000e+00 2.032270000000000021e+00 9.284610000000000696e+00 -1.760000000000000009e+00 5.080680000000000085e+00 9.284610000000000696e+00 -3.520000000000000018e+00 8.129089999999999705e+00 9.284610000000000696e+00 3.520000000000000018e+00 2.032270000000000021e+00 9.284610000000000696e+00 1.760000000000000009e+00 5.080680000000000085e+00 9.284610000000000696e+00 0.000000000000000000e+00 8.129089999999999705e+00 9.284610000000000696e+00 7.040000000000000036e+00 2.032270000000000021e+00 9.284610000000000696e+00 5.280000000000000249e+00 5.080680000000000085e+00 9.284610000000000696e+00 3.520000000000000018e+00 8.129089999999999705e+00 9.284610000000000696e+00 0.000000000000000000e+00 1.422590000000000021e+00 1.709489999999999910e+01 -1.760000000000000009e+00 4.471000000000000085e+00 1.709489999999999910e+01 -3.520000000000000018e+00 7.519409999999999705e+00 1.709489999999999910e+01 3.520000000000000018e+00 1.422590000000000021e+00 1.709489999999999910e+01 1.760000000000000009e+00 4.471000000000000085e+00 1.709489999999999910e+01 0.000000000000000000e+00 7.519409999999999705e+00 1.709489999999999910e+01 7.040000000000000036e+00 1.422590000000000021e+00 1.709489999999999910e+01 5.280000000000000249e+00 4.471000000000000085e+00 1.709489999999999910e+01 3.520000000000000018e+00 7.519409999999999705e+00 1.709489999999999910e+01 0.000000000000000000e+00 2.032270000000000021e+00 1.290513999999999939e+01 -1.760000000000000009e+00 5.080680000000000085e+00 1.290513999999999939e+01 -3.520000000000000018e+00 8.129089999999999705e+00 1.290513999999999939e+01 3.520000000000000018e+00 2.032270000000000021e+00 1.290513999999999939e+01 1.760000000000000009e+00 5.080680000000000085e+00 1.290513999999999939e+01 0.000000000000000000e+00 8.129089999999999705e+00 1.290513999999999939e+01 7.040000000000000036e+00 2.032270000000000021e+00 1.290513999999999939e+01 5.280000000000000249e+00 5.080680000000000085e+00 1.290513999999999939e+01 3.520000000000000018e+00 8.129089999999999705e+00 1.290513999999999939e+01 0.000000000000000000e+00 1.422590000000000021e+00 2.071540999999999855e+01 -1.760000000000000009e+00 4.471000000000000085e+00 2.071540999999999855e+01 -3.520000000000000018e+00 7.519409999999999705e+00 2.071540999999999855e+01 3.520000000000000018e+00 1.422590000000000021e+00 2.071540999999999855e+01 1.760000000000000009e+00 4.471000000000000085e+00 2.071540999999999855e+01 0.000000000000000000e+00 7.519409999999999705e+00 2.071540999999999855e+01 7.040000000000000036e+00 1.422590000000000021e+00 2.071540999999999855e+01 5.280000000000000249e+00 4.471000000000000085e+00 2.071540999999999855e+01 3.520000000000000018e+00 7.519409999999999705e+00 2.071540999999999855e+01 0.000000000000000000e+00 0.000000000000000000e+00 1.109462000000000081e+01 -1.760000000000000009e+00 3.048410000000000064e+00 1.109462000000000081e+01 -3.520000000000000018e+00 6.096820000000000128e+00 1.109462000000000081e+01 3.520000000000000018e+00 0.000000000000000000e+00 1.109462000000000081e+01 1.760000000000000009e+00 3.048410000000000064e+00 1.109462000000000081e+01 0.000000000000000000e+00 6.096820000000000128e+00 1.109462000000000081e+01 7.040000000000000036e+00 0.000000000000000000e+00 1.109462000000000081e+01 5.280000000000000249e+00 3.048410000000000064e+00 1.109462000000000081e+01 3.520000000000000018e+00 6.096820000000000128e+00 1.109462000000000081e+01 1.760000000000000009e+00 2.438730000000000064e+00 1.890538000000000096e+01 0.000000000000000000e+00 5.487140000000000128e+00 1.890538000000000096e+01 -1.760000000000000009e+00 8.535550000000000637e+00 1.890538000000000096e+01 5.280000000000000249e+00 2.438730000000000064e+00 1.890538000000000096e+01 3.520000000000000018e+00 5.487140000000000128e+00 1.890538000000000096e+01 1.760000000000000009e+00 8.535550000000000637e+00 1.890538000000000096e+01 8.800000000000000711e+00 2.438730000000000064e+00 1.890538000000000096e+01 7.040000000000000036e+00 5.487140000000000128e+00 1.890538000000000096e+01 5.280000000000000249e+00 8.535550000000000637e+00 1.890538000000000096e+01
2.060000000000000199e-03 2.030780000000000030e+00 9.283920000000000172e+00 -1.760809999999999986e+00 5.082049999999999734e+00 9.283210000000000406e+00 -3.520020000000000149e+00 8.128629999999999356e+00 9.285849999999999937e+00 3.517339999999999911e+00 2.031829999999999803e+00 9.284940000000000637e+00 1.755970000000000031e+00 5.080580000000000318e+00 9.283920000000000172e+00 -5.800000000000000034e-04 8.128679999999999239e+00 9.282159999999999300e+00 7.039860000000000007e+00 2.028360000000000163e+00 9.284520000000000550e+00 5.281670000000000087e+00 5.080770000000000231e+00 9.283110000000000639e+00 3.520779999999999799e+00 8.129870000000000374e+00 9.286250000000000782e+00 2.150000000000000001e-03 1.423229999999999995e+00 1.709377999999999886e+01 -1.759319999999999995e+00 4.472089999999999677e+00 1.709615000000000151e+01 -3.516570000000000196e+00 7.522569999999999979e+00 1.709880000000000067e+01 3.518069999999999808e+00 1.423999999999999932e+00 1.709447000000000116e+01 1.761530000000000040e+00 4.470629999999999882e+00 1.709490999999999872e+01 2.200000000000000078e-04 7.517879999999999896e+00 1.709731000000000023e+01 7.039830000000000254e+00 1.422469999999999901e+00 1.709293999999999869e+01 5.276589999999999669e+00 4.471890000000000143e+00 1.709283999999999892e+01 3.517310000000000159e+00 7.519540000000000113e+00 1.709416999999999831e+01 1.729999999999999984e-03 2.033360000000000056e+00 1.290337000000000067e+01 -1.759069999999999911e+00 5.080849999999999866e+00 1.290671000000000035e+01 -3.520119999999999916e+00 8.129440000000000666e+00 1.290405999999999942e+01 3.519190000000000040e+00 2.031149999999999789e+00 1.290597999999999956e+01 1.757330000000000059e+00 5.078009999999999913e+00 1.290257000000000076e+01 -1.209999999999999921e-03 8.130179999999999296e+00 1.290671999999999997e+01 7.042329999999999757e+00 2.032129999999999992e+00 1.290657999999999994e+01 5.281889999999999752e+00 5.080700000000000216e+00 1.290607999999999933e+01 3.518549999999999844e+00 8.129799999999999471e+00 1.290475999999999956e+01 -4.300000000000000003e-03 1.421689999999999898e+00 2.071459000000000117e+01 -1.759549999999999947e+00 4.472000000000000419e+00 2.071632999999999925e+01 -3.519480000000000164e+00 7.517170000000000130e+00 2.071358999999999995e+01 3.519219999999999793e+00 1.422830000000000039e+00 2.071377999999999986e+01 1.762199999999999989e+00 4.474669999999999703e+00 2.071289000000000158e+01 3.299999999999999982e-04 7.517820000000000391e+00 2.071406999999999954e+01 7.040610000000000035e+00 1.422660000000000036e+00 2.071675000000000111e+01 5.279939999999999856e+00 4.468880000000000408e+00 2.071611000000000047e+01 3.521269999999999900e+00 7.520999999999999908e+00 2.071641999999999939e+01 7.500000000000000156e-04 1.000000000000000021e-03 1.109146999999999927e+01 8.798819999999999197e+00 3.048420000000000130e+00 1.109604999999999997e+01 -3.519050000000000011e+00 6.097080000000000055e+00 1.109558999999999962e+01 3.518609999999999793e+00 1.800000000000000113e-04 1.109444000000000052e+01 1.758690000000000087e+00 3.046159999999999979e+00 1.109594000000000058e+01 3.499999999999999964e-04 6.098790000000000155e+00 1.109474999999999945e+01 7.039480000000000182e+00 1.059999999999999961e-03 1.109722000000000008e+01 5.282420000000000115e+00 3.046469999999999789e+00 1.109503999999999913e+01 3.519489999999999785e+00 6.101539999999999964e+00 1.109488999999999947e+01 1.761540000000000106e+00 2.439599999999999991e+00 1.890572999999999837e+01 -2.010000000000000068e-03 5.485730000000000217e+00 1.890709000000000017e+01 -1.761069999999999913e+00 8.535399999999999210e+00 1.890866000000000113e+01 5.277540000000000120e+00 2.441170000000000062e+00 1.890611000000000175e+01 3.521419999999999995e+00 5.485780000000000101e+00 1.890077000000000140e+01 1.761800000000000033e+00 8.533379999999999299e+00 1.890557000000000087e+01 8.800729999999999720e+00 2.436729999999999841e+00 1.890570999999999913e+01 7.043370000000000353e+00 5.485699999999999577e+00 1.890735000000000099e+01 5.281170000000000364e+00 8.535859999999999559e+00 1.890536000000000172e+01
4.120000000000000398e-03 2.029300000000000104e+00 9.283220000000000027e+00 -1.761619999999999964e+00 5.083420000000000272e+00 9.281810000000000116e+00 -3.520030000000000214e+00 8.128170000000000783e+00 9.287079999999999558e+00 3.514699999999999935e+00 2.031400000000000095e+00 9.285270000000000579e+00 1.751940000000000053e+00 5.080490000000000173e+00 9.283229999999999649e+00 -1.149999999999999981e-03 8.128280000000000172e+00 9.279709999999999681e+00 7.039719999999999978e+00 2.024449999999999861e+00 9.284430000000000405e+00 5.283339999999999925e+00 5.080860000000000376e+00 9.281620000000000203e+00 3.521560000000000024e+00 8.130649999999999267e+00 9.287879999999999470e+00 4.290000000000000410e-03 1.423869999999999969e+00 1.709264999999999901e+01 -1.758629999999999916e+00 4.473169999999999646e+00 1.709739000000000075e+01 -3.513149999999999995e+00 7.525719999999999743e+00 1.710267999999999944e+01 3.516140000000000043e+00 1.425389999999999935e+00 1.709403000000000006e+01 1.763050000000000006e+00 4.470250000000000057e+00 1.709491999999999834e+01 4.299999999999999894e-04 7.516350000000000087e+00 1.709971000000000174e+01 7.039659999999999584e+00 1.422339999999999938e+00 1.709100000000000108e+01 5.273200000000000109e+00 4.472769999999999690e+00 1.709077999999999875e+01 3.514629999999999921e+00 7.519669999999999632e+00 1.709344000000000108e+01 3.439999999999999915e-03 2.034450000000000092e+00 1.290161999999999942e+01 -1.758140000000000036e+00 5.081030000000000157e+00 1.290827999999999953e+01 -3.520239999999999814e+00 8.129799999999999471e+00 1.290299000000000085e+01 3.518390000000000128e+00 2.030030000000000001e+00 1.290681999999999974e+01 1.754660000000000108e+00 5.075350000000000250e+00 1.290000999999999998e+01 -2.409999999999999816e-03 8.131259999999999266e+00 1.290831000000000017e+01 7.044660000000000366e+00 2.031989999999999963e+00 1.290803000000000011e+01 5.283780000000000143e+00 5.080720000000000347e+00 1.290703000000000067e+01 3.517100000000000115e+00 8.130509999999999238e+00 1.290438999999999936e+01 -8.590000000000000413e-03 1.420789999999999997e+00 2.071378999999999948e+01 -1.759100000000000108e+00 4.472979999999999734e+00 2.071726999999999919e+01 -3.518959999999999866e+00 7.514940000000000175e+00 2.071180000000000021e+01 3.518440000000000012e+00 1.423070000000000057e+00 2.071218000000000004e+01 1.764399999999999968e+00 4.478340000000000209e+00 2.071038000000000068e+01 6.499999999999999702e-04 7.516230000000000189e+00 2.071274999999999977e+01 7.041220000000000034e+00 1.422719999999999985e+00 2.071809000000000012e+01 5.279880000000000351e+00 4.466770000000000351e+00 2.071681999999999846e+01 3.522539999999999782e+00 7.522590000000000110e+00 2.071743000000000023e+01 1.500000000000000031e-03 2.000000000000000042e-03 1.108834000000000053e+01 8.797660000000000480e+00 3.048439999999999817e+00 1.109745999999999988e+01 -3.518110000000000070e+00 6.097339999999999982e+00 1.109656000000000020e+01 3.517240000000000144e+00 3.600000000000000227e-04 1.109426999999999985e+01 1.757390000000000008e+00 3.043930000000000025e+00 1.109722999999999971e+01 6.800000000000000488e-04 6.100749999999999673e+00 1.109487000000000023e+01 7.038960000000000328e+00 2.109999999999999896e-03 1.109980000000000011e+01 5.284830000000000361e+00 3.044540000000000024e+00 1.109545999999999921e+01 3.518990000000000062e+00 6.106230000000000047e+00 1.109515000000000029e+01 1.763050000000000006e+00 2.440469999999999917e+00 1.890608999999999895e+01 -4.009999999999999676e-03 5.484320000000000306e+00 1.890878999999999976e+01 -1.762119999999999909e+00 8.535270000000000579e+00 1.891193000000000168e+01 5.275100000000000122e+00 2.443599999999999994e+00 1.890683999999999898e+01 3.522829999999999906e+00 5.484449999999999825e+00 1.889620999999999995e+01 1.763589999999999991e+00 8.531219999999999359e+00 1.890577000000000041e+01 8.801460000000000505e+00 2.434740000000000126e+00 1.890604000000000084e+01 7.046710000000000029e+00 5.484259999999999913e+00 1.890931000000000139e+01 5.282320000000000348e+00 8.536160000000000636e+00 1.890533999999999892e+01
6.150000000000000085e-03 2.027829999999999799e+00 9.282519999999999882e+00 -1.762420000000000098e+00 5.084769999999999790e+00 9.280430000000000845e+00 -3.520049999999999901e+00 8.127710000000000434e+00 9.288289999999999935e+00 3.512059999999999960e+00 2.030959999999999877e+00 9.285589999999999122e+00 1.747940000000000049e+00 5.080390000000000406e+00 9.282560000000000144e+00 -1.729999999999999984e-03 8.127890000000000725e+00 9.277290000000000703e+00 7.039579999999999949e+00 2.020550000000000068e+00 9.284330000000000638e+00 5.285000000000000142e+00 5.080949999999999633e+00 9.280150000000000787e+00 3.522330000000000183e+00 8.131429999999999936e+00 9.289490000000000691e+00 6.429999999999999952e-03 1.424490000000000034e+00 1.709152999999999878e+01 -1.757949999999999902e+00 4.474219999999999864e+00 1.709862000000000037e+01 -3.509739999999999860e+00 7.528839999999999755e+00 1.710653999999999897e+01 3.514219999999999899e+00 1.426760000000000028e+00 1.709359999999999857e+01 1.764550000000000063e+00 4.469870000000000232e+00 1.709490999999999872e+01 6.300000000000000261e-04 7.514820000000000277e+00 1.710210999999999970e+01 7.039489999999999803e+00 1.422209999999999974e+00 1.708906999999999954e+01 5.269840000000000302e+00 4.473639999999999617e+00 1.708873000000000175e+01 3.511969999999999814e+00 7.519790000000000418e+00 1.709270000000000067e+01 5.139999999999999604e-03 2.035530000000000062e+00 1.289988999999999919e+01 -1.757209999999999939e+00 5.081220000000000070e+00 1.290984000000000087e+01 -3.520370000000000221e+00 8.130160000000000053e+00 1.290193000000000012e+01 3.517599999999999838e+00 2.028929999999999900e+00 1.290765999999999991e+01 1.752019999999999911e+00 5.072709999999999830e+00 1.289746000000000059e+01 -3.619999999999999954e-03 8.132350000000000634e+00 1.290989000000000075e+01 7.046979999999999578e+00 2.031859999999999999e+00 1.290949999999999953e+01 5.285650000000000404e+00 5.080739999999999590e+00 1.290795999999999921e+01 3.515670000000000073e+00 8.131240000000000023e+00 1.290403000000000056e+01 -1.284000000000000072e-02 1.419899999999999940e+00 2.071299000000000134e+01 -1.758639999999999981e+00 4.473939999999999806e+00 2.071820999999999913e+01 -3.518440000000000012e+00 7.512710000000000221e+00 2.071002999999999972e+01 3.517659999999999787e+00 1.423310000000000075e+00 2.071059999999999945e+01 1.766599999999999948e+00 4.481989999999999696e+00 2.070787999999999940e+01 9.799999999999999684e-04 7.514649999999999608e+00 2.071143999999999963e+01 7.041809999999999903e+00 1.422789999999999999e+00 2.071940999999999988e+01 5.279819999999999958e+00 4.464669999999999916e+00 2.071753000000000000e+01 3.523820000000000174e+00 7.524149999999999672e+00 2.071841999999999828e+01 2.239999999999999804e-03 2.990000000000000036e-03 1.108526999999999951e+01 8.796519999999999229e+00 3.048459999999999948e+00 1.109882999999999953e+01 -3.517160000000000064e+00 6.097599999999999909e+00 1.109751999999999938e+01 3.515890000000000182e+00 5.299999999999999807e-04 1.109408999999999956e+01 1.756110000000000060e+00 3.041729999999999823e+00 1.109849999999999959e+01 9.799999999999999684e-04 6.102710000000000079e+00 1.109497999999999962e+01 7.038429999999999964e+00 3.150000000000000022e-03 1.110234999999999950e+01 5.287209999999999965e+00 3.042619999999999880e+00 1.109587999999999930e+01 3.518489999999999895e+00 6.110839999999999606e+00 1.109539999999999971e+01 1.764529999999999932e+00 2.441329999999999778e+00 1.890645999999999916e+01 -5.980000000000000072e-03 5.482899999999999885e+00 1.891046000000000049e+01 -1.763130000000000086e+00 8.535159999999999414e+00 1.891516000000000020e+01 5.272680000000000256e+00 2.445980000000000043e+00 1.890753000000000128e+01 3.524259999999999948e+00 5.483150000000000190e+00 1.889170999999999978e+01 1.765360000000000040e+00 8.529090000000000060e+00 1.890596999999999994e+01 8.802170000000000272e+00 2.432789999999999786e+00 1.890634999999999977e+01 7.049990000000000201e+00 5.482809999999999739e+00 1.891122000000000014e+01 5.283450000000000202e+00 8.536450000000000315e+00 1.890531000000000006e+01
8.160000000000000586e-03 2.026390000000000136e+00 9.281819999999999737e+00 -1.763220000000000010e+00 5.086109999999999687e+00 9.279059999999999420e+00 -3.520049999999999901e+00 8.127240000000000464e+00 9.289479999999999293e+00 3.509459999999999802e+00 2.030539999999999790e+00 9.285920000000000840e+00 1.743980000000000086e+00 5.080289999999999750e+00 9.281900000000000261e+00 -2.299999999999999961e-03 8.127520000000000522e+00 9.274879999999999569e+00 7.039450000000000429e+00 2.016680000000000028e+00 9.284240000000000492e+00 5.286640000000000228e+00 5.081030000000000157e+00 9.278710000000000235e+00 3.523070000000000146e+00 8.132220000000000226e+00 9.291069999999999496e+00 8.559999999999999901e-03 1.425110000000000099e+00 1.709042000000000172e+01 -1.757279999999999953e+00 4.475249999999999950e+00 1.709983000000000075e+01 -3.506349999999999856e+00 7.531920000000000393e+00 1.711037999999999926e+01 3.512319999999999887e+00 1.428120000000000056e+00 1.709317000000000064e+01 1.766029999999999989e+00 4.469479999999999897e+00 1.709489999999999910e+01 8.300000000000000086e-04 7.513300000000000090e+00 1.710451000000000121e+01 7.039299999999999891e+00 1.422069999999999945e+00 1.708718000000000004e+01 5.266539999999999999e+00 4.474510000000000431e+00 1.708667000000000158e+01 3.509349999999999969e+00 7.519919999999999938e+00 1.709195000000000064e+01 6.819999999999999674e-03 2.036589999999999900e+00 1.289817999999999998e+01 -1.756280000000000063e+00 5.081419999999999604e+00 1.291140000000000043e+01 -3.520509999999999806e+00 8.130530000000000257e+00 1.290088000000000079e+01 3.516830000000000123e+00 2.027839999999999865e+00 1.290850000000000009e+01 1.749390000000000001e+00 5.070100000000000051e+00 1.289493000000000045e+01 -4.830000000000000092e-03 8.133449999999999847e+00 1.291146999999999956e+01 7.049290000000000056e+00 2.031740000000000101e+00 1.291098000000000035e+01 5.287499999999999645e+00 5.080770000000000231e+00 1.290887000000000029e+01 3.514260000000000161e+00 8.131990000000000052e+00 1.290368999999999922e+01 -1.704999999999999918e-02 1.419010000000000105e+00 2.071220999999999890e+01 -1.758180000000000076e+00 4.474870000000000125e+00 2.071918000000000148e+01 -3.517939999999999845e+00 7.510500000000000398e+00 2.070830000000000126e+01 3.516890000000000072e+00 1.423559999999999937e+00 2.070906000000000091e+01 1.768790000000000084e+00 4.485619999999999941e+00 2.070541000000000054e+01 1.319999999999999993e-03 7.513090000000000046e+00 2.071017000000000152e+01 7.042390000000000150e+00 1.422840000000000105e+00 2.072072000000000003e+01 5.279759999999999565e+00 4.462600000000000122e+00 2.071822999999999837e+01 3.525100000000000122e+00 7.525669999999999860e+00 2.071940999999999988e+01 2.959999999999999958e-03 3.969999999999999571e-03 1.108228000000000080e+01 8.795400000000000773e+00 3.048480000000000079e+00 1.110013999999999967e+01 -3.516210000000000058e+00 6.097850000000000215e+00 1.109847000000000072e+01 3.514569999999999972e+00 6.999999999999999929e-04 1.109390999999999927e+01 1.754850000000000021e+00 3.039569999999999883e+00 1.109970000000000034e+01 1.240000000000000000e-03 6.104650000000000354e+00 1.109509000000000079e+01 7.037899999999999601e+00 4.159999999999999636e-03 1.110485000000000078e+01 5.289550000000000196e+00 3.040729999999999933e+00 1.109628000000000014e+01 3.517999999999999794e+00 6.115350000000000286e+00 1.109562999999999988e+01 1.765959999999999974e+00 2.442180000000000017e+00 1.890682999999999936e+01 -7.889999999999999444e-03 5.481489999999999974e+00 1.891208999999999918e+01 -1.764089999999999936e+00 8.535080000000000666e+00 1.891833000000000098e+01 5.270319999999999894e+00 2.448310000000000208e+00 1.890819000000000116e+01 3.525679999999999925e+00 5.481919999999999682e+00 1.888730999999999938e+01 1.767099999999999893e+00 8.527010000000000645e+00 1.890616999999999948e+01 8.802860000000000795e+00 2.430890000000000217e+00 1.890662999999999982e+01 7.053189999999999849e+00 5.481349999999999945e+00 1.891308000000000078e+01 5.284550000000000303e+00 8.536730000000000373e+00 1.890525999999999840e+01
1.012000000000000052e-02 2.024970000000000159e+00 9.281100000000000350e+00 -1.764010000000000078e+00 5.087439999999999962e+00 9.277730000000000032e+00 -3.520049999999999901e+00 8.126760000000000872e+00 9.290630000000000166e+00 3.506880000000000219e+00 2.030120000000000147e+00 9.286250000000000782e+00 1.740059999999999940e+00 5.080199999999999605e+00 9.281269999999999243e+00 -2.860000000000000129e-03 8.127159999999999940e+00 9.272520000000000095e+00 7.039329999999999643e+00 2.012830000000000119e+00 9.284150000000000347e+00 5.288260000000000183e+00 5.081120000000000303e+00 9.277319999999999567e+00 3.523800000000000043e+00 8.133029999999999760e+00 9.292619999999999436e+00 1.068999999999999985e-02 1.425729999999999942e+00 1.708932000000000073e+01 -1.756610000000000005e+00 4.476239999999999775e+00 1.710103000000000151e+01 -3.502990000000000048e+00 7.534959999999999880e+00 1.711418000000000106e+01 3.510450000000000070e+00 1.429450000000000109e+00 1.709275999999999840e+01 1.767460000000000031e+00 4.469089999999999563e+00 1.709487000000000023e+01 1.010000000000000047e-03 7.511779999999999902e+00 1.710689999999999955e+01 7.039089999999999847e+00 1.421929999999999916e+00 1.708532999999999902e+01 5.263309999999999711e+00 4.475360000000000227e+00 1.708462000000000103e+01 3.506769999999999943e+00 7.520050000000000345e+00 1.709119000000000099e+01 8.470000000000000098e-03 2.037640000000000118e+00 1.289649999999999963e+01 -1.755349999999999966e+00 5.081629999999999647e+00 1.291295000000000037e+01 -3.520659999999999901e+00 8.130900000000000460e+00 1.289985000000000070e+01 3.516070000000000029e+00 2.026759999999999895e+00 1.290933000000000064e+01 1.746809999999999974e+00 5.067540000000000155e+00 1.289242999999999917e+01 -6.040000000000000230e-03 8.134539999999999438e+00 1.291305000000000014e+01 7.051580000000000403e+00 2.031629999999999825e+00 1.291247000000000078e+01 5.289329999999999643e+00 5.080809999999999604e+00 1.290976999999999997e+01 3.512890000000000068e+00 8.132749999999999702e+00 1.290337000000000067e+01 -2.120999999999999969e-02 1.418139999999999956e+00 2.071144999999999925e+01 -1.757719999999999949e+00 4.475760000000000183e+00 2.072017999999999915e+01 -3.517450000000000188e+00 7.508300000000000196e+00 2.070663000000000054e+01 3.516109999999999847e+00 1.423810000000000020e+00 2.070756000000000085e+01 1.770979999999999999e+00 4.489220000000000432e+00 2.070296000000000092e+01 1.660000000000000017e-03 7.511529999999999596e+00 2.070892999999999873e+01 7.042950000000000266e+00 1.422900000000000054e+00 2.072200000000000131e+01 5.279700000000000060e+00 4.460569999999999702e+00 2.071893000000000029e+01 3.526390000000000136e+00 7.527160000000000295e+00 2.072035999999999945e+01 3.650000000000000033e-03 4.930000000000000354e-03 1.107939000000000007e+01 8.794330000000000425e+00 3.048509999999999831e+00 1.110136999999999929e+01 -3.515270000000000117e+00 6.098090000000000011e+00 1.109938999999999965e+01 3.513300000000000090e+00 8.499999999999999526e-04 1.109371999999999936e+01 1.753640000000000088e+00 3.037450000000000205e+00 1.110083999999999982e+01 1.430000000000000064e-03 6.106589999999999741e+00 1.109516999999999953e+01 7.037340000000000373e+00 5.150000000000000064e-03 1.110729000000000077e+01 5.291839999999999655e+00 3.038870000000000182e+00 1.109667999999999921e+01 3.517520000000000202e+00 6.119720000000000049e+00 1.109585000000000043e+01 1.767309999999999937e+00 2.443010000000000126e+00 1.890720999999999918e+01 -9.749999999999999986e-03 5.480070000000000441e+00 1.891366000000000014e+01 -1.764979999999999993e+00 8.535050000000000026e+00 1.892142000000000124e+01 5.268019999999999925e+00 2.450559999999999850e+00 1.890878000000000014e+01 3.527109999999999967e+00 5.480769999999999698e+00 1.888305000000000078e+01 1.768790000000000084e+00 8.524990000000000734e+00 1.890638999999999825e+01 8.803520000000000678e+00 2.429050000000000153e+00 1.890686000000000178e+01 7.056280000000000108e+00 5.479890000000000150e+00 1.891487000000000052e+01 5.285599999999999632e+00 8.537000000000000810e+00 1.890519000000000105e+01
1.204999999999999995e-02 2.023590000000000000e+00 9.280369999999999564e+00 -1.764790000000000081e+00 5.088750000000000107e+00 9.276429999999999509e+00 -3.520049999999999901e+00 8.126269999999999882e+00 9.291750000000000398e+00 3.504340000000000011e+00 2.029720000000000191e+00 9.286590000000000344e+00 1.736189999999999900e+00 5.080110000000000348e+00 9.280680000000000263e+00 -3.419999999999999863e-03 8.126829999999999998e+00 9.270189999999999486e+00 7.039220000000000255e+00 2.009009999999999962e+00 9.284050000000000580e+00 5.289850000000000385e+00 5.081199999999999939e+00 9.275980000000000558e+00 3.524490000000000123e+00 8.133850000000000691e+00 9.294140000000000512e+00 1.280000000000000061e-02 1.426330000000000098e+00 1.708822999999999936e+01 -1.755940000000000056e+00 4.477190000000000225e+00 1.710219999999999985e+01 -3.499639999999999862e+00 7.537950000000000372e+00 1.711793000000000120e+01 3.508599999999999941e+00 1.430739999999999901e+00 1.709235999999999933e+01 1.768850000000000033e+00 4.468700000000000117e+00 1.709483000000000175e+01 1.180000000000000059e-03 7.510279999999999845e+00 1.710929000000000144e+01 7.038879999999999804e+00 1.421780000000000044e+00 1.708352999999999966e+01 5.260159999999999947e+00 4.476210000000000022e+00 1.708257000000000048e+01 3.504249999999999865e+00 7.520179999999999865e+00 1.709040999999999855e+01 1.008000000000000042e-02 2.038650000000000073e+00 1.289484999999999992e+01 -1.754410000000000025e+00 5.081850000000000200e+00 1.291449000000000069e+01 -3.520820000000000061e+00 8.131289999999999907e+00 1.289883999999999986e+01 3.515330000000000066e+00 2.025689999999999991e+00 1.291015999999999941e+01 1.744250000000000078e+00 5.065010000000000012e+00 1.288995000000000068e+01 -7.259999999999999960e-03 8.135640000000000427e+00 1.291463000000000072e+01 7.053849999999999731e+00 2.031530000000000058e+00 1.291399000000000008e+01 5.291120000000000267e+00 5.080860000000000376e+00 1.291062999999999938e+01 3.511550000000000171e+00 8.133549999999999613e+00 1.290306999999999960e+01 -2.528999999999999998e-02 1.417289999999999939e+00 2.071070999999999884e+01 -1.757260000000000044e+00 4.476600000000000357e+00 2.072119999999999962e+01 -3.516989999999999839e+00 7.506109999999999616e+00 2.070501000000000147e+01 3.515330000000000066e+00 1.424069999999999947e+00 2.070613000000000170e+01 1.773169999999999913e+00 4.492790000000000283e+00 2.070054000000000016e+01 2.010000000000000068e-03 7.509990000000000165e+00 2.070773000000000152e+01 7.043479999999999741e+00 1.422940000000000094e+00 2.072324000000000055e+01 5.279639999999999667e+00 4.458569999999999922e+00 2.071960999999999942e+01 3.527690000000000214e+00 7.528599999999999959e+00 2.072129999999999939e+01 4.320000000000000055e-03 5.870000000000000218e-03 1.107663999999999938e+01 8.793309999999999960e+00 3.048540000000000028e+00 1.110249999999999915e+01 -3.514320000000000110e+00 6.098320000000000185e+00 1.110030000000000072e+01 3.512070000000000025e+00 9.899999999999999946e-04 1.109354000000000084e+01 1.752469999999999972e+00 3.035400000000000098e+00 1.110187999999999953e+01 1.539999999999999919e-03 6.108500000000000263e+00 1.109525000000000006e+01 7.036769999999999747e+00 6.109999999999999980e-03 1.110965999999999987e+01 5.294050000000000367e+00 3.037040000000000184e+00 1.109706000000000081e+01 3.517059999999999853e+00 6.123910000000000409e+00 1.109604000000000035e+01 1.768569999999999975e+00 2.443820000000000103e+00 1.890759999999999863e+01 -1.152000000000000073e-02 5.478650000000000020e+00 1.891516999999999982e+01 -1.765789999999999971e+00 8.535069999999999268e+00 1.892442000000000135e+01 5.265799999999999592e+00 2.452729999999999855e+00 1.890931000000000139e+01 3.528550000000000075e+00 5.479729999999999990e+00 1.887894999999999968e+01 1.770429999999999948e+00 8.523039999999999949e+00 1.890661000000000058e+01 8.804149999999999920e+00 2.427299999999999791e+00 1.890705000000000169e+01 7.059239999999999959e+00 5.478410000000000224e+00 1.891656000000000049e+01 5.286609999999999587e+00 8.537240000000000606e+00 1.890510000000000090e+01