2.500000000000000120e-05 -6.599999999999999964e-04 -1.133900000000000012e-02 1.699999999999999987e-05 -6.579999999999999478e-04 -1.134100000000000039e-02 2.000000000000000164e-05 -6.629999999999999609e-04 -1.133800000000000086e-02 6.999999999999999895e-06 -6.650000000000000095e-04 -1.132200000000000047e-02 1.399999999999999979e-05 -6.689999999999999983e-04 -1.132299999999999973e-02 9.000000000000000228e-06 -6.660000000000000338e-04 -1.132299999999999973e-02 -1.000000000000000082e-05 -6.759999999999999516e-04 -1.133900000000000012e-02 -1.000000000000000082e-05 -6.740000000000000114e-04 -1.133400000000000032e-02 -7.999999999999999638e-06 -6.819999999999999890e-04 -1.133499999999999959e-02 1.500000000000000038e-05 -1.597799999999999915e-02 -1.143399999999999972e-02 1.299999999999999920e-05 -1.597900000000000015e-02 -1.143399999999999972e-02 2.000000000000000164e-05 -1.598300000000000068e-02 -1.143500000000000072e-02 1.099999999999999971e-05 -1.598499999999999921e-02 -1.142100000000000060e-02 1.200000000000000030e-05 -1.598400000000000168e-02 -1.142199999999999986e-02 1.000000000000000082e-05 -1.597900000000000015e-02 -1.142199999999999986e-02 -3.000000000000000076e-06 -1.599300000000000027e-02 -1.142899999999999992e-02 -9.999999999999999547e-07 -1.599000000000000074e-02 -1.142999999999999919e-02 -6.000000000000000152e-06 -1.599099999999999827e-02 -1.143100000000000019e-02 2.599999999999999840e-05 1.668299999999999991e-02 1.143399999999999972e-02 1.699999999999999987e-05 1.668400000000000091e-02 1.143599999999999998e-02 2.099999999999999884e-05 1.668000000000000038e-02 1.143199999999999945e-02 6.999999999999999895e-06 1.667799999999999838e-02 1.141600000000000080e-02 1.599999999999999928e-05 1.667300000000000032e-02 1.141799999999999933e-02 9.000000000000000228e-06 1.667700000000000085e-02 1.141900000000000033e-02 -1.000000000000000082e-05 1.666600000000000026e-02 1.143300000000000045e-02 -1.000000000000000082e-05 1.666799999999999879e-02 1.142899999999999992e-02 -6.999999999999999895e-06 1.665900000000000020e-02 1.142999999999999919e-02 1.500000000000000038e-05 3.080000000000000055e-04 1.126300000000000044e-02 1.200000000000000030e-05 3.060000000000000111e-04 1.126199999999999944e-02 2.000000000000000164e-05 3.029999999999999924e-04 1.126300000000000044e-02 1.200000000000000030e-05 2.999999999999999737e-04 1.124799999999999932e-02 1.200000000000000030e-05 3.029999999999999924e-04 1.124900000000000032e-02 1.000000000000000082e-05 3.060000000000000111e-04 1.124900000000000032e-02 -3.000000000000000076e-06 2.930000000000000204e-04 1.125699999999999965e-02 0.000000000000000000e+00 2.959999999999999849e-04 1.125800000000000065e-02 -6.999999999999999895e-06 2.950000000000000148e-04 1.125899999999999991e-02 -1.099999999999999971e-05 5.856000000000000094e-03 -5.039999999999999992e-04 -1.200000000000000030e-05 5.858000000000000360e-03 -5.050000000000000235e-04 -1.500000000000000038e-05 5.858999999999999625e-03 -5.069999999999999637e-04 -7.999999999999999638e-06 5.863000000000000156e-03 -5.130000000000000011e-04 -3.999999999999999819e-06 5.860999999999999890e-03 -5.169999999999999899e-04 -6.000000000000000152e-06 5.863000000000000156e-03 -5.109999999999999525e-04 -2.900000000000000017e-05 5.847999999999999900e-03 -5.119999999999999768e-04 -3.100000000000000135e-05 5.850000000000000165e-03 -5.109999999999999525e-04 -2.599999999999999840e-05 5.849000000000000032e-03 -5.140000000000000254e-04 -6.000000000000000152e-06 -6.272999999999999930e-03 5.310000000000000050e-04 -7.999999999999999638e-06 -6.270999999999999665e-03 5.270000000000000162e-04 -5.000000000000000409e-06 -6.270999999999999665e-03 5.310000000000000050e-04 -2.199999999999999943e-05 -6.283999999999999655e-03 5.280000000000000405e-04 -2.400000000000000061e-05 -6.282000000000000257e-03 5.289999999999999564e-04 -2.500000000000000120e-05 -6.279999999999999992e-03 5.320000000000000293e-04 -1.599999999999999928e-05 -6.276999999999999594e-03 5.240000000000000517e-04 -1.399999999999999979e-05 -6.276999999999999594e-03 5.259999999999999919e-04 -1.500000000000000038e-05 -6.276999999999999594e-03 5.199999999999999544e-04
-3.327999999999999708e-02 2.534900000000000000e-02 -1.435099999999999917e-02 7.396999999999999929e-03 -1.536900000000000072e-02 1.668800000000000144e-02 6.089999999999999927e-03 -7.661000000000000275e-03 -3.738899999999999862e-02 2.828200000000000158e-02 7.905000000000000568e-03 -5.975000000000000276e-03 4.049900000000000028e-02 8.459999999999999638e-04 1.530100000000000036e-02 5.150000000000000064e-03 1.703000000000000000e-02 2.313300000000000078e-02 7.926000000000000753e-03 2.489699999999999899e-02 -8.156000000000000055e-03 -1.994399999999999992e-02 -2.235000000000000007e-03 2.971700000000000036e-02 -2.048699999999999827e-02 8.852000000000000493e-03 -3.669800000000000145e-02 -8.554000000000000839e-03 -1.880300000000000027e-02 1.629000000000000023e-03 -4.008000000000000278e-03 -4.283200000000000202e-02 -2.472699999999999898e-02 -2.197100000000000095e-02 -5.233999999999999764e-02 -4.111599999999999977e-02 2.024000000000000105e-02 -3.648799999999999960e-02 1.876000000000000063e-03 -3.282199999999999701e-02 -1.454500000000000064e-02 -1.947300000000000073e-02 -1.055299999999999988e-02 -4.433000000000000308e-03 -1.389600000000000037e-02 -1.213299999999999969e-02 -1.568200000000000149e-02 3.141599999999999948e-02 6.257400000000000462e-02 -1.808799999999999991e-02 -2.308999999999999855e-03 3.970900000000000124e-02 -1.040300000000000079e-02 -1.759600000000000053e-02 -2.667299999999999879e-02 -7.367000000000000284e-03 3.543700000000000322e-02 -5.400000000000000069e-04 2.300999999999999920e-02 -2.500000000000000052e-04 -1.017500000000000002e-02 1.806699999999999973e-02 2.270300000000000096e-02 1.678599999999999884e-02 2.543199999999999975e-02 4.322000000000000321e-03 2.965599999999999833e-02 4.724199999999999927e-02 2.991399999999999962e-02 -1.629999999999999939e-03 1.379200000000000044e-02 4.009000000000000410e-03 -1.592899999999999872e-02 2.041700000000000112e-02 2.281700000000000048e-02 -2.436299999999999924e-02 1.873500000000000165e-02 -1.243900000000000040e-02 2.683699999999999974e-02 3.053099999999999911e-02 2.505999999999999894e-02 5.273300000000000209e-02 1.187399999999999914e-02 2.334599999999999870e-02 2.972999999999999948e-03 -3.657799999999999940e-02 2.844000000000000000e-02 -1.263099999999999987e-02 1.302099999999999959e-02 5.293899999999999995e-02 1.259999999999999998e-04 4.591999999999999728e-03 5.081200000000000300e-02 -5.067000000000000323e-03 -2.568600000000000050e-02 3.090199999999999891e-02 5.154999999999999860e-03 1.269999999999999948e-02 3.956400000000000194e-02 -1.876399999999999943e-02 -4.643999999999999691e-03 -1.650199999999999931e-02 -4.499999999999999877e-04 3.080400000000000152e-02 2.086999999999999880e-03 5.864000000000000289e-03 -3.694800000000000167e-02 -1.264299999999999972e-02 -1.527099999999999985e-02 -7.113000000000000399e-03 6.895600000000000340e-02 2.684299999999999881e-02 6.926999999999999998e-03 -5.241900000000000032e-02 -7.069999999999999462e-04 -1.293000000000000095e-03 -1.277000000000000010e-02 2.821999999999999856e-02 -3.652999999999999997e-03 -2.086999999999999880e-03 2.435100000000000112e-02 3.840500000000000164e-02 -4.638199999999999962e-02 -4.027499999999999830e-02 -6.731000000000000004e-03 -9.988000000000000350e-03 -9.091000000000000122e-03 -1.461299999999999925e-02 -4.149400000000000310e-02 -3.655200000000000116e-02 2.431699999999999834e-02 -7.684999999999999991e-03 6.922000000000000201e-03 -8.918399999999999939e-02 -1.389999999999999916e-02 -4.737299999999999844e-02 -1.518800000000000011e-02 6.052000000000000088e-03 4.152399999999999841e-02 -5.392000000000000091e-03 -3.499700000000000033e-02 4.402600000000000263e-02 2.383599999999999955e-02 -5.057799999999999796e-02 4.218600000000000128e-02 -5.310200000000000337e-02 -3.606700000000000184e-02 3.200000000000000153e-03 4.938499999999999834e-02 8.780999999999999917e-02 -2.767599999999999921e-02 3.482199999999999879e-02 5.009999999999999697e-03 -1.776000000000000148e-02 3.807399999999999674e-02 -2.562499999999999847e-02 -7.256500000000000450e-02 -1.027999999999999921e-02 -4.899799999999999989e-02 -2.816000000000000100e-02 -1.507900000000000039e-02 -1.409299999999999962e-02
-6.603399999999999548e-02 5.114500000000000296e-02 -1.788999999999999965e-02 1.472500000000000024e-02 -2.979800000000000157e-02 4.407799999999999913e-02 1.211199999999999950e-02 -1.462100000000000032e-02 -6.308900000000000619e-02 5.643600000000000005e-02 1.641899999999999957e-02 -9.009999999999999997e-04 8.033300000000000163e-02 2.315999999999999916e-03 4.104800000000000115e-02 1.004700000000000037e-02 3.434799999999999659e-02 5.671899999999999858e-02 1.555899999999999991e-02 5.045600000000000085e-02 -5.190000000000000169e-03 -3.945599999999999802e-02 -3.984999999999999827e-03 6.977400000000000269e-02 -4.087299999999999961e-02 1.832400000000000001e-02 -6.215500000000000191e-02 -1.716900000000000023e-02 -2.162199999999999886e-02 1.454500000000000064e-02 -7.998999999999999166e-03 -6.945700000000000485e-02 -3.830399999999999777e-02 -4.396200000000000108e-02 -8.848200000000000509e-02 -7.117099999999999815e-02 4.037600000000000217e-02 -5.659200000000000341e-02 1.466100000000000042e-02 -6.554999999999999716e-02 -1.327200000000000081e-02 -2.770299999999999846e-02 -2.099200000000000024e-02 6.994000000000000217e-03 -1.645900000000000141e-02 -2.386999999999999886e-02 -1.541799999999999941e-02 7.330200000000000604e-02 1.245020000000000016e-01 -2.102700000000000055e-02 5.401999999999999684e-03 7.902299999999999602e-02 -4.932999999999999885e-03 -2.404099999999999987e-02 -5.371499999999999886e-02 -3.154099999999999959e-02 5.982200000000000017e-02 -1.064999999999999974e-03 2.914599999999999830e-02 -1.181600000000000011e-02 -2.036500000000000116e-02 1.950400000000000050e-02 3.400700000000000250e-02 3.343399999999999844e-02 3.418299999999999811e-02 -2.681999999999999922e-03 5.910200000000000176e-02 7.776700000000000279e-02 4.847300000000000220e-02 -3.207000000000000215e-03 1.082600000000000055e-02 -3.288000000000000124e-03 -3.186699999999999949e-02 2.428100000000000050e-02 3.405199999999999894e-02 -4.839100000000000346e-02 2.051700000000000051e-02 -3.593500000000000166e-02 5.346800000000000164e-02 4.407200000000000006e-02 3.891100000000000114e-02 1.050829999999999959e-01 2.292200000000000140e-02 3.591300000000000048e-02 5.977999999999999807e-03 -7.317500000000000393e-02 4.585600000000000093e-02 -2.541500000000000009e-02 2.580400000000000055e-02 9.454100000000000004e-02 2.950000000000000148e-04 8.947999999999999357e-03 9.037199999999999400e-02 -9.981999999999999554e-03 -5.142999999999999655e-02 5.037900000000000017e-02 1.022600000000000071e-02 2.504199999999999829e-02 6.764799999999999980e-02 -3.727899999999999964e-02 -9.497999999999999499e-03 -4.377299999999999941e-02 -7.950000000000000252e-04 6.110299999999999759e-02 -6.559999999999999859e-03 1.170000000000000033e-02 -7.315299999999999581e-02 -3.568500000000000144e-02 -3.025699999999999917e-02 -1.990099999999999855e-02 1.379440000000000111e-01 5.316599999999999798e-02 8.049999999999999864e-03 -1.032799999999999968e-01 -1.484999999999999992e-03 -8.503999999999999407e-03 -2.478800000000000101e-02 5.624599999999999739e-02 -1.289299999999999995e-02 -3.514000000000000196e-03 4.887099999999999778e-02 7.051499999999999435e-02 -9.219099999999999517e-02 -8.006900000000000128e-02 -1.901399999999999965e-02 -1.918200000000000113e-02 -1.796800000000000133e-02 -3.463700000000000112e-02 -8.166400000000000048e-02 -7.239099999999999702e-02 4.247299999999999687e-02 -1.456000000000000003e-02 1.365599999999999974e-02 -1.829149999999999943e-01 -2.665400000000000061e-02 -9.423099999999999532e-02 -2.382400000000000143e-02 1.127599999999999957e-02 8.263500000000000012e-02 -4.428999999999999777e-03 -7.002600000000000491e-02 8.815399999999999625e-02 5.353100000000000219e-02 -1.006029999999999980e-01 8.354300000000000614e-02 -9.927900000000000613e-02 -7.232299999999999840e-02 6.086000000000000264e-03 1.044770000000000004e-01 1.740530000000000133e-01 -5.503600000000000159e-02 7.523100000000000620e-02 9.731000000000000066e-03 -3.552999999999999908e-02 8.194899999999999407e-02 -5.178300000000000264e-02 -1.438210000000000044e-01 -1.405400000000000052e-02 -9.754999999999999782e-02 -5.604499999999999760e-02 -2.370500000000000038e-02 -2.837999999999999898e-02
-9.806900000000000339e-02 7.676199999999999690e-02 -2.186300000000000049e-02 2.187300000000000008e-02 -4.392499999999999877e-02 7.082600000000000007e-02 1.822199999999999862e-02 -2.151399999999999840e-02 -8.856100000000000083e-02 8.421199999999999519e-02 2.457200000000000009e-02 3.792999999999999931e-03 1.193929999999999991e-01 3.651000000000000165e-03 6.580900000000000638e-02 1.462100000000000032e-02 5.132099999999999856e-02 8.963999999999999746e-02 2.305199999999999957e-02 7.593199999999999950e-02 -2.413999999999999913e-03 -5.836800000000000321e-02 -5.705000000000000002e-03 1.086389999999999995e-01 -6.121100000000000152e-02 2.759500000000000147e-02 -8.778299999999999992e-02 -2.588599999999999929e-02 -2.439699999999999855e-02 2.733199999999999866e-02 -1.213900000000000048e-02 -9.573600000000000165e-02 -5.221400000000000347e-02 -6.604999999999999760e-02 -1.245050000000000046e-01 -1.017379999999999951e-01 6.030100000000000043e-02 -7.602399999999999436e-02 2.700999999999999929e-02 -9.775000000000000355e-02 -1.224100000000000014e-02 -3.606399999999999884e-02 -3.111200000000000077e-02 1.839599999999999916e-02 -1.943299999999999889e-02 -3.512400000000000244e-02 -1.520499999999999977e-02 1.140820000000000028e-01 1.855209999999999915e-01 -2.483799999999999897e-02 1.197100000000000074e-02 1.177669999999999967e-01 3.629999999999999872e-04 -3.074899999999999856e-02 -8.092299999999999494e-02 -5.545900000000000135e-02 8.436499999999999555e-02 -1.747000000000000072e-03 3.499700000000000033e-02 -2.342699999999999991e-02 -3.019799999999999915e-02 2.082900000000000029e-02 4.529600000000000293e-02 4.957199999999999801e-02 4.272900000000000309e-02 -9.707999999999999616e-03 8.816899999999999737e-02 1.080910000000000065e-01 6.716300000000000048e-02 -4.678999999999999999e-03 7.848000000000000809e-03 -1.068799999999999958e-02 -4.760199999999999848e-02 2.807099999999999873e-02 4.490799999999999653e-02 -7.185999999999999333e-02 2.222000000000000017e-02 -5.865100000000000174e-02 7.953300000000000647e-02 5.709899999999999698e-02 5.299000000000000238e-02 1.569830000000000114e-01 3.354000000000000037e-02 4.889700000000000296e-02 8.751999999999999363e-03 -1.092909999999999993e-01 6.323199999999999654e-02 -3.820799999999999891e-02 3.856799999999999812e-02 1.358650000000000135e-01 5.259999999999999919e-04 1.349599999999999932e-02 1.297560000000000102e-01 -1.479399999999999986e-02 -7.717999999999999861e-02 6.991500000000000492e-02 1.524299999999999961e-02 3.737800000000000150e-02 9.568999999999999728e-02 -5.541700000000000098e-02 -1.420399999999999961e-02 -7.052600000000000535e-02 -9.110000000000000259e-04 9.104099999999999693e-02 -1.490200000000000032e-02 1.727899999999999922e-02 -1.080760000000000054e-01 -5.778300000000000103e-02 -4.474899999999999711e-02 -3.237000000000000294e-02 2.060919999999999974e-01 7.908999999999999364e-02 9.221999999999999295e-03 -1.527239999999999986e-01 -2.243000000000000202e-03 -1.559400000000000022e-02 -3.662300000000000277e-02 8.381199999999999761e-02 -2.185399999999999843e-02 -4.785000000000000191e-03 7.320899999999999630e-02 1.019950000000000023e-01 -1.375840000000000118e-01 -1.191510000000000069e-01 -3.112399999999999889e-02 -2.801100000000000118e-02 -2.653799999999999909e-02 -5.428299999999999792e-02 -1.209530000000000050e-01 -1.074279999999999957e-01 6.020099999999999757e-02 -2.108600000000000058e-02 2.001999999999999960e-02 -2.749170000000000225e-01 -3.866599999999999898e-02 -1.402140000000000053e-01 -3.216600000000000015e-02 1.608300000000000007e-02 1.231560000000000016e-01 -3.220000000000000206e-03 -1.044299999999999951e-01 1.320020000000000082e-01 8.257599999999999663e-02 -1.494709999999999928e-01 1.238279999999999936e-01 -1.445390000000000008e-01 -1.079490000000000033e-01 8.491999999999999549e-03 1.585290000000000032e-01 2.588590000000000058e-01 -8.202800000000000369e-02 1.148890000000000050e-01 1.454199999999999937e-02 -5.329899999999999916e-02 1.252040000000000097e-01 -7.771200000000000330e-02 -2.135410000000000086e-01 -1.742799999999999905e-02 -1.448720000000000008e-01 -8.353199999999999514e-02 -3.205100000000000310e-02 -4.218199999999999728e-02
-1.292750000000000010e-01 1.016940000000000066e-01 -2.632699999999999971e-02 2.877400000000000097e-02 -5.761600000000000055e-02 9.656900000000000206e-02 2.403299999999999881e-02 -2.828100000000000058e-02 -1.135059999999999958e-01 1.118240000000000067e-01 3.253400000000000042e-02 7.879999999999999852e-03 1.575330000000000064e-01 5.035999999999999678e-03 8.923799999999999788e-02 1.896700000000000122e-02 6.774900000000000366e-02 1.214189999999999992e-01 3.006999999999999951e-02 1.013379999999999975e-01 1.879999999999999890e-04 -7.660500000000000642e-02 -7.603999999999999648e-03 1.462940000000000074e-01 -8.118000000000000216e-02 3.656500000000000028e-02 -1.131080000000000002e-01 -3.487699999999999828e-02 -2.724999999999999992e-02 3.987399999999999972e-02 -1.621799999999999978e-02 -1.214589999999999975e-01 -6.639499999999999569e-02 -8.812200000000000588e-02 -1.600409999999999888e-01 -1.325840000000000074e-01 7.995499999999999829e-02 -9.485000000000000375e-02 3.872099999999999848e-02 -1.292899999999999883e-01 -1.120499999999999968e-02 -4.432500000000000329e-02 -4.092300000000000104e-02 2.960899999999999990e-02 -2.263400000000000134e-02 -4.575100000000000000e-02 -1.504100000000000055e-02 1.533579999999999943e-01 2.451740000000000030e-01 -2.946500000000000161e-02 1.722299999999999873e-02 1.557759999999999978e-01 5.524000000000000264e-03 -3.758700000000000235e-02 -1.081740000000000063e-01 -7.921599999999999475e-02 1.089320000000000010e-01 -2.648999999999999879e-03 4.056900000000000089e-02 -3.495800000000000296e-02 -3.987799999999999678e-02 2.198200000000000154e-02 5.648399999999999949e-02 6.542299999999999505e-02 5.126100000000000101e-02 -1.665300000000000114e-02 1.167419999999999985e-01 1.382369999999999988e-01 8.590299999999999325e-02 -5.891000000000000403e-03 4.748999999999999749e-03 -1.797800000000000092e-02 -6.331399999999999528e-02 3.185700000000000337e-02 5.505800000000000277e-02 -9.467499999999999527e-02 2.362900000000000070e-02 -8.076200000000000045e-02 1.050220000000000042e-01 6.945700000000000485e-02 6.692800000000000138e-02 2.079809999999999992e-01 4.354199999999999737e-02 6.213099999999999873e-02 1.147300000000000056e-02 -1.446510000000000018e-01 8.019700000000000439e-02 -5.088199999999999668e-02 5.147299999999999792e-02 1.763520000000000088e-01 9.070000000000000371e-04 1.806400000000000020e-02 1.686989999999999879e-01 -1.962699999999999861e-02 -1.026389999999999941e-01 8.938000000000000111e-02 2.005900000000000044e-02 4.951400000000000245e-02 1.232010000000000050e-01 -7.303700000000000470e-02 -1.867399999999999963e-02 -9.658200000000000118e-02 -8.949999999999999623e-04 1.203649999999999998e-01 -2.270799999999999902e-02 2.262300000000000075e-02 -1.414529999999999954e-01 -7.878200000000000480e-02 -5.877000000000000279e-02 -4.459599999999999675e-02 2.725960000000000050e-01 1.041210000000000052e-01 1.036399999999999995e-02 -2.002079999999999971e-01 -3.256000000000000213e-03 -2.260900000000000062e-02 -4.807700000000000168e-02 1.107140000000000069e-01 -3.042200000000000112e-02 -5.871000000000000350e-03 9.726799999999999335e-02 1.325280000000000069e-01 -1.820120000000000071e-01 -1.570950000000000124e-01 -4.281999999999999695e-02 -3.631399999999999906e-02 -3.467200000000000143e-02 -7.334300000000000541e-02 -1.588380000000000070e-01 -1.412380000000000024e-01 7.747500000000000220e-02 -2.713300000000000087e-02 2.617900000000000088e-02 -3.642310000000000270e-01 -4.980300000000000005e-02 -1.849679999999999935e-01 -4.018200000000000244e-02 2.051199999999999898e-02 1.626430000000000098e-01 -1.708000000000000100e-03 -1.377349999999999963e-01 1.751709999999999934e-01 1.105720000000000036e-01 -1.964529999999999887e-01 1.626789999999999903e-01 -1.885270000000000001e-01 -1.425319999999999920e-01 1.031699999999999978e-02 2.111649999999999916e-01 3.412410000000000165e-01 -1.083210000000000006e-01 1.533019999999999938e-01 1.943800000000000042e-02 -7.079299999999999482e-02 1.673340000000000105e-01 -1.030739999999999990e-01 -2.808749999999999858e-01 -2.032199999999999979e-02 -1.904129999999999989e-01 -1.103640000000000038e-01 -3.996199999999999752e-02 -5.535199999999999843e-02
-1.594720000000000026e-01 1.260209999999999941e-01 -3.117199999999999832e-02 3.547399999999999859e-02 -7.090799999999999881e-02 1.212420000000000025e-01 2.967200000000000046e-02 -3.480199999999999960e-02 -1.378719999999999946e-01 1.391100000000000114e-01 4.015900000000000025e-02 1.141099999999999927e-02 1.945749999999999980e-01 6.439000000000000279e-03 1.113679999999999948e-01 2.301299999999999873e-02 8.354899999999999827e-02 1.520930000000000060e-01 3.665899999999999714e-02 1.266940000000000011e-01 2.615000000000000137e-03 -9.413499999999999646e-02 -9.679999999999999369e-03 1.824709999999999943e-01 -1.008000000000000007e-01 4.500099999999999933e-02 -1.381620000000000070e-01 -4.408900000000000319e-02 -3.009500000000000022e-02 5.204799999999999705e-02 -2.050799999999999845e-02 -1.464870000000000061e-01 -8.100699999999999568e-02 -1.101899999999999963e-01 -1.951950000000000074e-01 -1.638179999999999914e-01 9.920800000000000451e-02 -1.127370000000000039e-01 4.979399999999999799e-02 -1.597189999999999999e-01 -1.031199999999999999e-02 -5.246300000000000269e-02 -5.016199999999999826e-02 4.078099999999999781e-02 -2.649299999999999919e-02 -5.575900000000000301e-02 -1.497599999999999973e-02 1.910330000000000084e-01 3.031960000000000210e-01 -3.486800000000000316e-02 2.152199999999999946e-02 1.927659999999999929e-01 1.056299999999999947e-02 -4.450400000000000189e-02 -1.352520000000000111e-01 -1.023430000000000034e-01 1.333249999999999991e-01 -3.726999999999999844e-03 4.569100000000000245e-02 -4.655200000000000310e-02 -4.909000000000000169e-02 2.295000000000000165e-02 6.767499999999999905e-02 8.074199999999999433e-02 5.970099999999999713e-02 -2.369999999999999885e-02 1.446159999999999946e-01 1.680169999999999997e-01 1.044739999999999974e-01 -6.853999999999999850e-03 1.502000000000000080e-03 -2.531900000000000123e-02 -7.883700000000000430e-02 3.565700000000000119e-02 6.421100000000000418e-02 -1.167770000000000058e-01 2.473300000000000151e-02 -1.020609999999999989e-01 1.296219999999999872e-01 8.086400000000000532e-02 8.074800000000000033e-02 2.579440000000000066e-01 5.299899999999999750e-02 7.554299999999999904e-02 1.379400000000000071e-02 -1.790090000000000015e-01 9.655800000000000494e-02 -6.334800000000000153e-02 6.430199999999999805e-02 2.157949999999999868e-01 1.449999999999999900e-03 2.288000000000000103e-02 2.068800000000000083e-01 -2.436899999999999830e-02 -1.279760000000000064e-01 1.089169999999999999e-01 2.480600000000000166e-02 6.155999999999999667e-02 1.503390000000000004e-01 -9.011199999999999766e-02 -2.289599999999999969e-02 -1.219699999999999951e-01 -6.319999999999999663e-04 1.488559999999999883e-01 -3.025500000000000064e-02 2.752800000000000039e-02 -1.730879999999999919e-01 -9.854999999999999871e-02 -7.214800000000000380e-02 -5.635300000000000031e-02 3.369289999999999785e-01 1.282439999999999969e-01 1.159800000000000067e-02 -2.452910000000000090e-01 -4.359000000000000027e-03 -2.955999999999999947e-02 -5.908900000000000263e-02 1.367859999999999909e-01 -3.851099999999999662e-02 -6.749999999999999924e-03 1.207379999999999981e-01 1.620060000000000111e-01 -2.250560000000000060e-01 -1.936039999999999983e-01 -5.418099999999999999e-02 -4.399000000000000132e-02 -4.242900000000000144e-02 -9.176199999999999635e-02 -1.950359999999999872e-01 -1.736520000000000008e-01 9.414799999999999558e-02 -3.262400000000000022e-02 3.192799999999999805e-02 -4.503719999999999946e-01 -5.998799999999999966e-02 -2.279259999999999897e-01 -4.776799999999999796e-02 2.452899999999999872e-02 2.008530000000000038e-01 1.169999999999999979e-04 -1.696519999999999972e-01 2.173059999999999992e-01 1.373969999999999914e-01 -2.411800000000000055e-01 1.998260000000000036e-01 -2.307760000000000089e-01 -1.757170000000000121e-01 1.166299999999999976e-02 2.618190000000000239e-01 4.205329999999999901e-01 -1.336789999999999923e-01 1.903440000000000132e-01 2.437599999999999836e-02 -8.806799999999999351e-02 2.080210000000000115e-01 -1.275580000000000047e-01 -3.455389999999999850e-01 -2.287700000000000150e-02 -2.337629999999999986e-01 -1.364170000000000105e-01 -4.740199999999999969e-02 -6.774399999999999866e-02
-1.887030000000000096e-01 1.493619999999999948e-01 -3.639200000000000074e-02 4.193999999999999811e-02 -8.382399999999999574e-02 1.445760000000000101e-01 3.490200000000000247e-02 -4.091899999999999704e-02 -1.613950000000000107e-01 1.662540000000000129e-01 4.741399999999999781e-02 1.417400000000000083e-02 2.305129999999999957e-01 8.068999999999999784e-03 1.319549999999999890e-01 2.673499999999999835e-02 9.861899999999999833e-02 1.813899999999999957e-01 4.267599999999999866e-02 1.520930000000000060e-01 4.847999999999999879e-03 -1.110280000000000017e-01 -1.201699999999999990e-02 2.171460000000000057e-01 -1.197750000000000065e-01 5.269599999999999979e-02 -1.625300000000000078e-01 -5.372199999999999892e-02 -3.303999999999999992e-02 6.384399999999999797e-02 -2.484600000000000003e-02 -1.706489999999999951e-01 -9.592799999999999938e-02 -1.321960000000000079e-01 -2.297160000000000035e-01 -1.952069999999999916e-01 1.179940000000000017e-01 -1.297689999999999955e-01 6.009599999999999664e-02 -1.889250000000000096e-01 -9.313000000000000098e-03 -6.025599999999999706e-02 -5.882099999999999829e-02 5.178300000000000264e-02 -3.085099999999999995e-02 -6.499599999999999822e-02 -1.502700000000000043e-02 2.268310000000000048e-01 3.592659999999999743e-01 -4.093900000000000317e-02 2.480999999999999872e-02 2.286179999999999879e-01 1.553999999999999999e-02 -5.133700000000000069e-02 -1.621100000000000041e-01 -1.248670000000000058e-01 1.574339999999999906e-01 -5.021000000000000289e-03 5.028400000000000231e-02 -5.810900000000000093e-02 -5.788299999999999695e-02 2.375400000000000081e-02 7.878899999999999793e-02 9.566500000000000004e-02 6.805899999999999450e-02 -3.076100000000000015e-02 1.717680000000000040e-01 1.975220000000000031e-01 1.228609999999999980e-01 -7.538000000000000429e-03 -1.953000000000000092e-03 -3.259800000000000197e-02 -9.421999999999999820e-02 3.954900000000000082e-02 7.211599999999999955e-02 -1.382200000000000095e-01 2.545400000000000093e-02 -1.226209999999999939e-01 1.533490000000000131e-01 9.105699999999999905e-02 9.411899999999999433e-02 3.065599999999999992e-01 6.182499999999999801e-02 8.892500000000000404e-02 1.586399999999999963e-02 -2.121039999999999870e-01 1.118740000000000012e-01 -7.544099999999999417e-02 7.720599999999999685e-02 2.536300000000000221e-01 2.190000000000000106e-03 2.778299999999999867e-02 2.441170000000000007e-01 -2.921899999999999845e-02 -1.530249999999999944e-01 1.284309999999999896e-01 2.934600000000000056e-02 7.332199999999999829e-02 1.766500000000000015e-01 -1.064979999999999954e-01 -2.680700000000000097e-02 -1.465670000000000028e-01 -1.749999999999999982e-04 1.763309999999999877e-01 -3.739100000000000062e-02 3.195200000000000123e-02 -2.027970000000000050e-01 -1.170510000000000023e-01 -8.488800000000000512e-02 -6.772799999999999654e-02 3.985020000000000229e-01 1.511419999999999986e-01 1.280799999999999994e-02 -2.876099999999999768e-01 -5.785000000000000211e-03 -3.642200000000000298e-02 -6.954000000000000459e-02 1.618620000000000059e-01 -4.602799999999999947e-02 -7.385000000000000071e-03 1.435049999999999937e-01 1.901430000000000065e-01 -2.662700000000000067e-01 -2.283469999999999944e-01 -6.500899999999999734e-02 -5.088800000000000268e-02 -4.970900000000000318e-02 -1.094590000000000007e-01 -2.292299999999999893e-01 -2.044159999999999866e-01 1.101850000000000052e-01 -3.748200000000000143e-02 3.738299999999999956e-02 -5.325929999999999831e-01 -6.913700000000000401e-02 -2.688849999999999851e-01 -5.495099999999999985e-02 2.818199999999999872e-02 2.374269999999999992e-01 2.331999999999999872e-03 -1.998540000000000039e-01 2.580140000000000211e-01 1.626730000000000120e-01 -2.832020000000000093e-01 2.350230000000000097e-01 -2.710480000000000111e-01 -2.071659999999999890e-01 1.240899999999999989e-02 3.102219999999999978e-01 4.961169999999999747e-01 -1.578819999999999946e-01 2.256589999999999985e-01 2.931599999999999831e-02 -1.048540000000000028e-01 2.469310000000000116e-01 -1.508859999999999923e-01 -4.068809999999999927e-01 -2.494199999999999889e-02 -2.745710000000000095e-01 -1.614710000000000034e-01 -5.422600000000000336e-02 -7.924499999999999600e-02