-6.433914364818681120e-02 -1.103060079409610723e-03 0.000000000000000000e+00 -1.103060079409610723e-03 6.466463678637324186e-02 -9.660093852809968906e-01 0.000000000000000000e+00 -9.660093852809968906e-01 4.643702104793246410e-01
-4.744966636673473431e-02 -3.914959134298044707e-02 -5.464668131107940779e-02 -3.914959134298044707e-02 8.260292529087051583e-02 -9.472031150746692552e-01 -5.464668131107940779e-02 -9.472031150746692552e-01 5.027964837374463425e-01
-1.676289661660178981e-02 -7.645472156957104637e-02 -1.091667819573085285e-01 -7.645472156957104637e-02 1.129822848549384973e-01 -9.269863746028669249e-01 -1.091667819573085285e-01 -9.269863746028669249e-01 5.591429625479438226e-01
2.638302714522331588e-02 -1.128918700943311454e-01 -1.636687996514161747e-01 -1.128918700943311454e-01 1.545188258779528478e-01 -9.055580763389260435e-01 -1.636687996514161747e-01 -9.055580763389260435e-01 6.310226972307831916e-01
8.262100824299199731e-02 -1.481897926354386885e-01 -2.179538219200662097e-01 -1.481897926354386885e-01 2.078816175884079798e-01 -8.831171327561829765e-01 -2.179538219200662097e-01 -8.831171327561829765e-01 7.201535682375040937e-01
1.496906776615206380e-01 -1.820772449110716618e-01 -2.719495169547727076e-01 -1.820772449110716618e-01 2.709187886838489989e-01 -8.599709540407025621e-01 -2.719495169547727076e-01 -8.599709540407025621e-01 8.209660263146939529e-01
2.256752424759334852e-01 -2.144457292085012179e-01 -3.254569722821996081e-01 -2.144457292085012179e-01 3.418943757606149325e-01 -8.363727015221855687e-01 -3.254569722821996081e-01 -8.363727015221855687e-01 9.313624490162624170e-01
3.066507020758718061e-01 -2.449878353416623800e-01 -3.784581049502253047e-01 -2.449878353416623800e-01 4.167397145913752654e-01 -8.127021171951825940e-01 -3.784581049502253047e-01 -8.127021171951825940e-01 1.046062614322740281e+00
3.932137938813440314e-01 -2.738120610232840368e-01 -4.308805831503640382e-01 -2.738120610232840368e-01 4.967025288725112619e-01 -7.893208601021231008e-01 -4.308805831503640382e-01 -7.893208601021231008e-01 1.166296162978388118e+00
4.816575127074490537e-01 -3.004663324503293875e-01 -4.824350796486722714e-01 -3.004663324503293875e-01 5.775514078075992819e-01 -7.664097597642218762e-01 -4.824350796486722714e-01 -7.664097597642218762e-01 1.283527941581871668e+00
3.463517269222925421e+01 -1.190964638258616404e+01 2.290027438413865113e+01 -1.190964638258616404e+01 3.979916086618828786e+01 2.026451700896607200e+00 2.290027438413865113e+01 2.026451700896607200e+00 2.630582745623337360e+01
3.449419185760138618e+01 -1.196433122778900504e+01 2.295781083971136738e+01 -1.196433122778900504e+01 3.975967301771272133e+01 2.004456047738707891e+00 2.295781083971136738e+01 2.004456047738707891e+00 2.608028941899138786e+01
3.431857438970037322e+01 -1.200863551573076471e+01 2.296942593560818580e+01 -1.200863551573076471e+01 3.967749795302952975e+01 1.974218545097137012e+00 2.296942593560818580e+01 1.974218545097137012e+00 2.574539907921183257e+01
3.411560580526388264e+01 -1.204186373168708535e+01 2.293478930233503732e+01 -1.204186373168708535e+01 3.955926044988824941e+01 1.936295604751383737e+00 2.293478930233503732e+01 1.936295604751383737e+00 2.531249332690178022e+01
3.388352992961291221e+01 -1.206338991240604308e+01 2.285365750973839027e+01 -1.206338991240604308e+01 3.940273486117093427e+01 1.891295802085262379e+00 2.285365750973839027e+01 1.891295802085262379e+00 2.477804242483509967e+01
3.362392905874537519e+01 -1.207276197331679768e+01 2.272547414603875993e+01 -1.207276197331679768e+01 3.920919050124953031e+01 1.839879876086916388e+00 2.272547414603875993e+01 1.839879876086916388e+00 2.414446328667894903e+01
3.333226495908481724e+01 -1.206964954492528541e+01 2.254992622961017901e+01 -1.206964954492528541e+01 3.897384570639406576e+01 1.782934608029904444e+00 2.254992622961017901e+01 1.782934608029904444e+00 2.340547889204596999e+01
3.300914620601506755e+01 -1.205358315479255893e+01 2.232626608212396846e+01 -1.205358315479255893e+01 3.869736121559267161e+01 1.721085961166151534e+00 2.232626608212396846e+01 1.721085961166151534e+00 2.256413211785524453e+01
3.265309483074684493e+01 -1.202461496652294670e+01 2.205390251606441865e+01 -1.202461496652294670e+01 3.837853726594584458e+01 1.655290268241652818e+00 2.205390251606441865e+01 1.655290268241652818e+00 2.161743225079201736e+01
3.226345009429201127e+01 -1.198243199849048501e+01 2.173193136228985622e+01 -1.198243199849048501e+01 3.801690438501462665e+01 1.586103941035897025e+00 2.173193136228985622e+01 1.586103941035897025e+00 2.056795269533642667e+01
-1.129602463324620487e+01 -9.528112493620140455e+00 -8.279854508785239986e+00 -9.528112493620140455e+00 1.229991774363318235e+01 -1.295139311151178596e+01 -8.279854508785239986e+00 -1.295139311151178596e+01 -3.181217731391421566e+01
-1.133076438792081930e+01 -9.527856920017699238e+00 -8.293947567434111434e+00 -9.527856920017699238e+00 1.224546231105600036e+01 -1.274857720271779016e+01 -8.293947567434111434e+00 -1.274857720271779016e+01 -3.194197219343944028e+01
-1.130528004870602032e+01 -9.524826547303044677e+00 -8.299150315769511010e+00 -9.524826547303044677e+00 1.223345035174128803e+01 -1.252555272407366616e+01 -8.299150315769511010e+00 -1.252555272407366616e+01 -3.194401678225896646e+01
-1.121968114714571030e+01 -9.519003120218860303e+00 -8.295462753791438715e+00 -9.519003120218860303e+00 1.226406441826221894e+01 -1.228270303598307045e+01 -8.295462753791438715e+00 -1.228270303598307045e+01 -3.181747133853620113e+01
-1.107393117272525629e+01 -9.510532680823683194e+00 -8.282738839441355694e+00 -9.510532680823683194e+00 1.233774263679440253e+01 -1.202068532770942610e+01 -8.282738839441355694e+00 -1.202068532770942610e+01 -3.156155088620649707e+01
-1.086936275922881201e+01 -9.499250931801659803e+00 -8.260796020146091934e+00 -9.499250931801659803e+00 1.245353573395734514e+01 -1.174010202274419612e+01 -8.260796020146091934e+00 -1.174010202274419612e+01 -3.117859209820645816e+01
-1.060754585878565415e+01 -9.485285659954008963e+00 -8.229360467045887972e+00 -9.485285659954008963e+00 1.261031188379738488e+01 -1.144153728932153413e+01 -8.229360467045887972e+00 -1.144153728932153413e+01 -3.067142453942025426e+01
-1.029032425238482418e+01 -9.468472567964875353e+00 -8.188158351280987901e+00 -9.468472567964875353e+00 1.280631858161206615e+01 -1.112553878516095551e+01 -8.188158351280987901e+00 -1.112553878516095551e+01 -3.004368100605400116e+01
-9.920071123477551822e+00 -9.448884676863530174e+00 -8.136678525646509286e+00 -9.448884676863530174e+00 1.303987634372821169e+01 -1.079250812592343678e+01 -8.136678525646509286e+00 -1.079250812592343678e+01 -2.929957846254797005e+01
-9.498027829561408453e+00 -9.426302923562165148e+00 -8.074537629738790301e+00 -9.426302923562165148e+00 1.330988985470678543e+01 -1.044270088521141737e+01 -8.074537629738790301e+00 -1.044270088521141737e+01 -2.844194647378632723e+01
2.743967756390818469e+00 1.091990345229018544e+01 2.533455829752394362e+00 1.091990345229018544e+01 -6.105859515497243706e+00 -2.128907295102055031e+01 2.533455829752394362e+00 -2.128907295102055031e+01 9.549657247779839153e+00
2.808840907299856138e+00 1.098951900429804240e+01 2.476728024242091930e+00 1.098951900429804240e+01 -6.204725907870336954e+00 -2.124248157533978798e+01 2.476728024242091930e+00 -2.124248157533978798e+01 9.493074248409959282e+00
2.864898984410707339e+00 1.104713374741842991e+01 2.419945916429130595e+00 1.104713374741842991e+01 -6.302289044979631605e+00 -2.115603230950787861e+01 2.419945916429130595e+00 -2.115603230950787861e+01 9.409629709991806479e+00
2.912648809214848367e+00 1.109216845708965948e+01 2.363833537015621378e+00 1.109216845708965948e+01 -6.395942416297534905e+00 -2.102963464968706120e+01 2.363833537015621378e+00 -2.102963464968706120e+01 9.304916769699175916e+00
2.949194258903840460e+00 1.112427921872822800e+01 2.309277823611648017e+00 1.112427921872822800e+01 -6.486464354828812340e+00 -2.086354200662307079e+01 2.309277823611648017e+00 -2.086354200662307079e+01 9.175043762508231282e+00
2.971946923717641020e+00 1.114299541237776658e+01 2.256876101546451352e+00 1.114299541237776658e+01 -6.574361682064941093e+00 -2.065797158952655010e+01 2.256876101546451352e+00 -2.065797158952655010e+01 9.018363518571669957e+00
2.979169129971185992e+00 1.114820843343295742e+01 2.207080890008850105e+00 1.114820843343295742e+01 -6.659815405681450251e+00 -2.041281479379216890e+01 2.207080890008850105e+00 -2.041281479379216890e+01 8.834152007187384470e+00
2.966534794219370053e+00 1.113948386347253461e+01 2.160399010490321015e+00 1.113948386347253461e+01 -6.744925214714456274e+00 -2.012870514628428609e+01 2.160399010490321015e+00 -2.012870514628428609e+01 8.616291168922547428e+00
2.932179537404260294e+00 1.111693030710181418e+01 2.116902866061074917e+00 1.111693030710181418e+01 -6.831066767497969927e+00 -1.980526253088428490e+01 2.116902866061074917e+00 -1.980526253088428490e+01 8.363622554653780128e+00
2.873605453603577775e+00 1.108022195050484804e+01 2.076791565164192388e+00 1.108022195050484804e+01 -6.918384870172411993e+00 -1.944277655987301401e+01 2.076791565164192388e+00 -1.944277655987301401e+01 8.074517095301336767e+00
4.921673689231934645e+01 9.099509189146507637e+00 -1.079486861831743738e+01 9.099509189146507637e+00 2.427951407013282292e+01 -2.281338829636723986e+01 -1.079486861831743738e+01 -2.281338829636723986e+01 3.372989393620055409e+01
4.929894614214671833e+01 9.050993394279032600e+00 -1.081573805586609005e+01 9.050993394279032600e+00 2.425108576053282405e+01 -2.268175966236969998e+01 -1.081573805586609005e+01 -2.268175966236969998e+01 3.378855773400592710e+01
4.931807790795942736e+01 8.987968040416447479e+00 -1.080381762775753529e+01 8.987968040416447479e+00 2.418851220132158630e+01 -2.250168474037412381e+01 -1.080381762775753529e+01 -2.250168474037412381e+01 3.371029299901913845e+01
4.927277680580344565e+01 8.910937052362180921e+00 -1.075917684086120829e+01 8.910937052362180921e+00 2.409149798830399547e+01 -2.227366745518393643e+01 -1.075917684086120829e+01 -2.227366745518393643e+01 3.349325779920009438e+01
4.916083599257412118e+01 8.820769265984196750e+00 -1.068218060624165844e+01 8.820769265984196750e+00 2.395839233333090590e+01 -2.199864614953653685e+01 -1.068218060624165844e+01 -2.199864614953653685e+01 3.313512365442263530e+01
4.898413215374627327e+01 8.718194503411593743e+00 -1.057308957465927612e+01 8.718194503411593743e+00 2.379176699057151367e+01 -2.167700311121383905e+01 -1.057308957465927612e+01 -2.167700311121383905e+01 3.264065178524323585e+01
4.874409018014336681e+01 8.604220614251216759e+00 -1.043251193122164189e+01 8.604220614251216759e+00 2.359290783711041684e+01 -2.130953766921437520e+01 -1.043251193122164189e+01 -2.130953766921437520e+01 3.201274410346091770e+01
4.843605311151308968e+01 8.480255112609178525e+00 -1.026164666942655401e+01 8.480255112609178525e+00 2.335654972758770853e+01 -2.089784848153521324e+01 -1.026164666942655401e+01 -2.089784848153521324e+01 3.124441516869720203e+01
4.806321826384956353e+01 8.347566498852717842e+00 -1.006153639231557584e+01 8.347566498852717842e+00 2.308491688182539292e+01 -2.044290864434847421e+01 -1.006153639231557584e+01 -2.044290864434847421e+01 3.034338024345967000e+01
4.762574202760903574e+01 8.207458026783786664e+00 -9.833449600255947942e+00 8.207458026783786664e+00 2.277733160784645960e+01 -1.994577813741308603e+01 -9.833449600255947942e+00 -1.994577813741308603e+01 2.931052554033363933e+01
2.878131093086564718e+01 -1.202418996979537091e+01 -1.402830234766335948e+01 -1.202418996979537091e+01 -9.121526522221600430e+00 -1.575195271283707399e+01 -1.402830234766335948e+01 -1.575195271283707399e+01 4.346049106406476348e+00
2.882972273518016948e+01 -1.206341806021250918e+01 -1.409635510259825786e+01 -1.206341806021250918e+01 -9.246995425956344050e+00 -1.563216981946457906e+01 -1.409635510259825786e+01 -1.563216981946457906e+01 4.241853414941840761e+00
2.885967742699389760e+01 -1.208878089507754616e+01 -1.413432760713098979e+01 -1.208878089507754616e+01 -9.353020685423972580e+00 -1.549118546158679344e+01 -1.413432760713098979e+01 -1.549118546158679344e+01 4.123505476865810593e+00
2.887286107878017560e+01 -1.210017085274324344e+01 -1.414245304149722671e+01 -1.210017085274324344e+01 -9.436606831443114629e+00 -1.532851534179117436e+01 -1.414245304149722671e+01 -1.532851534179117436e+01 3.997444654071276027e+00
2.886521994182649919e+01 -1.209805429368095631e+01 -1.412073140569697216e+01 -1.209805429368095631e+01 -9.501179819784082881e+00 -1.514458994666664537e+01 -1.412073140569697216e+01 -1.514458994666664537e+01 3.856029809604554881e+00
2.883840421472379134e+01 -1.208219803765500799e+01 -1.406912682584781571e+01 -1.208219803765500799e+01 -9.544084983148414025e+00 -1.493874560938860618e+01 -1.406912682584781571e+01 -1.493874560938860618e+01 3.704229476179660807e+00
2.878827046405351098e+01 -1.205353480560810020e+01 -1.398778279747940090e+01 -1.205353480560810020e+01 -9.569878304602390529e+00 -1.471119757325151411e+01 -1.398778279747940090e+01 -1.471119757325151411e+01 3.533667102253474912e+00
2.871494424840409820e+01 -1.201188522812817538e+01 -1.387671725753293472e+01 -1.201188522812817538e+01 -9.577806432615366461e+00 -1.446128217143076000e+01 -1.387671725753293472e+01 -1.446128217143076000e+01 3.347356093948574696e+00
2.861568121577106538e+01 -1.195796678286346548e+01 -1.373593020600841719e+01 -1.195796678286346548e+01 -9.571151827428005632e+00 -1.418873034980825310e+01 -1.373593020600841719e+01 -1.418873034980825310e+01 3.140058864432859753e+00
2.848913609556397120e+01 -1.189213820863809090e+01 -1.356531402125861518e+01 -1.189213820863809090e+01 -9.552013111161389958e+00 -1.389260938744129703e+01 -1.356531402125861518e+01 -1.389260938744129703e+01 2.908851692289780466e+00
4.070692268231820066e+01 4.764020963356130345e+00 4.458531937693738456e+00 4.764020963356130345e+00 4.469857679669485151e+01 2.148844729419945665e+01 4.458531937693738456e+00 2.148844729419945665e+01 2.727562309783436234e+01
4.061055619510585046e+01 4.713538339986905967e+00 4.331443662218683599e+00 4.713538339986905967e+00 4.476024512462568339e+01 2.153446946659975580e+01 4.331443662218683599e+00 2.153446946659975580e+01 2.723181386234887924e+01
4.048244789402161814e+01 4.658750862775581147e+00 4.194691076310958167e+00 4.658750862775581147e+00 4.477874389414796497e+01 2.152352580201320720e+01 4.194691076310958167e+00 2.152352580201320720e+01 2.708052158936803266e+01
4.032363509324432727e+01 4.600177188811564122e+00 4.048533508515267165e+00 4.600177188811564122e+00 4.475334698533652755e+01 2.145504577764146248e+01 4.048533508515267165e+00 2.145504577764146248e+01 2.681891095346971099e+01
4.013475746985091774e+01 4.538318686614617903e+00 3.893334018794198048e+00 4.538318686614617903e+00 4.468299979544291034e+01 2.132854531353440564e+01 3.893334018794198048e+00 2.132854531353440564e+01 2.644682635752709743e+01
3.991517534676444257e+01 4.473590281856271389e+00 3.729369224262103266e+00 4.473590281856271389e+00 4.456552396469158595e+01 2.114386881256520923e+01 3.729369224262103266e+00 2.114386881256520923e+01 2.596271183027196017e+01
3.966443922117407794e+01 4.406527920195579817e+00 3.556881164894039937e+00 4.406527920195579817e+00 4.439936352181431545e+01 2.090103356330352824e+01 3.556881164894039937e+00 2.090103356330352824e+01 2.536575480893089107e+01
3.938216874454759875e+01 4.337494661595131085e+00 3.376025437816831509e+00 4.337494661595131085e+00 4.418294520697323691e+01 2.060029889429405969e+01 3.376025437816831509e+00 2.060029889429405969e+01 2.465505628788224257e+01
3.906998904243182125e+01 4.266784411738924199e+00 3.186784754460830982e+00 4.266784411738924199e+00 4.391742735433470557e+01 2.024169938267610291e+01 3.186784754460830982e+00 2.024169938267610291e+01 2.383253529835683793e+01
3.871939413856042478e+01 4.195106001982485289e+00 2.989764214763682926e+00 4.195106001982485289e+00 4.359371617626437967e+01 1.982686015399647061e+01 2.989764214763682926e+00 1.982686015399647061e+01 2.288892516702388491e+01
-2.879453401203884866e+01 4.141211570368266592e+00 -9.006604689223443927e+00 4.141211570368266592e+00 -2.052497992015963391e+01 -1.655244215490105475e+01 -9.006604689223443927e+00 -1.655244215490105475e+01 -8.490801309011509090e+00
-2.871317261210997174e+01 4.256512297124611877e+00 -8.925949971168238406e+00 4.256512297124611877e+00 -2.033038204842118546e+01 -1.659077034810183093e+01 -8.925949971168238406e+00 -1.659077034810183093e+01 -8.120035084924209556e+00
-2.859727678482843416e+01 4.366419925371386235e+00 -8.826512392786597161e+00 4.366419925371386235e+00 -2.011586690598014115e+01 -1.660135197931543871e+01 -8.826512392786597161e+00 -1.660135197931543871e+01 -7.690186536819989094e+00
-2.845259296964063367e+01 4.470395145257633374e+00 -8.708756876363825228e+00 4.470395145257633374e+00 -1.988740409497986761e+01 -1.658403827341057379e+01 -8.708756876363825228e+00 -1.658403827341057379e+01 -7.221061354052961789e+00
-2.828252439767502224e+01 4.568214794086403074e+00 -8.572069724483318609e+00 4.568214794086403074e+00 -1.964908493153106761e+01 -1.653801096716509633e+01 -8.572069724483318609e+00 -1.653801096716509633e+01 -6.711078800853081283e+00
-2.808668053421194699e+01 4.658856042830020527e+00 -8.416971650104624558e+00 4.658856042830020527e+00 -1.940105819076504190e+01 -1.646273075072805270e+01 -8.416971650104624558e+00 -1.646273075072805270e+01 -6.163623511457388737e+00
-2.786703264974111249e+01 4.741946953660238329e+00 -8.243704412816095228e+00 4.741946953660238329e+00 -1.914594603437091891e+01 -1.635758392668283179e+01 -8.243704412816095228e+00 -1.635758392668283179e+01 -5.583288918044726046e+00
-2.762540323962091904e+01 4.817059798074573962e+00 -8.052491175314687055e+00 4.817059798074573962e+00 -1.888562674838135180e+01 -1.622197539450423776e+01 -8.052491175314687055e+00 -1.622197539450423776e+01 -4.973664220657667556e+00
-2.736314987692446721e+01 4.883413506633709211e+00 -7.843499309623104487e+00 4.883413506633709211e+00 -1.862238775044004768e+01 -1.605508689097013431e+01 -7.843499309623104487e+00 -1.605508689097013431e+01 -4.338543185144327907e+00
-2.708259717307830172e+01 4.940710529075047930e+00 -7.616635831284288116e+00 4.940710529075047930e+00 -1.835840487684225408e+01 -1.585598857150990248e+01 -7.616635831284288116e+00 -1.585598857150990248e+01 -3.679469353491928274e+00
-3.016521222843248040e+01 4.827580867263433717e+00 -8.922554953506862674e+00 4.827580867263433717e+00 -1.093733914276841723e+01 3.897241059172599886e+00 -8.922554953506862674e+00 3.897241059172599886e+00 -3.383275687199596593e+00
-3.006094761804733650e+01 4.882430707513915280e+00 -9.002047475609010974e+00 4.882430707513915280e+00 -1.089448712736544422e+01 3.766207804135384585e+00 -9.002047475609010974e+00 3.766207804135384585e+00 -3.183028478034372277e+00
-2.993096810109380357e+01 4.932899215732255982e+00 -9.064162562646968624e+00 4.932899215732255982e+00 -1.084679161410415560e+01 3.625912745941617832e+00 -9.064162562646968624e+00 3.625912745941617832e+00 -2.959654490927337456e+00
-2.977727023394095340e+01 4.978727579055796326e+00 -9.108844754721594938e+00 4.978727579055796326e+00 -1.079571304699526380e+01 3.476596210820908972e+00 -9.108844754721594938e+00 3.476596210820908972e+00 -2.715778827771166526e+00
-2.960127748733340880e+01 5.019749417787113366e+00 -9.136094051832889917e+00 5.019749417787113366e+00 -1.074197240472760306e+01 3.318831284397716352e+00 -9.136094051832889917e+00 3.318831284397716352e+00 -2.454636649349087651e+00
-2.940411754588703275e+01 5.055798352228785930e+00 -9.145928940613899272e+00 5.055798352228785930e+00 -1.068593941996211250e+01 3.152913752800791336e+00 -9.145928940613899272e+00 3.152913752800791336e+00 -2.176061575963677441e+00
-2.918776847933786200e+01 5.086708002683388408e+00 -9.138404880963765464e+00 5.086708002683388408e+00 -1.062859388425028406e+01 2.979305781856310009e+00 -9.138404880963765464e+00 2.979305781856310009e+00 -1.883676987692149751e+00
-2.895426381732106336e+01 5.112478369150921687e+00 -9.113632792680771644e+00 5.112478369150921687e+00 -1.057122986190540814e+01 2.798155264628647831e+00 -9.113632792680771644e+00 2.798155264628647831e+00 -1.578943328545218572e+00
-2.870554465630657859e+01 5.133035505099197593e+00 -9.071612675764914258e+00 5.133035505099197593e+00 -1.051471622468069533e+01 2.609665554081323169e+00 -9.071612675764914258e+00 2.609665554081323169e+00 -1.264467213782512811e+00
-2.844436550461840341e+01 5.148379410528217015e+00 -9.012436963381432520e+00 5.148379410528217015e+00 -1.046064282301818693e+01 2.413947570012616062e+00 -9.012436963381432520e+00 2.413947570012616062e+00 -9.434468309211648807e-01
-2.604533026742779356e+01 6.562276898591600016e+00 1.564666306888699232e+01 6.562276898591600016e+00 -7.729669444021391556e+00 -8.594268327937715668e+00 1.564666306888699232e+01 -8.594268327937715668e+00 -3.482411551625462920e+01
-2.600612158368419813e+01 6.602786961122319553e+00 1.547372841920330444e+01 6.602786961122319553e+00 -7.665325558560708963e+00 -8.376789341483211970e+00 1.547372841920330444e+01 -8.376789341483211970e+00 -3.469803050290752111e+01
-2.590545063893713618e+01 6.639169793785292484e+00 1.528218405286369297e+01 6.639169793785292484e+00 -7.552384470963589891e+00 -8.143916903089545301e+00 1.528218405286369297e+01 -8.143916903089545301e+00 -3.443321851085264740e+01
-2.574500922560986638e+01 6.671425396580519696e+00 1.507180687636179783e+01 6.671425396580519696e+00 -7.392482200276703885e+00 -7.896115790894974396e+00 1.507180687636179783e+01 -7.896115790894974396e+00 -3.403066486974310578e+01
-2.552548521534701820e+01 6.699497996131409394e+00 1.484241097844231305e+01 6.699497996131409394e+00 -7.186306618144676861e+00 -7.634427107929201206e+00 1.484241097844231305e+01 -7.634427107929201206e+00 -3.349282360814891746e+01
-2.524935122784413366e+01 6.723443365814552486e+00 1.459384763010099562e+01 6.723443365814552486e+00 -6.936572028894945063e+00 -7.359761819343217049e+00 1.459384763010099562e+01 -7.359761819343217049e+00 -3.282449123645692168e+01
-2.491697908561182118e+01 6.743187141127826578e+00 1.432583796445489099e+01 6.743187141127826578e+00 -6.643408570406222680e+00 -7.073439895049677517e+00 1.432583796445489099e+01 -7.073439895049677517e+00 -3.202789868973076182e+01
-2.453223574276039187e+01 6.758654957569111055e+00 1.403793579449126838e+01 6.758654957569111055e+00 -6.311556979688757174e+00 -6.776558211454876357e+00 1.403793579449126838e+01 -6.776558211454876357e+00 -3.111083564956767589e+01
-2.409569752418130051e+01 6.769846815138405027e+00 1.372980647995058057e+01 6.769846815138405027e+00 -5.940961483365959417e+00 -6.470529694099123930e+00 1.372980647995058057e+01 -6.470529694099123930e+00 -3.007696456769714644e+01
-2.361113842835721144e+01 6.776781304961240870e+00 1.340094806044350939e+01 6.776781304961240870e+00 -5.536400000699138069e+00 -6.156469810514242802e+00 1.340094806044350939e+01 -6.156469810514242802e+00 -2.893308979606329601e+01
3.088969409186109871e+01 6.095438103311395572e+00 2.582915129770862350e+00 6.095438103311395572e+00 1.698850850432742376e+01 -1.006755257362299538e+00 2.582915129770862350e+00 -1.006755257362299538e+00 1.684254299159761104e+01
3.084012322464738887e+01 6.028152034528597270e+00 2.534418444759654498e+00 6.028152034528597270e+00 1.694286456549334474e+01 -9.486789802501121027e-01 2.534418444759654498e+00 -9.486789802501121027e-01 1.671087642884205593e+01
3.076991397151024898e+01 5.952941670809327235e+00 2.479388618811933398e+00 5.952941670809327235e+00 1.688494677427988933e+01 -8.888769677962042870e-01 2.479388618811933398e+00 -8.888769677962042870e-01 1.652410960196156253e+01
3.067896067518384839e+01 5.870652270280142027e+00 2.417878480560608168e+00 5.870652270280142027e+00 1.681479034977565590e+01 -8.275957536208214949e-01 2.417878480560608168e+00 -8.275957536208214949e-01 1.628282362591814802e+01
3.056754508837705586e+01 5.782058652890386341e+00 2.350046515904408384e+00 5.782058652890386341e+00 1.673267704468950612e+01 -7.651523095214229908e-01 2.350046515904408384e+00 -7.651523095214229908e-01 1.598791658747127009e+01
3.043535023929240069e+01 5.688076514943829487e+00 2.276068820286367256e+00 5.688076514943829487e+00 1.663825466813536735e+01 -7.020573122828033252e-01 2.276068820286367256e+00 -7.020573122828033252e-01 1.563963502024117780e+01
3.028153086980333697e+01 5.589709600465758044e+00 2.196103879605214360e+00 5.589709600465758044e+00 1.653069557153098756e+01 -6.387157814239380338e-01 2.196103879605214360e+00 -6.387157814239380338e-01 1.523662298931652259e+01
3.010506562634025585e+01 5.487785558038426714e+00 2.110398227481195210e+00 5.487785558038426714e+00 1.640890796312956468e+01 -5.757088319068348614e-01 2.110398227481195210e+00 -5.757088319068348614e-01 1.477831698927959359e+01
2.990461618353612394e+01 5.383360960320030308e+00 2.019092740268735753e+00 5.383360960320030308e+00 1.627150068893114465e+01 -5.134767023390756080e-01 2.019092740268735753e+00 -5.134767023390756080e-01 1.426299128478867395e+01
2.967961903597322859e+01 5.277281065437127161e+00 1.922345903866565564e+00 5.277281065437127161e+00 1.611785741488510482e+01 -4.525828981383648864e-01 1.922345903866565564e+00 -4.525828981383648864e-01 1.368971256999568986e+01
1.079609567586841479e+01 -1.244715222531325161e+01 7.428608669823209887e+00 -1.244715222531325161e+01 -1.260819614509330933e+01 1.038319169644801399e+01 7.428608669823209887e+00 1.038319169644801399e+01 1.829597868553826245e+01
1.067135655906846736e+01 -1.224386698158864206e+01 7.546310573321846960e+00 -1.224386698158864206e+01 -1.240756338945919346e+01 1.047406196871830808e+01 7.546310573321846960e+00 1.047406196871830808e+01 1.840169928228799279e+01
1.051435452590249575e+01 -1.202529835410451220e+01 7.645048089180275674e+00 -1.202529835410451220e+01 -1.221205516863937035e+01 1.054230489360437950e+01 7.645048089180275674e+00 1.054230489360437950e+01 1.844552849025950891e+01
1.032335733925017962e+01 -1.179276356483777732e+01 7.724352069845076940e+00 -1.179276356483777732e+01 -1.202630882575803284e+01 1.058820917729294742e+01 7.724352069845076940e+00 1.058820917729294742e+01 1.842136739125833245e+01
1.010072878101529170e+01 -1.154877074878556797e+01 7.783103778842709985e+00 -1.154877074878556797e+01 -1.185276031926564144e+01 1.061117936327390154e+01 7.783103778842709985e+00 1.061117936327390154e+01 1.832941447078783526e+01
9.848327397274848849e+00 -1.129487170170151167e+01 7.820906245166431958e+00 -1.129487170170151167e+01 -1.169281709182245521e+01 1.061092674536052094e+01 7.820906245166431958e+00 1.061092674536052094e+01 1.817147414251502369e+01
9.568174131335890564e+00 -1.103332194066936012e+01 7.837200100579473805e+00 -1.103332194066936012e+01 -1.154880683705890831e+01 1.058683782290602338e+01 7.837200100579473805e+00 1.058683782290602338e+01 1.794828621604336760e+01
9.261189234168593742e+00 -1.076610632072281781e+01 7.831840991988472389e+00 -1.076610632072281781e+01 -1.142392336716559953e+01 1.053853366904034239e+01 7.831840991988472389e+00 1.053853366904034239e+01 1.765838911630259034e+01
8.930746959330249979e+00 -1.049529991757893832e+01 7.804558257343381378e+00 -1.049529991757893832e+01 -1.131840125591923574e+01 1.046509403279330108e+01 7.804558257343381378e+00 1.046509403279330108e+01 1.730569842095009392e+01
8.574573745600437391e+00 -1.022321238073148741e+01 7.755893220744296990e+00 -1.022321238073148741e+01 -1.124021601172797702e+01 1.036613998729483122e+01 7.755893220744296990e+00 1.036613998729483122e+01 1.688018158999733842e+01
-2.095928198818012334e+01 -2.634516369493963950e+00 2.241184090650486738e+00 -2.634516369493963950e+00 1.742755537767382279e+01 -1.538452163005013951e+01 2.241184090650486738e+00 -1.538452163005013951e+01 -3.543393183782162481e+01
-2.086137952074973612e+01 -2.638712451290998739e+00 2.345041696002430509e+00 -2.638712451290998739e+00 1.760360757813632659e+01 -1.535511241046829944e+01 2.345041696002430509e+00 -1.535511241046829944e+01 -3.505524003651453313e+01
-2.069122748770489650e+01 -2.642743621576360002e+00 2.444006926508049737e+00 -2.642743621576360002e+00 1.781614186968135272e+01 -1.529970214254587724e+01 2.444006926508049737e+00 -1.529970214254587724e+01 -3.453782100688712120e+01
-2.045036506315456037e+01 -2.646426645337076611e+00 2.538281340681611820e+00 -2.646426645337076611e+00 1.806261128562859852e+01 -1.521744794522321342e+01 2.538281340681611820e+00 -1.521744794522321342e+01 -3.388709850532332268e+01
-2.013937859914023676e+01 -2.649798169575742435e+00 2.627993203032197300e+00 -2.649798169575742435e+00 1.834153162237300450e+01 -1.510778178996008769e+01 2.627993203032197300e+00 -1.510778178996008769e+01 -3.310591267452420539e+01
-1.976013709279422415e+01 -2.652748253284574531e+00 2.713307425071479262e+00 -2.652748253284574531e+00 1.865041088373816081e+01 -1.497000738370721962e+01 2.713307425071479262e+00 -1.497000738370721962e+01 -3.219930247734644979e+01
-1.931416139472419147e+01 -2.655093661450603104e+00 2.794297300804646333e+00 -2.655093661450603104e+00 1.898745336659695582e+01 -1.480368496243347032e+01 2.794297300804646333e+00 -1.480368496243347032e+01 -3.117151896609100348e+01
-1.880332050206243366e+01 -2.656742776567341924e+00 2.871274329753749743e+00 -2.656742776567341924e+00 1.935031366278336407e+01 -1.460830146810253005e+01 2.871274329753749743e+00 -1.460830146810253005e+01 -3.002809583814958216e+01
-1.823082102753594569e+01 -2.657603981128305648e+00 2.944421746931759731e+00 -2.657603981128305648e+00 1.973598671808465355e+01 -1.438376528320790726e+01 2.944421746931759731e+00 -1.438376528320790726e+01 -2.877616093552675025e+01
-1.759913664381983622e+01 -2.657494040120523149e+00 3.013904463850349824e+00 -2.657494040120523149e+00 2.014251191786204132e+01 -1.412996646674182166e+01 3.013904463850349824e+00 -1.412996646674182166e+01 -2.742157777863757673e+01