 vasp.6.1.1 19Jun20 (build Dec 21 2021 08:45:49) complex                        
  
 executed on             LinuxIFC date 2023.10.05  22:16:48
 running on   40 total cores
 distrk:  each k-point on   40 cores,    1 groups
 distr:  one band on NCORE=   1 cores,   40 groups


--------------------------------------------------------------------------------------------------------


 INCAR:
 POTCAR:   PAW_PBE Te 08Apr2002                   
 POTCAR:   PAW_PBE Mo 08Apr2002                   
 -----------------------------------------------------------------------------
|                                                                             |
|           W    W    AA    RRRRR   N    N  II  N    N   GGGG   !!!           |
|           W    W   A  A   R    R  NN   N  II  NN   N  G    G  !!!           |
|           W    W  A    A  R    R  N N  N  II  N N  N  G       !!!           |
|           W WW W  AAAAAA  RRRRR   N  N N  II  N  N N  G  GGG   !            |
|           WW  WW  A    A  R   R   N   NN  II  N   NN  G    G                |
|           W    W  A    A  R    R  N    N  II  N    N   GGGG   !!!           |
|                                                                             |
|     For optimal performance we recommend to set                             |
|       NCORE = 4 - approx SQRT(number of cores).                             |
|     NCORE specifies how many cores store one orbital (NPAR=cpu/NCORE).      |
|     This setting can greatly improve the performance of VASP for DFT.       |
|     The default, NCORE=1 might be grossly inefficient on modern             |
|     multi-core architectures or massively parallel machines. Do your        |
|     own testing!!!!                                                         |
|     Unfortunately you need to use the default for GW and RPA                |
|     calculations (for HF NCORE is supported but not extensively tested      |
|     yet).                                                                   |
|                                                                             |
 -----------------------------------------------------------------------------

 POTCAR:   PAW_PBE Te 08Apr2002                   
   VRHFIN =Te: s2p4                                                                                 
   LEXCH  = PE                                                                                      
   EATOM  =   223.2721 eV,   16.4100 Ry                                                             
                                                                                                    
   TITEL  = PAW_PBE Te 08Apr2002                                                                    
   LULTRA =        F    use ultrasoft PP ?                                                          
   IUNSCR =        1    unscreen: 0-lin 1-nonlin 2-no                                               
   RPACOR =    2.200    partial core radius                                                         
   POMASS =  127.600; ZVAL   =    6.000    mass and valenz                                          
   RCORE  =    2.300    outmost cutoff radius                                                       
   RWIGS  =    2.900; RWIGS  =    1.535    wigner-seitz radius (au A)                               
   ENMAX  =  174.982; ENMIN  =  131.236 eV                                                          
   ICORE  =        3    local potential                                                             
   LCOR   =        T    correct aug charges                                                         
   LPAW   =        T    paw PP                                                                      
   EAUG   =  368.792                                                                                
   DEXC   =    -.169                                                                                
   RMAX   =    3.486    core radius for proj-oper                                                   
   RAUG   =    1.300    factor for augmentation sphere                                              
   RDEP   =    2.397    radius for radial grids                                                     
   QCUT   =   -3.586; QGAM   =    7.172    optimization parameters                                  
                                                                                                    
   Description                                                                                      
     l     E      TYP  RCUT    TYP  RCUT                                                            
     0   .000     23  2.300                                                                         
     0   .000     23  2.300                                                                         
     1   .000     23  2.300                                                                         
     1   .000     23  2.300                                                                         
     2   .000     23  2.300                                                                         
     3  -.100     23  2.300                                                                         
  local pseudopotential read in
  partial core-charges read in
  atomic valenz-charges read in
  non local Contribution for L=           0  read in
    real space projection operators read in
  non local Contribution for L=           0  read in
    real space projection operators read in
  non local Contribution for L=           1  read in
    real space projection operators read in
  non local Contribution for L=           1  read in
    real space projection operators read in
  non local Contribution for L=           2  read in
    real space projection operators read in
    PAW grid and wavefunctions read in
 
   number of l-projection  operators is LMAX  =           5
   number of lm-projection operators is LMMAX =          13
 
 POTCAR:   PAW_PBE Mo 08Apr2002                   
   VRHFIN =Mo: 4p5s4d                                                                               
   LEXCH  = PE                                                                                      
   EATOM  =   217.5180 eV,   15.9871 Ry                                                             
                                                                                                    
   TITEL  = PAW_PBE Mo 08Apr2002                                                                    
   LULTRA =        F    use ultrasoft PP ?                                                          
   IUNSCR =        1    unscreen: 0-lin 1-nonlin 2-no                                               
   RPACOR =    2.200    partial core radius                                                         
   POMASS =   95.940; ZVAL   =    6.000    mass and valenz                                          
   RCORE  =    2.750    outmost cutoff radius                                                       
   RWIGS  =    2.750; RWIGS  =    1.455    wigner-seitz radius (au A)                               
   ENMAX  =  224.584; ENMIN  =  168.438 eV                                                          
   RCLOC  =    2.111    cutoff for local pot                                                        
   LCOR   =        T    correct aug charges                                                         
   LPAW   =        T    paw PP                                                                      
   EAUG   =  345.278                                                                                
   DEXC   =    -.088                                                                                
   RMAX   =    3.077    core radius for proj-oper                                                   
   RAUG   =    1.300    factor for augmentation sphere                                              
   RDEP   =    2.815    radius for radial grids                                                     
   QCUT   =   -4.063; QGAM   =    8.126    optimization parameters                                  
                                                                                                    
   Description                                                                                      
     l     E      TYP  RCUT    TYP  RCUT                                                            
     2   .000     23  2.500                                                                         
     2   .000     23  2.500                                                                         
     0   .000     23  2.600                                                                         
     0  1.000     23  2.600                                                                         
     1   .400     23  2.750                                                                         
     1  2.000     23  2.750                                                                         
     3   .000      7   .000                                                                         
  local pseudopotential read in
  partial core-charges read in
  atomic valenz-charges read in
  non local Contribution for L=           2  read in
    real space projection operators read in
  non local Contribution for L=           2  read in
    real space projection operators read in
  non local Contribution for L=           0  read in
    real space projection operators read in
  non local Contribution for L=           0  read in
    real space projection operators read in
  non local Contribution for L=           1  read in
    real space projection operators read in
  non local Contribution for L=           1  read in
    real space projection operators read in
    PAW grid and wavefunctions read in
 
   number of l-projection  operators is LMAX  =           6
   number of lm-projection operators is LMMAX =          18
 
 -----------------------------------------------------------------------------
|                                                                             |
|               ----> ADVICE to this user running VASP <----                  |
|                                                                             |
|     You have a (more or less) 'large supercell' and for larger cells it     |
|     might be more efficient to use real-space projection operators.         |
|     Therefore, try LREAL= Auto in the INCAR file.                           |
|     Mind: If you want to do very accurate calculations, keep the            |
|     reciprocal projection scheme (i.e. LREAL=.FALSE.).                      |
|                                                                             |
 -----------------------------------------------------------------------------

 PAW_PBE Te 08Apr2002                   :
 energy of atom  1       EATOM= -223.2721
 kinetic energy error for atom=    0.0006 (will be added to EATOM!!)
 PAW_PBE Mo 08Apr2002                   :
 energy of atom  2       EATOM= -217.5180
 kinetic energy error for atom=    0.0009 (will be added to EATOM!!)
 
 
 POSCAR: Te Mo
  positions in cartesian coordinates
  No initial velocities read in
 exchange correlation table for  LEXCH =        8
   RHO(1)=    0.500       N(1)  =     2000
   RHO(2)=  100.500       N(2)  =     4000
 


--------------------------------------------------------------------------------------------------------


 ion  position               nearest neighbor table
   1  0.222  0.111  0.678-  40 2.68  37 2.70  41 2.79   7 3.45   4 3.45   2 3.51   3 3.51  19 3.61
                             5 3.62   9 3.62
   2  0.223  0.445  0.678-  41 2.68  38 2.70  42 2.79   5 3.45   8 3.45   3 3.51   1 3.51  20 3.60
                             6 3.62   7 3.63
   3  0.223  0.777  0.677-  42 2.67  39 2.69  40 2.78   6 3.44   9 3.45   2 3.51   1 3.51  21 3.60
                             8 3.62   4 3.62
   4  0.556  0.111  0.677-  43 2.68  40 2.69  44 2.79   7 3.44   1 3.45   5 3.51   6 3.51  22 3.61
                             8 3.62   3 3.62
   5  0.556  0.444  0.677-  44 2.68  41 2.69  45 2.78   8 3.44   2 3.45   4 3.51   6 3.52  23 3.60
                             1 3.62   9 3.62
   6  0.556  0.778  0.677-  45 2.68  42 2.70  43 2.78   3 3.44   9 3.45   4 3.51   5 3.52  24 3.60
                             2 3.62   7 3.62
   7  0.889  0.111  0.678-  37 2.68  43 2.69  38 2.79   4 3.44   1 3.45   8 3.51   9 3.51  25 3.60
                             6 3.62   2 3.63
   8  0.889  0.444  0.677-  38 2.68  44 2.69  39 2.79   5 3.44   2 3.45   7 3.51   9 3.51  26 3.60
                             4 3.62   3 3.62
   9  0.889  0.778  0.678-  39 2.68  45 2.70  37 2.79   6 3.45   3 3.45   7 3.51   8 3.51  27 3.62
                             5 3.62   1 3.62
  10  0.111  0.222  0.443-  46 2.68  52 2.69  47 2.79  16 3.45  13 3.45  12 3.51  11 3.51  28 3.60
                            18 3.62  14 3.62
  11  0.110  0.555  0.443-  47 2.69  53 2.69  48 2.79  17 3.43  14 3.46  12 3.51  10 3.51  29 3.60
                            16 3.61  15 3.62
  12  0.111  0.889  0.443-  48 2.68  54 2.69  46 2.78  15 3.45  18 3.45  11 3.51  10 3.51  30 3.60
                            17 3.62  13 3.62
  13  0.445  0.222  0.443-  49 2.67  46 2.69  50 2.78  16 3.44  10 3.45  15 3.51  14 3.51  31 3.60
                            12 3.62  17 3.62
  14  0.445  0.556  0.443-  50 2.68  47 2.69  51 2.78  17 3.45  11 3.46  15 3.51  13 3.51  32 3.60
                            10 3.62  18 3.63
  15  0.444  0.888  0.444-  51 2.68  48 2.70  49 2.80  18 3.44  12 3.45  14 3.51  13 3.51  33 3.61
                            11 3.62  16 3.63
  16  0.778  0.223  0.444-  52 2.69  49 2.69  53 2.78  13 3.44  10 3.45  17 3.50  18 3.51  34 3.61
                            11 3.61  15 3.63
  17  0.778  0.555  0.444-  53 2.68  50 2.70  54 2.78  11 3.43  14 3.45  16 3.50  18 3.52  35 3.61
                            12 3.62  13 3.62
  18  0.778  0.890  0.444-  54 2.69  51 2.70  52 2.79  15 3.44  12 3.45  16 3.51  17 3.52  36 3.62
                            10 3.62  14 3.63
  19  0.222  0.111  0.557-  40 2.68  41 2.72  37 2.76  25 3.44  22 3.45  20 3.51  21 3.51   1 3.61
                            27 3.62  23 3.62
  20  0.222  0.444  0.557-  41 2.67  42 2.72  38 2.76  26 3.45  23 3.45  19 3.51  21 3.51   2 3.60
                            24 3.62  25 3.62
  21  0.222  0.778  0.557-  42 2.67  40 2.72  39 2.76  27 3.45  24 3.45  19 3.51  20 3.51   3 3.60
                            22 3.62  26 3.62
  22  0.556  0.111  0.557-  43 2.68  44 2.72  40 2.77  19 3.45  25 3.45  24 3.51  23 3.51   4 3.61
                            26 3.62  21 3.62
  23  0.556  0.445  0.557-  44 2.68  45 2.71  41 2.76  20 3.45  26 3.45  24 3.51  22 3.51   5 3.60
                            19 3.62  27 3.62
  24  0.555  0.778  0.557-  45 2.68  43 2.72  42 2.76  27 3.45  21 3.45  23 3.51  22 3.51   6 3.60
                            25 3.62  20 3.62
  25  0.889  0.110  0.557-  37 2.67  38 2.72  43 2.76  19 3.44  22 3.45  27 3.49  26 3.52   7 3.60
                            24 3.62  20 3.62
  26  0.889  0.444  0.557-  38 2.67  39 2.72  44 2.75  20 3.45  23 3.45  27 3.52  25 3.52   8 3.60
                            22 3.62  21 3.62
  27  0.889  0.779  0.556-  39 2.68  37 2.71  45 2.77  24 3.45  21 3.45  25 3.49  26 3.52   9 3.62
                            19 3.62  23 3.62
  28  0.111  0.223  0.323-  46 2.68  47 2.71  52 2.76  31 3.44  34 3.45  29 3.51  30 3.51  10 3.60
                            32 3.62  36 3.63
  29  0.111  0.555  0.323-  47 2.67  48 2.72  53 2.76  35 3.44  32 3.45  30 3.51  28 3.51  11 3.60
                            33 3.62  34 3.62
  30  0.110  0.888  0.323-  48 2.67  46 2.72  54 2.76  36 3.44  33 3.45  29 3.51  28 3.51  12 3.60
                            35 3.62  31 3.63
  31  0.444  0.222  0.322-  49 2.68  50 2.72  46 2.77  28 3.44  34 3.45  33 3.51  32 3.51  13 3.60
                            35 3.62  30 3.63
  32  0.445  0.556  0.323-  50 2.68  51 2.71  47 2.76  35 3.45  29 3.45  33 3.51  31 3.51  14 3.60
                            36 3.62  28 3.62
  33  0.444  0.889  0.323-  51 2.68  49 2.73  48 2.75  30 3.45  36 3.45  32 3.51  31 3.51  15 3.61
                            29 3.62  34 3.62
  34  0.778  0.222  0.323-  52 2.67  53 2.71  49 2.76  31 3.45  28 3.45  35 3.51  36 3.52  16 3.61
                            29 3.62  33 3.62
  35  0.778  0.555  0.323-  53 2.67  54 2.72  50 2.76  29 3.44  32 3.45  36 3.51  34 3.51  17 3.61
                            30 3.62  31 3.62
  36  0.778  0.888  0.322-  54 2.68  52 2.73  51 2.77  30 3.44  33 3.45  35 3.51  34 3.52  32 3.62
                            18 3.62  28 3.63
  37  0.000  1.000  0.617-  25 2.67   7 2.68   1 2.70  27 2.71  19 2.76   9 2.79  40 3.45  43 3.45

  38  1.000  0.333  0.617-  26 2.67   8 2.68   2 2.70  25 2.72  20 2.76   7 2.79  44 3.44  41 3.44

  39  1.000  0.667  0.617-  27 2.68   9 2.68   3 2.69  26 2.72  21 2.76   8 2.79  45 3.44  42 3.45

  40  0.333  1.000  0.617-   1 2.68  19 2.68   4 2.69  21 2.72  22 2.77   3 2.78  37 3.45  43 3.45

  41  0.333  0.333  0.617-  20 2.67   2 2.68   5 2.69  19 2.72  23 2.76   1 2.79  38 3.44  44 3.46

  42  0.333  0.667  0.617-   3 2.67  21 2.67   6 2.70  20 2.72  24 2.76   2 2.79  39 3.45  45 3.45

  43  0.667  1.000  0.617-   4 2.68  22 2.68   7 2.69  24 2.72  25 2.76   6 2.78  40 3.45  37 3.45

  44  0.668  0.334  0.617-   5 2.68  23 2.68   8 2.69  22 2.72  26 2.75   4 2.79  38 3.44  41 3.46

  45  0.666  0.666  0.617-  24 2.68   6 2.68   9 2.70  23 2.71  27 2.77   5 2.78  39 3.44  42 3.45

  46  0.222  0.110  0.383-  10 2.68  28 2.68  13 2.69  30 2.72  31 2.77  12 2.78  52 3.45  49 3.45

  47  0.222  0.444  0.383-  29 2.67  11 2.69  14 2.69  28 2.71  32 2.76  10 2.79  53 3.45  50 3.45

  48  0.222  0.778  0.383-  30 2.67  12 2.68  15 2.70  29 2.72  33 2.75  11 2.79  51 3.44  54 3.45

  49  0.556  0.112  0.383-  13 2.67  31 2.68  16 2.69  33 2.73  34 2.76  15 2.80  52 3.45  46 3.45

  50  0.555  0.444  0.383-  14 2.68  32 2.68  17 2.70  31 2.72  35 2.76  13 2.78  47 3.45  53 3.45

  51  0.555  0.777  0.383-  33 2.68  15 2.68  18 2.70  32 2.71  36 2.77  14 2.78  48 3.44  54 3.45

  52  0.889  0.111  0.383-  34 2.67  16 2.69  10 2.69  36 2.73  28 2.76  18 2.79  49 3.45  46 3.45

  53  0.889  0.444  0.383-  35 2.67  17 2.68  11 2.69  34 2.71  29 2.76  16 2.78  47 3.45  50 3.45

  54  0.888  0.777  0.383-  36 2.68  18 2.69  12 2.69  35 2.72  30 2.76  17 2.78  48 3.45  51 3.45

 

IMPORTANT INFORMATION: All symmetrisations will be switched off!
NOSYMM: (Re-)initialisation of all symmetry stuff for point group C_1.


----------------------------------------------------------------------------------------

                                     Primitive cell                                     

  volume of cell :    2885.0424

  direct lattice vectors                    reciprocal lattice vectors
    10.340368467  0.000000000  0.000000000     0.096708353  0.049855632  0.002665526
    -4.825225449  9.359817266  0.000000000     0.000000000  0.106839693  0.002499395
    -0.462111748 -0.697350482 29.809096889     0.000000000  0.000000000  0.033546806

  length of vectors
    10.340368467 10.530383653 29.820833361     0.108835631  0.106868924  0.033546806

  position of ions in fractional coordinates (direct lattice)
     0.222291623  0.110951567  0.677676077
     0.222899025  0.444710153  0.677543028
     0.222633714  0.777454400  0.677395979
     0.556075383  0.111217799  0.677456492
     0.555801506  0.443972617  0.677374481
     0.555554204  0.777882717  0.677489276
     0.888869879  0.110852817  0.677507466
     0.888866546  0.444114016  0.677378846
     0.888905417  0.777591922  0.677766372
     0.111057082  0.222275859  0.443379057
     0.110089655  0.555306352  0.443453990
     0.111025348  0.888856763  0.443371141
     0.444718449  0.221848274  0.443221849
     0.444658296  0.555502588  0.443316571
     0.444211957  0.888398255  0.443520603
     0.778184623  0.223067611  0.443571342
     0.778229176  0.555308201  0.443514653
     0.777884866  0.889638399  0.443567038
     0.222307338  0.111341728  0.556500999
     0.222047615  0.444293500  0.556729254
     0.222136432  0.778107461  0.556513036
     0.555826694  0.111263437  0.556521431
     0.555543963  0.444775309  0.556728422
     0.555372657  0.777708096  0.556623038
     0.889111986  0.110426724  0.556671401
     0.888879953  0.444409289  0.556625754
     0.889030183  0.778532632  0.556496089
     0.111477393  0.222552354  0.322763039
     0.110762158  0.555415747  0.322628274
     0.110449758  0.888301681  0.322551615
     0.444018644  0.222104381  0.322372370
     0.444548648  0.555925438  0.322570636
     0.443865149  0.888535317  0.322535961
     0.777624327  0.222134652  0.322593637
     0.777760877  0.555386796  0.322603428
     0.777801038  0.888280039  0.322297556
     0.000125490  0.999789867  0.616908217
     0.999809843  0.332973278  0.616922137
     0.999775325  0.666865897  0.617047712
     0.333307991  0.999588120  0.617089998
     0.333118410  0.333342801  0.617059027
     0.333284040  0.667177859  0.616896264
     0.666792738  0.999913678  0.617086262
     0.667507933  0.333612251  0.616951327
     0.666402137  0.666263041  0.617061885
     0.221723718  0.110499395  0.383156949
     0.222089384  0.444403494  0.382914570
     0.222252564  0.777668015  0.382799240
     0.555956623  0.111899510  0.383052941
     0.555358932  0.444297975  0.382918799
     0.554980970  0.777462277  0.382951968
     0.888777568  0.111108039  0.382873809
     0.888563517  0.443757685  0.382838321
     0.888423226  0.776898927  0.383073304

  ion indices of the primitive-cell ions
   primitive index   ion index
                 1           1
                 2           2
                 3           3
                 4           4
                 5           5
                 6           6
                 7           7
                 8           8
                 9           9
                10          10
                11          11
                12          12
                13          13
                14          14
                15          15
                16          16
                17          17
                18          18
                19          19
                20          20
                21          21
                22          22
                23          23
                24          24
                25          25
                26          26
                27          27
                28          28
                29          29
                30          30
                31          31
                32          32
                33          33
                34          34
                35          35
                36          36
                37          37
                38          38
                39          39
                40          40
                41          41
                42          42
                43          43
                44          44
                45          45
                46          46
                47          47
                48          48
                49          49
                50          50
                51          51
                52          52
                53          53
                54          54

----------------------------------------------------------------------------------------

 
 

Automatic generation of k-mesh.
 generate k-points for:    3    3    1
Space group operators:
 irot       det(A)        alpha          n_x          n_y          n_z        tau_x        tau_y        tau_z
    1     1.000000     0.000000     1.000000     0.000000     0.000000     0.000000     0.000000     0.000000
 
 Subroutine IBZKPT returns following result:
 ===========================================
 
 Found      5 irreducible k-points:
 
 Following reciprocal coordinates:
            Coordinates               Weight
  0.000000  0.000000  0.000000      1.000000
  0.333333 -0.000000 -0.000000      2.000000
  0.000000  0.333333  0.000000      2.000000
  0.333333  0.333333 -0.000000      2.000000
 -0.333333  0.333333 -0.000000      2.000000
 
 Following cartesian coordinates:
            Coordinates               Weight
  0.000000  0.000000  0.000000      1.000000
  0.032236  0.016619  0.000889      2.000000
  0.000000  0.035613  0.000833      2.000000
  0.032236  0.052232  0.001722      2.000000
 -0.032236  0.018995 -0.000055      2.000000
 


--------------------------------------------------------------------------------------------------------




 Dimension of arrays:
   k-points           NKPTS =      5   k-points in BZ     NKDIM =      5   number of bands    NBANDS=    200
   number of dos      NEDOS =    301   number of ions     NIONS =     54
   non local maximal  LDIM  =      6   non local SUM 2l+1 LMDIM =     18
   total plane-waves  NPLWV = ******
   max r-space proj   IRMAX =      1   max aug-charges    IRDMAX=  36087
   dimension x,y,z NGX =    80 NGY =   84 NGZ =  240
   dimension x,y,z NGXF=   160 NGYF=  168 NGZF=  480
   support grid    NGXF=   160 NGYF=  168 NGZF=  480
   ions per type =              36  18
   NGX,Y,Z   is equivalent  to a cutoff of  12.86, 13.26, 13.38 a.u.
   NGXF,Y,Z  is equivalent  to a cutoff of  25.72, 26.52, 26.76 a.u.

 SYSTEM =  dpgen_md                                
 POSCAR =  Te Mo                                   

 Startparameter for this run:
   NWRITE =      2    write-flag & timer
   PREC   = a         normal or accurate (medium, high low for compatibility)
   ISTART =      0    job   : 0-new  1-cont  2-samecut
   ICHARG =      2    charge: 1-file 2-atom 10-const
   ISPIN  =      1    spin polarized calculation?
   LNONCOLLINEAR =      F non collinear calculations
   LSORBIT =      F    spin-orbit coupling
   INIWAV =      1    electr: 0-lowe 1-rand  2-diag
   LASPH  =      F    aspherical Exc in radial PAW
   METAGGA=      F    non-selfconsistent MetaGGA calc.

 Electronic Relaxation 1
   ENCUT  =  550.0 eV  40.42 Ry    6.36 a.u.  19.77 20.14 57.02*2*pi/ulx,y,z
   ENINI  =  550.0     initial cutoff
   ENAUG  =  368.8 eV  augmentation charge cutoff
   NELM   =    100;   NELMIN=  6; NELMDL= -5     # of ELM steps 
   EDIFF  = 0.1E-05   stopping-criterion for ELM
   LREAL  =      F    real-space projection
   NLSPLINE    = F    spline interpolate recip. space projectors
   LCOMPAT=      F    compatible to vasp.4.4
   GGA_COMPAT  = T    GGA compatible to vasp.4.4-vasp.4.6
   LMAXPAW     = -100 max onsite density
   LMAXMIX     =    2 max onsite mixed and CHGCAR
   VOSKOWN=      0    Vosko Wilk Nusair interpolation
   ROPT   =    0.00000   0.00000
 Ionic relaxation
   EDIFFG = 0.1E-04   stopping-criterion for IOM
   NSW    =     10    number of steps for IOM
   NBLOCK =      1;   KBLOCK =      1    inner block; outer block 
   IBRION =      0    ionic relax: 0-MD 1-quasi-New 2-CG
   NFREE  =      0    steps in history (QN), initial steepest desc. (CG)
   ISIF   =      2    stress and relaxation
   IWAVPR =     11    prediction:  0-non 1-charg 2-wave 3-comb
   ISYM   =      0    0-nonsym 1-usesym 2-fastsym
   LCORR  =      T    Harris-Foulkes like correction to forces

   POTIM  = 2.0000    time-step for ionic-motion
   TEIN   =  100.0    initial temperature
   TEBEG  =  100.0;   TEEND  = 100.0 temperature during run
   SMASS  =   0.04    Nose mass-parameter (am)
   estimated Nose-frequenzy (Omega)   =  0.79E+14 period in steps = 0.40E+02 mass=   0.327E-28a.u.
   SCALEE = 1.0000    scale energy and forces
   NPACO  =    256;   APACO  = 16.0  distance and # of slots for P.C.
   PSTRESS=    0.0 pullay stress

  Mass of Ions in am
   POMASS = 127.60 95.94
  Ionic Valenz
   ZVAL   =   6.00  6.00
  Atomic Wigner-Seitz radii
   RWIGS  =  -1.00 -1.00
  virtual crystal weights 
   VCA    =   1.00  1.00
   NELECT =     324.0000    total number of electrons
   NUPDOWN=      -1.0000    fix difference up-down

 DOS related values:
   EMIN   =  10.00;   EMAX   =-10.00  energy-range for DOS
   EFERMI =   0.00
   ISMEAR =     0;   SIGMA  =   0.10  broadening in eV -4-tet -1-fermi 0-gaus

 Electronic relaxation 2 (details)
   IALGO  =     68    algorithm
   LDIAG  =      T    sub-space diagonalisation (order eigenvalues)
   LSUBROT=      F    optimize rotation matrix (better conditioning)
   TURBO    =      0    0=normal 1=particle mesh
   IRESTART =      0    0=no restart 2=restart with 2 vectors
   NREBOOT  =      0    no. of reboots
   NMIN     =      0    reboot dimension
   EREF     =   0.00    reference energy to select bands
   IMIX   =      4    mixing-type and parameters
     AMIX     =   0.40;   BMIX     =  1.00
     AMIX_MAG =   1.60;   BMIX_MAG =  1.00
     AMIN     =   0.10
     WC   =   100.;   INIMIX=   1;  MIXPRE=   1;  MAXMIX= -45

 Intra band minimization:
   WEIMIN = 0.0010     energy-eigenvalue tresh-hold
   EBREAK =  0.13E-08  absolut break condition
   DEPER  =   0.30     relativ break condition  

   TIME   =   0.40     timestep for ELM

  volume/ion in A,a.u.               =      53.43       360.54
  Fermi-wavevector in a.u.,A,eV,Ry     =   0.789840  1.492581  8.487956  0.623847
  Thomas-Fermi vector in A             =   1.895062
 
 Write flags
   LWAVE        =      F    write WAVECAR
   LDOWNSAMPLE  =      F    k-point downsampling of WAVECAR
   LCHARG       =      F    write CHGCAR
   LVTOT        =      F    write LOCPOT, total local potential
   LVHAR        =      F    write LOCPOT, Hartree potential only
   LELF         =      F    write electronic localiz. function (ELF)
   LORBIT       =      0    0 simple, 1 ext, 2 COOP (PROOUT), +10 PAW based schemes


 Dipole corrections
   LMONO  =      F    monopole corrections only (constant potential shift)
   LDIPOL =      F    correct potential (dipole corrections)
   IDIPOL =      0    1-x, 2-y, 3-z, 4-all directions 
   EPSILON=  1.0000000 bulk dielectric constant

 Exchange correlation treatment:
   GGA     =    --    GGA type
   LEXCH   =     8    internal setting for exchange type
   VOSKOWN=      0    Vosko Wilk Nusair interpolation
   LHFCALC =     F    Hartree Fock is set to
   LHFONE  =     F    Hartree Fock one center treatment
   AEXX    =    0.0000 exact exchange contribution

 Linear response parameters
   LEPSILON=     F    determine dielectric tensor
   LRPA    =     F    only Hartree local field effects (RPA)
   LNABLA  =     F    use nabla operator in PAW spheres
   LVEL    =     F    velocity operator in full k-point grid
   LINTERFAST=   F  fast interpolation
   KINTER  =     0    interpolate to denser k-point grid
   CSHIFT  =0.1000    complex shift for real part using Kramers Kronig
   OMEGAMAX=  -1.0    maximum frequency
   DEG_THRESHOLD= 0.2000000E-02 threshold for treating states as degnerate
   RTIME   =   -0.100 relaxation time in fs
  (WPLASMAI=    0.000 imaginary part of plasma frequency in eV, 0.658/RTIME)
   DFIELD  = 0.0000000 0.0000000 0.0000000 field for delta impulse in time
 
 Orbital magnetization related:
   ORBITALMAG=     F  switch on orbital magnetization
   LCHIMAG   =     F  perturbation theory with respect to B field
   DQ        =  0.001000  dq finite difference perturbation B field
   LLRAUG    =     F  two centre corrections for induced B field



--------------------------------------------------------------------------------------------------------


 molecular dynamics for ions
   using nose mass (canonical ensemble)
 charge density and potential will be updated during run
 non-spin polarized calculation
 RMM-DIIS sequential band-by-band and
  variant of blocked Davidson during initial phase
 perform sub-space diagonalisation
    before iterative eigenvector-optimisation
 modified Broyden-mixing scheme, WC =      100.0
 initial mixing is a Kerker type mixing with AMIX =  0.4000 and BMIX =      1.0000
 Hartree-type preconditioning will be used
 using additional bands           38
 reciprocal scheme for non local part
 use partial core corrections
 calculate Harris-corrections to forces 
   (improved forces if not selfconsistent)
 use gradient corrections 
 use of overlap-Matrix (Vanderbilt PP)
 Gauss-broadening in eV      SIGMA  =   0.10


--------------------------------------------------------------------------------------------------------


  energy-cutoff  :      550.00
  volume of cell :     2885.04
      direct lattice vectors                 reciprocal lattice vectors
    10.340368467  0.000000000  0.000000000     0.096708353  0.049855632  0.002665526
    -4.825225449  9.359817266  0.000000000     0.000000000  0.106839693  0.002499395
    -0.462111748 -0.697350482 29.809096889     0.000000000  0.000000000  0.033546806

  length of vectors
    10.340368467 10.530383653 29.820833361     0.108835631  0.106868924  0.033546806


 
 k-points in units of 2pi/SCALE and weight: read from INCAR                         
   0.00000000  0.00000000  0.00000000       0.111
   0.03223612  0.01661854  0.00088851       0.222
   0.00000000  0.03561323  0.00083313       0.222
   0.03223612  0.05223177  0.00172164       0.222
  -0.03223612  0.01899469 -0.00005538       0.222
 
 k-points in reciprocal lattice and weights: read from INCAR                         
   0.00000000  0.00000000  0.00000000       0.111
   0.33333333 -0.00000000 -0.00000000       0.222
   0.00000000  0.33333333  0.00000000       0.222
   0.33333333  0.33333333 -0.00000000       0.222
  -0.33333333  0.33333333 -0.00000000       0.222
 
 position of ions in fractional coordinates (direct lattice) 
   0.22229162  0.11095157  0.67767608
   0.22289902  0.44471015  0.67754303
   0.22263371  0.77745440  0.67739598
   0.55607538  0.11121780  0.67745649
   0.55580151  0.44397262  0.67737448
   0.55555420  0.77788272  0.67748928
   0.88886988  0.11085282  0.67750747
   0.88886655  0.44411402  0.67737885
   0.88890542  0.77759192  0.67776637
   0.11105708  0.22227586  0.44337906
   0.11008965  0.55530635  0.44345399
   0.11102535  0.88885676  0.44337114
   0.44471845  0.22184827  0.44322185
   0.44465830  0.55550259  0.44331657
   0.44421196  0.88839825  0.44352060
   0.77818462  0.22306761  0.44357134
   0.77822918  0.55530820  0.44351465
   0.77788487  0.88963840  0.44356704
   0.22230734  0.11134173  0.55650100
   0.22204761  0.44429350  0.55672925
   0.22213643  0.77810746  0.55651304
   0.55582669  0.11126344  0.55652143
   0.55554396  0.44477531  0.55672842
   0.55537266  0.77770810  0.55662304
   0.88911199  0.11042672  0.55667140
   0.88887995  0.44440929  0.55662575
   0.88903018  0.77853263  0.55649609
   0.11147739  0.22255235  0.32276304
   0.11076216  0.55541575  0.32262827
   0.11044976  0.88830168  0.32255162
   0.44401864  0.22210438  0.32237237
   0.44454865  0.55592544  0.32257064
   0.44386515  0.88853532  0.32253596
   0.77762433  0.22213465  0.32259364
   0.77776088  0.55538680  0.32260343
   0.77780104  0.88828004  0.32229756
   0.00012549  0.99978987  0.61690822
   0.99980984  0.33297328  0.61692214
   0.99977532  0.66686590  0.61704771
   0.33330799  0.99958812  0.61709000
   0.33311841  0.33334280  0.61705903
   0.33328404  0.66717786  0.61689626
   0.66679274  0.99991368  0.61708626
   0.66750793  0.33361225  0.61695133
   0.66640214  0.66626304  0.61706189
   0.22172372  0.11049940  0.38315695
   0.22208938  0.44440349  0.38291457
   0.22225256  0.77766801  0.38279924
   0.55595662  0.11189951  0.38305294
   0.55535893  0.44429797  0.38291880
   0.55498097  0.77746228  0.38295197
   0.88877757  0.11110804  0.38287381
   0.88856352  0.44375768  0.38283832
   0.88842323  0.77689893  0.38307330
 
 position of ions in cartesian coordinates  (Angst):
   1.45004889  0.56590865 20.20091184
  -0.15406930  3.68992082 20.19694577
  -1.76231076  6.80444870 20.19256236
   4.90031280  0.56855366 20.19436620
   3.29190169  3.68313515 20.19192155
   1.67809994  6.80839261 20.19534346
   8.34326807  0.56510195 20.19588569
   6.73523263  3.68445557 20.19205164
   5.12634941  6.80547759 20.20360346
  -0.12905065  1.77127082 13.21672926
  -1.74603605  4.88832313 13.21896295
  -3.34577828  8.01035180 13.21649331
   3.32326667  1.76737834 13.21204303
   1.71264360  4.89025569 13.21486661
   0.10163737  8.00595602 13.22094863
   6.76538470  1.77854738 13.22246112
   5.16273584  4.88829813 13.22077125
   3.54593275  8.01753116 13.22233280
   1.50432520  0.65406199 16.58879219
  -0.10503327  3.77027056 16.59559626
  -1.71474258  6.89485902 16.58915101
   4.95340656  0.65331495 16.58940124
   3.34111739  3.77478079 16.59557148
   1.73291897  6.89104432 16.59243008
   8.40366731  0.64537889 16.59387171
   6.78974793  3.77142650 16.59251104
   5.17914082  6.89885036 16.58864584
  -0.07030056  1.85797041  9.62127470
  -1.68377499  4.97360492  9.61725749
  -3.29321957  8.08940989  9.61497234
   3.37064061  1.85404989  9.60962922
   1.76526757  4.97841572  9.61553934
   0.15329831  8.09160759  9.61450571
   6.81999798  1.85417892  9.61622497
   5.21338872  4.97335126  9.61651683
   3.60766039  8.08938449  9.60739907
  -5.10799443  8.92764921 18.38947681
   8.44664407  2.68635809 18.38989177
   6.83512195  5.81144442 18.39363504
  -1.66187514  8.92563414 18.39489553
   1.55096271  2.68972129 18.39397232
  -0.05807882  5.81446994 18.38912051
   1.78491087  8.92868391 18.39478416
   5.00742320  2.69231841 18.39076187
   3.39082272  5.80579191 18.39405753
   1.58245912  0.76705946 11.42156260
  -0.02481031  3.89250984 11.41433752
  -1.63114612  7.01188528 11.41089964
   5.03184271  0.78023681 11.41846224
   3.42182681  3.89151924 11.41446359
   1.81031035  7.00985310 11.41545233
   8.47723571  0.77295371 11.41312247
   6.86992921  3.88651835 11.41206459
   5.26088836  7.00449564 11.41906923
 


--------------------------------------------------------------------------------------------------------


 k-point   1 :   0.0000 0.0000 0.0000  plane waves:   84451
 k-point   2 :   0.3333-0.0000-0.0000  plane waves:   84503
 k-point   3 :   0.0000 0.3333 0.0000  plane waves:   84517
 k-point   4 :   0.3333 0.3333-0.0000  plane waves:   84535
 k-point   5 :  -0.3333 0.3333-0.0000  plane waves:   84509

 maximum and minimum number of plane-waves per node :     84535    84451

 maximum number of plane-waves:     84535
 maximum index in each direction: 
   IXMAX=   20   IYMAX=   20   IZMAX=   57
   IXMIN=  -20   IYMIN=  -20   IZMIN=  -57


 serial   3D FFT for wavefunctions
 parallel 3D FFT for charge:
    minimum data exchange during FFTs selected (reduces bandwidth)


 total amount of memory used by VASP MPI-rank0   359927. kBytes
=======================================================================

   base      :      30000. kBytes
   nonl-proj :     194826. kBytes
   fftplans  :      17372. kBytes
   grid      :      82746. kBytes
   one-center:        839. kBytes
   wavefun   :      34144. kBytes
 
     INWAV:  cpu time    0.0000: real time    0.0000
 Broyden mixing: mesh for mixing (old mesh)
   NGX = 39   NGY = 41   NGZ =115
  (NGX  =160   NGY  =168   NGZ  =480)
  gives a total of 183885 points

 initial charge density was supplied:
 charge density of overlapping atoms calculated
 number of electron     324.0000000 magnetization 
 keeping initial charge density in first step


--------------------------------------------------------------------------------------------------------


 Maximum index for augmentation-charges         1220 (set IRDMAX)


--------------------------------------------------------------------------------------------------------


 First call to EWALD:  gamma=   0.125
 Maximum number of real-space cells 4x 4x 2
 Maximum number of reciprocal cells 2x 2x 5

    FEWALD:  cpu time    0.0023: real time    0.0024


--------------------------------------- Iteration      1(   1)  ---------------------------------------


    POTLOK:  cpu time    0.3098: real time    0.3111
    SETDIJ:  cpu time    0.0117: real time    0.0118
     EDDAV:  cpu time   47.9550: real time   48.0289
       DOS:  cpu time    0.0010: real time    0.0011
    --------------------------------------------
      LOOP:  cpu time   48.2775: real time   48.3529

 eigenvalue-minimisations  :  2000
 total energy-change (2. order) : 0.2123641E+04  (-0.1154744E+05)
 number of electron     324.0000000 magnetization 
 augmentation part      324.0000000 magnetization 

 Free energy of the ion-electron system (eV)
  ---------------------------------------------------
  alpha Z        PSCENC =       248.75411662
  Ewald energy   TEWEN  =     63405.95572721
  -Hartree energ DENC   =    -75094.55021574
  -exchange      EXHF   =         0.00000000
  -V(xc)+E(xc)   XCENC  =     -2099.21863687
  PAW double counting   =      7476.04436201    -4809.59211051
  entropy T*S    EENTRO =        -0.13683482
  eigenvalues    EBANDS =      1043.30218620
  atomic energy  EATOM  =     11953.08265402
  Solvation  Ediel_sol  =         0.00000000
  ---------------------------------------------------
  free energy    TOTEN  =      2123.64124812 eV

  energy without entropy =     2123.77808294  energy(sigma->0) =     2123.70966553


--------------------------------------------------------------------------------------------------------




--------------------------------------- Iteration      1(   2)  ---------------------------------------


     EDDAV:  cpu time   67.9290: real time   68.0487
       DOS:  cpu time    0.0017: real time    0.0017
    --------------------------------------------
      LOOP:  cpu time   67.9306: real time   68.0504

 eigenvalue-minimisations  :  3080
 total energy-change (2. order) :-0.2223771E+04  (-0.2156179E+04)
 number of electron     324.0000000 magnetization 
 augmentation part      324.0000000 magnetization 

 Free energy of the ion-electron system (eV)
  ---------------------------------------------------
  alpha Z        PSCENC =       248.75411662
  Ewald energy   TEWEN  =     63405.95572721
  -Hartree energ DENC   =    -75094.55021574
  -exchange      EXHF   =         0.00000000
  -V(xc)+E(xc)   XCENC  =     -2099.21863687
  PAW double counting   =      7476.04436201    -4809.59211051
  entropy T*S    EENTRO =        -0.00161458
  eigenvalues    EBANDS =     -1180.60384919
  atomic energy  EATOM  =     11953.08265402
  Solvation  Ediel_sol  =         0.00000000
  ---------------------------------------------------
  free energy    TOTEN  =      -100.12956703 eV

  energy without entropy =     -100.12795245  energy(sigma->0) =     -100.12875974


--------------------------------------------------------------------------------------------------------




--------------------------------------- Iteration      1(   3)  ---------------------------------------


     EDDAV:  cpu time   56.7740: real time   56.8665
       DOS:  cpu time    0.0005: real time    0.0005
    --------------------------------------------
      LOOP:  cpu time   56.7744: real time   56.8670

 eigenvalue-minimisations  :  2480
 total energy-change (2. order) :-0.2231426E+03  (-0.2198656E+03)
 number of electron     324.0000000 magnetization 
 augmentation part      324.0000000 magnetization 

 Free energy of the ion-electron system (eV)
  ---------------------------------------------------
  alpha Z        PSCENC =       248.75411662
  Ewald energy   TEWEN  =     63405.95572721
  -Hartree energ DENC   =    -75094.55021574
  -exchange      EXHF   =         0.00000000
  -V(xc)+E(xc)   XCENC  =     -2099.21863687
  PAW double counting   =      7476.04436201    -4809.59211051
  entropy T*S    EENTRO =        -0.00000000
  eigenvalues    EBANDS =     -1403.74801865
  atomic energy  EATOM  =     11953.08265402
  Solvation  Ediel_sol  =         0.00000000
  ---------------------------------------------------
  free energy    TOTEN  =      -323.27212191 eV

  energy without entropy =     -323.27212191  energy(sigma->0) =     -323.27212191


--------------------------------------------------------------------------------------------------------




--------------------------------------- Iteration      1(   4)  ---------------------------------------


     EDDAV:  cpu time   68.5182: real time   68.6385
       DOS:  cpu time    0.0004: real time    0.0004
    --------------------------------------------
      LOOP:  cpu time   68.5186: real time   68.6389

 eigenvalue-minimisations  :  3120
 total energy-change (2. order) :-0.1173717E+02  (-0.1165936E+02)
 number of electron     324.0000000 magnetization 
 augmentation part      324.0000000 magnetization 

 Free energy of the ion-electron system (eV)
  ---------------------------------------------------
  alpha Z        PSCENC =       248.75411662
  Ewald energy   TEWEN  =     63405.95572721
  -Hartree energ DENC   =    -75094.55021574
  -exchange      EXHF   =         0.00000000
  -V(xc)+E(xc)   XCENC  =     -2099.21863687
  PAW double counting   =      7476.04436201    -4809.59211051
  entropy T*S    EENTRO =        -0.00000000
  eigenvalues    EBANDS =     -1415.48518408
  atomic energy  EATOM  =     11953.08265402
  Solvation  Ediel_sol  =         0.00000000
  ---------------------------------------------------
  free energy    TOTEN  =      -335.00928734 eV

  energy without entropy =     -335.00928734  energy(sigma->0) =     -335.00928734


--------------------------------------------------------------------------------------------------------




--------------------------------------- Iteration      1(   5)  ---------------------------------------


     EDDAV:  cpu time   66.3961: real time   66.4980
       DOS:  cpu time    0.0004: real time    0.0004
    CHARGE:  cpu time    1.1689: real time    1.1701
    MIXING:  cpu time    0.0075: real time    0.0077
    --------------------------------------------
      LOOP:  cpu time   67.5729: real time   67.6762

 eigenvalue-minimisations  :  3000
 total energy-change (2. order) :-0.3125764E+00  (-0.3120157E+00)
 number of electron     323.9999995 magnetization 
 augmentation part      -25.4071075 magnetization 

 Broyden mixing:
  rms(total) = 0.18899E+01    rms(broyden)= 0.18899E+01
  rms(prec ) = 0.20001E+01
  weight for this iteration     100.00

 Free energy of the ion-electron system (eV)
  ---------------------------------------------------
  alpha Z        PSCENC =       248.75411662
  Ewald energy   TEWEN  =     63405.95572721
  -Hartree energ DENC   =    -75094.55021574
  -exchange      EXHF   =         0.00000000
  -V(xc)+E(xc)   XCENC  =     -2099.21863687
  PAW double counting   =      7476.04436201    -4809.59211051
  entropy T*S    EENTRO =        -0.00000000
  eigenvalues    EBANDS =     -1415.79776044
  atomic energy  EATOM  =     11953.08265402
  Solvation  Ediel_sol  =         0.00000000
  ---------------------------------------------------
  free energy    TOTEN  =      -335.32186370 eV

  energy without entropy =     -335.32186370  energy(sigma->0) =     -335.32186370


--------------------------------------------------------------------------------------------------------




--------------------------------------- Iteration      1(   6)  ---------------------------------------


    POTLOK:  cpu time    0.2707: real time    0.2710
    SETDIJ:  cpu time    0.0112: real time    0.0112
    EDDIAG:  cpu time    2.5009: real time    2.5062
  RMM-DIIS:  cpu time   41.1806: real time   41.2454
    ORTHCH:  cpu time    0.2120: real time    0.2122
       DOS:  cpu time    0.0006: real time    0.0006
    CHARGE:  cpu time    1.1735: real time    1.1766
    MIXING:  cpu time    0.0069: real time    0.0071
    --------------------------------------------
      LOOP:  cpu time   45.3564: real time   45.4302

 eigenvalue-minimisations  :  2136
 total energy-change (2. order) : 0.8720778E+01  (-0.5108143E+01)
 number of electron     323.9999995 magnetization 
 augmentation part      -20.0126183 magnetization 

 Broyden mixing:
  rms(total) = 0.70510E+00    rms(broyden)= 0.70510E+00
  rms(prec ) = 0.81224E+00
  weight for this iteration     100.00

 eigenvalues of (default mixing * dielectric matrix)
  average eigenvalue GAMMA=   1.0627
  1.0627

 Free energy of the ion-electron system (eV)
  ---------------------------------------------------
  alpha Z        PSCENC =       248.75411662
  Ewald energy   TEWEN  =     63405.95572721
  -Hartree energ DENC   =    -75075.33075289
  -exchange      EXHF   =         0.00000000
  -V(xc)+E(xc)   XCENC  =     -2092.78229152
  PAW double counting   =      7697.68857309    -5042.76630637
  entropy T*S    EENTRO =        -0.00000030
  eigenvalues    EBANDS =     -1421.20280578
  atomic energy  EATOM  =     11953.08265402
  Solvation  Ediel_sol  =         0.00000000
  ---------------------------------------------------
  free energy    TOTEN  =      -326.60108591 eV

  energy without entropy =     -326.60108561  energy(sigma->0) =     -326.60108576


--------------------------------------------------------------------------------------------------------




--------------------------------------- Iteration      1(   7)  ---------------------------------------


    POTLOK:  cpu time    0.2708: real time    0.2710
    SETDIJ:  cpu time    0.0110: real time    0.0110
    EDDIAG:  cpu time    2.4871: real time    2.4906
  RMM-DIIS:  cpu time   38.4040: real time   38.4708
    ORTHCH:  cpu time    0.2109: real time    0.2112
       DOS:  cpu time    0.0004: real time    0.0004
    CHARGE:  cpu time    1.1712: real time    1.1726
    MIXING:  cpu time    0.0070: real time    0.0070
    --------------------------------------------
      LOOP:  cpu time   42.5624: real time   42.6346

 eigenvalue-minimisations  :  2011
 total energy-change (2. order) : 0.3087235E+01  (-0.1015202E+01)
 number of electron     323.9999995 magnetization 
 augmentation part      -21.7348270 magnetization 

 Broyden mixing:
  rms(total) = 0.46578E+00    rms(broyden)= 0.46578E+00
  rms(prec ) = 0.49279E+00
  weight for this iteration     100.00

 eigenvalues of (default mixing * dielectric matrix)
  average eigenvalue GAMMA=   1.4788
  0.7394  2.2182

 Free energy of the ion-electron system (eV)
  ---------------------------------------------------
  alpha Z        PSCENC =       248.75411662
  Ewald energy   TEWEN  =     63405.95572721
  -Hartree energ DENC   =    -75161.92320433
  -exchange      EXHF   =         0.00000000
  -V(xc)+E(xc)   XCENC  =     -2091.34929255
  PAW double counting   =      7996.65351355    -5346.96378442
  entropy T*S    EENTRO =        -0.00000000
  eigenvalues    EBANDS =     -1327.72358053
  atomic energy  EATOM  =     11953.08265402
  Solvation  Ediel_sol  =         0.00000000
  ---------------------------------------------------
  free energy    TOTEN  =      -323.51385042 eV

  energy without entropy =     -323.51385042  energy(sigma->0) =     -323.51385042


--------------------------------------------------------------------------------------------------------




--------------------------------------- Iteration      1(   8)  ---------------------------------------


    POTLOK:  cpu time    0.2714: real time    0.2716
    SETDIJ:  cpu time    0.0111: real time    0.0111
    EDDIAG:  cpu time    2.4841: real time    2.4884
  RMM-DIIS:  cpu time   38.3711: real time   38.4436
    ORTHCH:  cpu time    0.2137: real time    0.2139
       DOS:  cpu time    0.0005: real time    0.0005
    CHARGE:  cpu time    1.1723: real time    1.1734
    MIXING:  cpu time    0.0072: real time    0.0072
    --------------------------------------------
      LOOP:  cpu time   42.5313: real time   42.6097

 eigenvalue-minimisations  :  2016
 total energy-change (2. order) : 0.4234831E+00  (-0.7122168E+00)
 number of electron     323.9999995 magnetization 
 augmentation part      -21.5278978 magnetization 

 Broyden mixing:
  rms(total) = 0.13330E+00    rms(broyden)= 0.13330E+00
  rms(prec ) = 0.15497E+00
  weight for this iteration     100.00

 eigenvalues of (default mixing * dielectric matrix)
  average eigenvalue GAMMA=   1.2533
  2.1659  0.7969  0.7969

 Free energy of the ion-electron system (eV)
  ---------------------------------------------------
  alpha Z        PSCENC =       248.75411662
  Ewald energy   TEWEN  =     63405.95572721
  -Hartree energ DENC   =    -75220.95081901
  -exchange      EXHF   =         0.00000000
  -V(xc)+E(xc)   XCENC  =     -2087.50243855
  PAW double counting   =      8312.49426017    -5669.24816883
  entropy T*S    EENTRO =        -0.00000000
  eigenvalues    EBANDS =     -1265.67569900
  atomic energy  EATOM  =     11953.08265402
  Solvation  Ediel_sol  =         0.00000000
  ---------------------------------------------------
  free energy    TOTEN  =      -323.09036736 eV

  energy without entropy =     -323.09036736  energy(sigma->0) =     -323.09036736


--------------------------------------------------------------------------------------------------------




--------------------------------------- Iteration      1(   9)  ---------------------------------------


    POTLOK:  cpu time    0.2709: real time    0.2712
    SETDIJ:  cpu time    0.0111: real time    0.0111
    EDDIAG:  cpu time    2.4820: real time    2.4866
  RMM-DIIS:  cpu time   43.9927: real time   44.0705
    ORTHCH:  cpu time    0.2098: real time    0.2111
       DOS:  cpu time    0.0005: real time    0.0005
    CHARGE:  cpu time    1.1718: real time    1.1729
    MIXING:  cpu time    0.0072: real time    0.0072
    --------------------------------------------
      LOOP:  cpu time   48.1459: real time   48.2311

 eigenvalue-minimisations  :  2245
 total energy-change (2. order) :-0.3007171E-01  (-0.1296446E+00)
 number of electron     323.9999995 magnetization 
 augmentation part      -21.1797004 magnetization 

 Broyden mixing:
  rms(total) = 0.10145E+00    rms(broyden)= 0.10145E+00
  rms(prec ) = 0.11337E+00
  weight for this iteration     100.00

 eigenvalues of (default mixing * dielectric matrix)
  average eigenvalue GAMMA=   1.1590
  2.0115  1.4608  0.7480  0.4158

 Free energy of the ion-electron system (eV)
  ---------------------------------------------------
  alpha Z        PSCENC =       248.75411662
  Ewald energy   TEWEN  =     63405.95572721
  -Hartree energ DENC   =    -75218.20563749
  -exchange      EXHF   =         0.00000000
  -V(xc)+E(xc)   XCENC  =     -2087.22636788
  PAW double counting   =      8311.71653743    -5668.58018079
  entropy T*S    EENTRO =        -0.00000000
  eigenvalues    EBANDS =     -1268.61728820
  atomic energy  EATOM  =     11953.08265402
  Solvation  Ediel_sol  =         0.00000000
  ---------------------------------------------------
  free energy    TOTEN  =      -323.12043908 eV

  energy without entropy =     -323.12043908  energy(sigma->0) =     -323.12043908


--------------------------------------------------------------------------------------------------------




--------------------------------------- Iteration      1(  10)  ---------------------------------------


    POTLOK:  cpu time    0.2695: real time    0.2717
    SETDIJ:  cpu time    0.0106: real time    0.0106
    EDDIAG:  cpu time    2.4850: real time    2.4899
  RMM-DIIS:  cpu time   43.8164: real time   43.8909
    ORTHCH:  cpu time    0.2108: real time    0.2112
       DOS:  cpu time    0.0005: real time    0.0005
    CHARGE:  cpu time    1.1736: real time    1.1767
    MIXING:  cpu time    0.0074: real time    0.0074
    --------------------------------------------
      LOOP:  cpu time   47.9738: real time   48.0590

 eigenvalue-minimisations  :  2276
 total energy-change (2. order) : 0.1962463E-02  (-0.4145021E-01)
 number of electron     323.9999995 magnetization 
 augmentation part      -20.9644142 magnetization 

 Broyden mixing:
  rms(total) = 0.72334E-01    rms(broyden)= 0.72333E-01
  rms(prec ) = 0.81129E-01
  weight for this iteration     100.00

 eigenvalues of (default mixing * dielectric matrix)
  average eigenvalue GAMMA=   1.2823
  2.3626  1.8374  0.9150  0.9150  0.3814

 Free energy of the ion-electron system (eV)
  ---------------------------------------------------
  alpha Z        PSCENC =       248.75411662
  Ewald energy   TEWEN  =     63405.95572721
  -Hartree energ DENC   =    -75219.36143329
  -exchange      EXHF   =         0.00000000
  -V(xc)+E(xc)   XCENC  =     -2087.02034383
  PAW double counting   =      8323.21636812    -5680.07659453
  entropy T*S    EENTRO =        -0.00000000
  eigenvalues    EBANDS =     -1267.66897094
  atomic energy  EATOM  =     11953.08265402
  Solvation  Ediel_sol  =         0.00000000
  ---------------------------------------------------
  free energy    TOTEN  =      -323.11847662 eV

  energy without entropy =     -323.11847662  energy(sigma->0) =     -323.11847662


--------------------------------------------------------------------------------------------------------




--------------------------------------- Iteration      1(  11)  ---------------------------------------


    POTLOK:  cpu time    0.2738: real time    0.2740
    SETDIJ:  cpu time    0.0122: real time    0.0122
    EDDIAG:  cpu time    2.4876: real time    2.4901
  RMM-DIIS:  cpu time   40.5960: real time   40.6673
    ORTHCH:  cpu time    0.2156: real time    0.2158
       DOS:  cpu time    0.0014: real time    0.0014
    CHARGE:  cpu time    1.1678: real time    1.1711
    MIXING:  cpu time    0.0072: real time    0.0072
    --------------------------------------------
      LOOP:  cpu time   44.7616: real time   44.8392

 eigenvalue-minimisations  :  2119
 total energy-change (2. order) : 0.1418610E-01  (-0.1594798E-01)
 number of electron     323.9999995 magnetization 
 augmentation part      -21.2493015 magnetization 

 Broyden mixing:
  rms(total) = 0.34845E-01    rms(broyden)= 0.34845E-01
  rms(prec ) = 0.40146E-01
  weight for this iteration     100.00

 eigenvalues of (default mixing * dielectric matrix)
  average eigenvalue GAMMA=   1.1998
  2.5351  1.7420  1.2055  0.7890  0.5509  0.3764

 Free energy of the ion-electron system (eV)
  ---------------------------------------------------
  alpha Z        PSCENC =       248.75411662
  Ewald energy   TEWEN  =     63405.95572721
  -Hartree energ DENC   =    -75236.63099355
  -exchange      EXHF   =         0.00000000
  -V(xc)+E(xc)   XCENC  =     -2086.76530409
  PAW double counting   =      8373.02369896    -5730.14835178
  entropy T*S    EENTRO =        -0.00000000
  eigenvalues    EBANDS =     -1250.37583790
  atomic energy  EATOM  =     11953.08265402
  Solvation  Ediel_sol  =         0.00000000
  ---------------------------------------------------
  free energy    TOTEN  =      -323.10429051 eV

  energy without entropy =     -323.10429051  energy(sigma->0) =     -323.10429051


--------------------------------------------------------------------------------------------------------




--------------------------------------- Iteration      1(  12)  ---------------------------------------


    POTLOK:  cpu time    0.2735: real time    0.2738
    SETDIJ:  cpu time    0.0113: real time    0.0113
    EDDIAG:  cpu time    2.5017: real time    2.5051
  RMM-DIIS:  cpu time   49.9478: real time   50.0317
    ORTHCH:  cpu time    0.2096: real time    0.2099
       DOS:  cpu time    0.0005: real time    0.0005
    CHARGE:  cpu time    1.1655: real time    1.1690
    MIXING:  cpu time    0.0077: real time    0.0077
    --------------------------------------------
      LOOP:  cpu time   54.1176: real time   54.2089

 eigenvalue-minimisations  :  2562
 total energy-change (2. order) :-0.9164947E-03  (-0.4340200E-02)
 number of electron     323.9999995 magnetization 
 augmentation part      -21.2755009 magnetization 

 Broyden mixing:
  rms(total) = 0.26938E-01    rms(broyden)= 0.26938E-01
  rms(prec ) = 0.31034E-01
  weight for this iteration     100.00

 eigenvalues of (default mixing * dielectric matrix)
  average eigenvalue GAMMA=   1.1959
  2.4817  1.7442  1.7442  0.8145  0.8145  0.4047  0.3677

 Free energy of the ion-electron system (eV)
  ---------------------------------------------------
  alpha Z        PSCENC =       248.75411662
  Ewald energy   TEWEN  =     63405.95572721
  -Hartree energ DENC   =    -75240.43680757
  -exchange      EXHF   =         0.00000000
  -V(xc)+E(xc)   XCENC  =     -2086.67520050
  PAW double counting   =      8378.74260815    -5735.90380808
  entropy T*S    EENTRO =        -0.00000000
  eigenvalues    EBANDS =     -1246.62449686
  atomic energy  EATOM  =     11953.08265402
  Solvation  Ediel_sol  =         0.00000000
  ---------------------------------------------------
  free energy    TOTEN  =      -323.10520701 eV

  energy without entropy =     -323.10520701  energy(sigma->0) =     -323.10520701


--------------------------------------------------------------------------------------------------------




--------------------------------------- Iteration      1(  13)  ---------------------------------------


    POTLOK:  cpu time    0.2733: real time    0.2736
    SETDIJ:  cpu time    0.0113: real time    0.0113
    EDDIAG:  cpu time    2.4893: real time    2.4935
  RMM-DIIS:  cpu time   45.2012: real time   45.2742
    ORTHCH:  cpu time    0.2155: real time    0.2157
       DOS:  cpu time    0.0005: real time    0.0005
    CHARGE:  cpu time    1.1739: real time    1.1750
    MIXING:  cpu time    0.0085: real time    0.0085
    --------------------------------------------
      LOOP:  cpu time   49.3735: real time   49.4522

 eigenvalue-minimisations  :  2321
 total energy-change (2. order) : 0.2010357E-02  (-0.2332480E-02)
 number of electron     323.9999995 magnetization 
 augmentation part      -21.1631999 magnetization 

 Broyden mixing:
  rms(total) = 0.96732E-02    rms(broyden)= 0.96731E-02
  rms(prec ) = 0.12613E-01
  weight for this iteration     100.00

 eigenvalues of (default mixing * dielectric matrix)
  average eigenvalue GAMMA=   1.2856
  2.4721  2.4721  1.8174  1.1378  0.8045  0.8045  0.4087  0.3673

 Free energy of the ion-electron system (eV)
  ---------------------------------------------------
  alpha Z        PSCENC =       248.75411662
  Ewald energy   TEWEN  =     63405.95572721
  -Hartree energ DENC   =    -75242.46915824
  -exchange      EXHF   =         0.00000000
  -V(xc)+E(xc)   XCENC  =     -2086.60043552
  PAW double counting   =      8373.54552856    -5730.67346874
  entropy T*S    EENTRO =        -0.00000000
  eigenvalues    EBANDS =     -1244.69816056
  atomic energy  EATOM  =     11953.08265402
  Solvation  Ediel_sol  =         0.00000000
  ---------------------------------------------------
  free energy    TOTEN  =      -323.10319665 eV

  energy without entropy =     -323.10319665  energy(sigma->0) =     -323.10319665


--------------------------------------------------------------------------------------------------------




--------------------------------------- Iteration      1(  14)  ---------------------------------------


    POTLOK:  cpu time    0.2734: real time    0.2736
    SETDIJ:  cpu time    0.0112: real time    0.0112
    EDDIAG:  cpu time    2.4846: real time    2.4881
  RMM-DIIS:  cpu time   48.1206: real time   48.2093
    ORTHCH:  cpu time    0.2155: real time    0.2158
       DOS:  cpu time    0.0005: real time    0.0005
    CHARGE:  cpu time    1.1738: real time    1.1749
    MIXING:  cpu time    0.0076: real time    0.0076
    --------------------------------------------
      LOOP:  cpu time   52.2871: real time   52.3811

 eigenvalue-minimisations  :  2441
 total energy-change (2. order) :-0.5154846E-03  (-0.6276034E-03)
 number of electron     323.9999995 magnetization 
 augmentation part      -21.1621694 magnetization 

 Broyden mixing:
  rms(total) = 0.63218E-02    rms(broyden)= 0.63218E-02
  rms(prec ) = 0.84909E-02
  weight for this iteration     100.00

 eigenvalues of (default mixing * dielectric matrix)
  average eigenvalue GAMMA=   1.3058
  3.1980  2.5273  1.5399  1.5399  0.8003  0.8003  0.5727  0.4068  0.3672

 Free energy of the ion-electron system (eV)
  ---------------------------------------------------
  alpha Z        PSCENC =       248.75411662
  Ewald energy   TEWEN  =     63405.95572721
  -Hartree energ DENC   =    -75249.54590446
  -exchange      EXHF   =         0.00000000
  -V(xc)+E(xc)   XCENC  =     -2086.56859830
  PAW double counting   =      8372.42643592    -5729.48173995
  entropy T*S    EENTRO =        -0.00000000
  eigenvalues    EBANDS =     -1237.72640320
  atomic energy  EATOM  =     11953.08265402
  Solvation  Ediel_sol  =         0.00000000
  ---------------------------------------------------
  free energy    TOTEN  =      -323.10371213 eV

  energy without entropy =     -323.10371213  energy(sigma->0) =     -323.10371213


--------------------------------------------------------------------------------------------------------




--------------------------------------- Iteration      1(  15)  ---------------------------------------


    POTLOK:  cpu time    0.2729: real time    0.2732
    SETDIJ:  cpu time    0.0115: real time    0.0115
    EDDIAG:  cpu time    2.4895: real time    2.4923
  RMM-DIIS:  cpu time   46.2541: real time   46.3369
    ORTHCH:  cpu time    0.2087: real time    0.2089
       DOS:  cpu time    0.0004: real time    0.0004
    CHARGE:  cpu time    1.1711: real time    1.1746
    MIXING:  cpu time    0.0080: real time    0.0080
    --------------------------------------------
      LOOP:  cpu time   50.4162: real time   50.5059

 eigenvalue-minimisations  :  2358
 total energy-change (2. order) :-0.4160403E-03  (-0.1559786E-03)
 number of electron     323.9999995 magnetization 
 augmentation part      -21.1728918 magnetization 

 Broyden mixing:
  rms(total) = 0.41229E-02    rms(broyden)= 0.41229E-02
  rms(prec ) = 0.54825E-02
  weight for this iteration     100.00

 eigenvalues of (default mixing * dielectric matrix)
  average eigenvalue GAMMA=   1.2602
  3.3509  2.4833  1.6262  1.6262  0.7945  0.7945  0.6918  0.3671  0.4048  0.4629

 Free energy of the ion-electron system (eV)
  ---------------------------------------------------
  alpha Z        PSCENC =       248.75411662
  Ewald energy   TEWEN  =     63405.95572721
  -Hartree energ DENC   =    -75253.66989124
  -exchange      EXHF   =         0.00000000
  -V(xc)+E(xc)   XCENC  =     -2086.55024058
  PAW double counting   =      8372.50323731    -5729.53380179
  entropy T*S    EENTRO =        -0.00000000
  eigenvalues    EBANDS =     -1233.64592972
  atomic energy  EATOM  =     11953.08265402
  Solvation  Ediel_sol  =         0.00000000
  ---------------------------------------------------
  free energy    TOTEN  =      -323.10412817 eV

  energy without entropy =     -323.10412817  energy(sigma->0) =     -323.10412817


--------------------------------------------------------------------------------------------------------




--------------------------------------- Iteration      1(  16)  ---------------------------------------


    POTLOK:  cpu time    0.2748: real time    0.2751
    SETDIJ:  cpu time    0.0116: real time    0.0116
    EDDIAG:  cpu time    2.4864: real time    2.4891
  RMM-DIIS:  cpu time   50.0069: real time   50.1051
    ORTHCH:  cpu time    0.2143: real time    0.2145
       DOS:  cpu time    0.0005: real time    0.0005
    CHARGE:  cpu time    1.1682: real time    1.1712
    MIXING:  cpu time    0.0092: real time    0.0092
    --------------------------------------------
      LOOP:  cpu time   54.1719: real time   54.2763

 eigenvalue-minimisations  :  2585
 total energy-change (2. order) :-0.5891676E-03  (-0.5541339E-04)
 number of electron     323.9999995 magnetization 
 augmentation part      -21.1776068 magnetization 

 Broyden mixing:
  rms(total) = 0.31042E-02    rms(broyden)= 0.31042E-02
  rms(prec ) = 0.41830E-02
  weight for this iteration     100.00

 eigenvalues of (default mixing * dielectric matrix)
  average eigenvalue GAMMA=   1.3219
  3.5988  2.3548  2.0395  2.0395  1.0759  0.8058  0.8058  0.6587  0.3665  0.4069
  0.3892

 Free energy of the ion-electron system (eV)
  ---------------------------------------------------
  alpha Z        PSCENC =       248.75411662
  Ewald energy   TEWEN  =     63405.95572721
  -Hartree energ DENC   =    -75255.19953162
  -exchange      EXHF   =         0.00000000
  -V(xc)+E(xc)   XCENC  =     -2086.54284419
  PAW double counting   =      8372.39627576    -5729.42923098
  entropy T*S    EENTRO =        -0.00000000
  eigenvalues    EBANDS =     -1232.12188417
  atomic energy  EATOM  =     11953.08265402
  Solvation  Ediel_sol  =         0.00000000
  ---------------------------------------------------
  free energy    TOTEN  =      -323.10471734 eV

  energy without entropy =     -323.10471734  energy(sigma->0) =     -323.10471734


--------------------------------------------------------------------------------------------------------




--------------------------------------- Iteration      1(  17)  ---------------------------------------


    POTLOK:  cpu time    0.2746: real time    0.2748
    SETDIJ:  cpu time    0.0112: real time    0.0112
    EDDIAG:  cpu time    2.4892: real time    2.4918
  RMM-DIIS:  cpu time   41.5233: real time   41.6044
    ORTHCH:  cpu time    0.2355: real time    0.2358
       DOS:  cpu time    0.0005: real time    0.0005
    CHARGE:  cpu time    1.1630: real time    1.1640
    MIXING:  cpu time    0.0081: real time    0.0081
    --------------------------------------------
      LOOP:  cpu time   45.7054: real time   45.7907

 eigenvalue-minimisations  :  2115
 total energy-change (2. order) :-0.1581990E-02  (-0.3084437E-04)
 number of electron     323.9999995 magnetization 
 augmentation part      -21.1792740 magnetization 

 Broyden mixing:
  rms(total) = 0.17443E-02    rms(broyden)= 0.17443E-02
  rms(prec ) = 0.23217E-02
  weight for this iteration     100.00

 eigenvalues of (default mixing * dielectric matrix)
  average eigenvalue GAMMA=   1.3930
  4.3719  2.6139  2.3447  1.5352  1.5352  0.9198  0.8122  0.8122  0.6151  0.4069
  0.3667  0.3829

 Free energy of the ion-electron system (eV)
  ---------------------------------------------------
  alpha Z        PSCENC =       248.75411662
  Ewald energy   TEWEN  =     63405.95572721
  -Hartree energ DENC   =    -75258.68553097
  -exchange      EXHF   =         0.00000000
  -V(xc)+E(xc)   XCENC  =     -2086.52589448
  PAW double counting   =      8371.48648743    -5728.53006224
  entropy T*S    EENTRO =        -0.00000000
  eigenvalues    EBANDS =     -1228.64379693
  atomic energy  EATOM  =     11953.08265402
  Solvation  Ediel_sol  =         0.00000000
  ---------------------------------------------------
  free energy    TOTEN  =      -323.10629933 eV

  energy without entropy =     -323.10629933  energy(sigma->0) =     -323.10629933


--------------------------------------------------------------------------------------------------------




--------------------------------------- Iteration      1(  18)  ---------------------------------------


    POTLOK:  cpu time    0.2752: real time    0.2755
    SETDIJ:  cpu time    0.0108: real time    0.0108
    EDDIAG:  cpu time    2.4694: real time    2.4745
  RMM-DIIS:  cpu time   40.7482: real time   40.8202
    ORTHCH:  cpu time    0.2110: real time    0.2113
       DOS:  cpu time    0.0005: real time    0.0005
    CHARGE:  cpu time    1.1689: real time    1.1699
    MIXING:  cpu time    0.0082: real time    0.0082
    --------------------------------------------
      LOOP:  cpu time   44.8923: real time   44.9709

 eigenvalue-minimisations  :  2101
 total energy-change (2. order) :-0.8042695E-03  (-0.2129322E-04)
 number of electron     323.9999995 magnetization 
 augmentation part      -21.1781766 magnetization 

 Broyden mixing:
  rms(total) = 0.16415E-02    rms(broyden)= 0.16415E-02
  rms(prec ) = 0.19939E-02
  weight for this iteration     100.00

 eigenvalues of (default mixing * dielectric matrix)
  average eigenvalue GAMMA=   1.4066
  5.0207  2.7873  2.3113  1.6874  1.6874  0.9679  0.8149  0.8149  0.6317  0.4077
  0.4077  0.3671  0.3803

 Free energy of the ion-electron system (eV)
  ---------------------------------------------------
  alpha Z        PSCENC =       248.75411662
  Ewald energy   TEWEN  =     63405.95572721
  -Hartree energ DENC   =    -75260.52118920
  -exchange      EXHF   =         0.00000000
  -V(xc)+E(xc)   XCENC  =     -2086.51887209
  PAW double counting   =      8370.97212524    -5728.01191023
  entropy T*S    EENTRO =        -0.00000000
  eigenvalues    EBANDS =     -1226.81975517
  atomic energy  EATOM  =     11953.08265402
  Solvation  Ediel_sol  =         0.00000000
  ---------------------------------------------------
  free energy    TOTEN  =      -323.10710360 eV

  energy without entropy =     -323.10710360  energy(sigma->0) =     -323.10710360


--------------------------------------------------------------------------------------------------------




--------------------------------------- Iteration      1(  19)  ---------------------------------------


    POTLOK:  cpu time    0.2757: real time    0.2773
    SETDIJ:  cpu time    0.0112: real time    0.0112
    EDDIAG:  cpu time    2.4801: real time    2.4826
  RMM-DIIS:  cpu time   43.6294: real time   43.7196
    ORTHCH:  cpu time    0.2084: real time    0.2087
       DOS:  cpu time    0.0005: real time    0.0005
    CHARGE:  cpu time    1.1732: real time    1.1763
    MIXING:  cpu time    0.0085: real time    0.0085
    --------------------------------------------
      LOOP:  cpu time   47.7870: real time   47.8845

 eigenvalue-minimisations  :  2242
 total energy-change (2. order) :-0.3916729E-03  (-0.6965193E-05)
 number of electron     323.9999995 magnetization 
 augmentation part      -21.1768659 magnetization 

 Broyden mixing:
  rms(total) = 0.98159E-03    rms(broyden)= 0.98159E-03
  rms(prec ) = 0.12311E-02
  weight for this iteration     100.00

 eigenvalues of (default mixing * dielectric matrix)
  average eigenvalue GAMMA=   1.5363
  6.4327  3.0129  2.4098  1.8847  1.8847  1.0545  1.0545  0.8085  0.8085  0.6215
  0.4075  0.3921  0.3661  0.3707

 Free energy of the ion-electron system (eV)
  ---------------------------------------------------
  alpha Z        PSCENC =       248.75411662
  Ewald energy   TEWEN  =     63405.95572721
  -Hartree energ DENC   =    -75261.25922946
  -exchange      EXHF   =         0.00000000
  -V(xc)+E(xc)   XCENC  =     -2086.51680519
  PAW double counting   =      8370.91230054    -5727.94957083
  entropy T*S    EENTRO =        -0.00000000
  eigenvalues    EBANDS =     -1226.08668819
  atomic energy  EATOM  =     11953.08265402
  Solvation  Ediel_sol  =         0.00000000
  ---------------------------------------------------
  free energy    TOTEN  =      -323.10749527 eV

  energy without entropy =     -323.10749527  energy(sigma->0) =     -323.10749527


--------------------------------------------------------------------------------------------------------




--------------------------------------- Iteration      1(  20)  ---------------------------------------


    POTLOK:  cpu time    0.2796: real time    0.2799
    SETDIJ:  cpu time    0.0121: real time    0.0121
    EDDIAG:  cpu time    2.4851: real time    2.4875
  RMM-DIIS:  cpu time   40.0787: real time   40.1552
    ORTHCH:  cpu time    0.2145: real time    0.2147
       DOS:  cpu time    0.0005: real time    0.0005
    CHARGE:  cpu time    1.1736: real time    1.1747
    MIXING:  cpu time    0.0088: real time    0.0088
    --------------------------------------------
      LOOP:  cpu time   44.2528: real time   44.3333

 eigenvalue-minimisations  :  2067
 total energy-change (2. order) :-0.4957541E-03  (-0.6599855E-05)
 number of electron     323.9999995 magnetization 
 augmentation part      -21.1754505 magnetization 

 Broyden mixing:
  rms(total) = 0.39758E-03    rms(broyden)= 0.39757E-03
  rms(prec ) = 0.50322E-03
  weight for this iteration     100.00

 eigenvalues of (default mixing * dielectric matrix)
  average eigenvalue GAMMA=   1.5398
  6.8097  3.1691  2.4732  1.8188  1.8188  1.2160  1.2160  0.8085  0.8085  0.7897
  0.6317  0.4074  0.3949  0.3656  0.3696

 Free energy of the ion-electron system (eV)
  ---------------------------------------------------
  alpha Z        PSCENC =       248.75411662
  Ewald energy   TEWEN  =     63405.95572721
  -Hartree energ DENC   =    -75261.86224222
  -exchange      EXHF   =         0.00000000
  -V(xc)+E(xc)   XCENC  =     -2086.51645454
  PAW double counting   =      8371.33829611    -5728.37568305
  entropy T*S    EENTRO =        -0.00000000
  eigenvalues    EBANDS =     -1225.48440519
  atomic energy  EATOM  =     11953.08265402
  Solvation  Ediel_sol  =         0.00000000
  ---------------------------------------------------
  free energy    TOTEN  =      -323.10799103 eV

  energy without entropy =     -323.10799103  energy(sigma->0) =     -323.10799103


--------------------------------------------------------------------------------------------------------




--------------------------------------- Iteration      1(  21)  ---------------------------------------


    POTLOK:  cpu time    0.2768: real time    0.2771
    SETDIJ:  cpu time    0.0112: real time    0.0112
    EDDIAG:  cpu time    2.4864: real time    2.4921
  RMM-DIIS:  cpu time   41.8807: real time   41.9577
    ORTHCH:  cpu time    0.2149: real time    0.2151
       DOS:  cpu time    0.0005: real time    0.0005
    CHARGE:  cpu time    1.1759: real time    1.1797
    MIXING:  cpu time    0.0087: real time    0.0087
    --------------------------------------------
      LOOP:  cpu time   46.0552: real time   46.1422

 eigenvalue-minimisations  :  2074
 total energy-change (2. order) :-0.1218960E-03  (-0.1544001E-05)
 number of electron     323.9999995 magnetization 
 augmentation part      -21.1758501 magnetization 

 Broyden mixing:
  rms(total) = 0.37202E-03    rms(broyden)= 0.37202E-03
  rms(prec ) = 0.45557E-03
  weight for this iteration     100.00

 eigenvalues of (default mixing * dielectric matrix)
  average eigenvalue GAMMA=   1.5464
  7.0978  3.3220  2.5104  1.8984  1.8984  1.7959  1.0149  1.0149  0.8073  0.8073
  0.6274  0.3655  0.3684  0.4050  0.4050  0.4034

 Free energy of the ion-electron system (eV)
  ---------------------------------------------------
  alpha Z        PSCENC =       248.75411662
  Ewald energy   TEWEN  =     63405.95572721
  -Hartree energ DENC   =    -75262.00492234
  -exchange      EXHF   =         0.00000000
  -V(xc)+E(xc)   XCENC  =     -2086.51704216
  PAW double counting   =      8371.42335460    -5728.46206333
  entropy T*S    EENTRO =        -0.00000000
  eigenvalues    EBANDS =     -1225.33993755
  atomic energy  EATOM  =     11953.08265402
  Solvation  Ediel_sol  =         0.00000000
  ---------------------------------------------------
  free energy    TOTEN  =      -323.10811292 eV

  energy without entropy =     -323.10811292  energy(sigma->0) =     -323.10811292


--------------------------------------------------------------------------------------------------------




--------------------------------------- Iteration      1(  22)  ---------------------------------------


    POTLOK:  cpu time    0.2775: real time    0.2778
    SETDIJ:  cpu time    0.0113: real time    0.0114
    EDDIAG:  cpu time    2.4939: real time    2.4965
  RMM-DIIS:  cpu time   29.9282: real time   29.9743
    ORTHCH:  cpu time    0.2123: real time    0.2126
       DOS:  cpu time    0.0005: real time    0.0005
    CHARGE:  cpu time    1.1734: real time    1.1769
    MIXING:  cpu time    0.0089: real time    0.0089
    --------------------------------------------
      LOOP:  cpu time   34.1061: real time   34.1587

 eigenvalue-minimisations  :  1451
 total energy-change (2. order) :-0.8742314E-04  (-0.4524185E-06)
 number of electron     323.9999995 magnetization 
 augmentation part      -21.1764949 magnetization 

 Broyden mixing:
[...]
  0.000   0.000   0.000  -0.000   0.000   0.011   0.000  -0.000
 -0.000   0.000  -0.000   0.000   0.000   0.000   0.011  -0.000
  0.000  -0.000   0.000   0.000   0.000  -0.000  -0.000   0.011
 -0.001  -0.000   0.000   0.000  -0.000  -0.000   0.000   0.000
 -0.000   0.000  -0.015  -0.001   0.000  -0.000   0.000   0.000
 -0.009  -0.000   0.000  -0.019  -0.000  -0.000  -0.000   0.000
 -0.000  -0.000   0.000   0.001  -0.015   0.000  -0.000  -0.000
  0.001   0.000   0.001  -0.000   0.000   0.000   0.000  -0.000
 total augmentation occupancy for first ion, spin component:           1
  1.933   0.218   0.001   0.199  -0.003   0.009   0.040  -0.003   0.002   0.001   0.005  -0.001  -0.001
  0.218   1.363  -0.022  -0.941   0.017   0.004   0.373  -0.018  -0.006   0.004  -0.023  -0.003   0.010
  0.001  -0.022   1.336   0.009   0.002  -0.485  -0.013  -0.005   0.006  -0.117  -0.001   0.000  -0.042
  0.199  -0.941   0.009   1.507   0.001  -0.013  -0.537   0.009  -0.003  -0.004  -0.035   0.004  -0.000
 -0.003   0.017   0.002   0.001   1.336  -0.005   0.009  -0.490  -0.049  -0.000   0.001  -0.119   0.001
  0.009   0.004  -0.485  -0.013  -0.005   0.297   0.004  -0.004  -0.001   0.040  -0.000   0.001   0.007
  0.040   0.373  -0.013  -0.537   0.009   0.004   0.290  -0.004  -0.000   0.002   0.046  -0.002   0.000
 -0.003  -0.018  -0.005   0.009  -0.490  -0.004  -0.004   0.318   0.008   0.001   0.001   0.038  -0.001
  0.002  -0.006   0.006  -0.003  -0.049  -0.001  -0.000   0.008   0.020  -0.000   0.001  -0.000   0.000
  0.001   0.004  -0.117  -0.004  -0.000   0.040   0.002   0.001  -0.000   0.018   0.001  -0.000  -0.001
  0.005  -0.023  -0.001  -0.035   0.001  -0.000   0.046   0.001   0.001   0.001   0.020  -0.000  -0.001
 -0.001  -0.003   0.000   0.004  -0.119   0.001  -0.002   0.038  -0.000  -0.000  -0.000   0.019  -0.000
 -0.001   0.010  -0.042  -0.000   0.001   0.007   0.000  -0.001   0.000  -0.001  -0.001  -0.000   0.021


------------------------ aborting loop because EDIFF is reached ----------------------------------------


    CHARGE:  cpu time    1.1732: real time    1.1744
    FORLOC:  cpu time    0.0819: real time    0.0819
    FORNL :  cpu time   13.8799: real time   13.8997
    STRESS:  cpu time   69.6392: real time   69.7571
    FORCOR:  cpu time    0.3092: real time    0.3106
    FORHAR:  cpu time    0.1319: real time    0.1320
    MIXING:  cpu time    0.0077: real time    0.0077
    OFIELD:  cpu time    0.0000: real time    0.0000

  Number of pair interactions contributing to vdW energy:  272537
  Edisp (eV):  -19.73402
    FORVDW:  cpu time    0.0298: real time    0.0298

  FORCE on cell =-STRESS in cart. coord.  units (eV):
  Direction    XX          YY          ZZ          XY          YZ          ZX
  --------------------------------------------------------------------------------------
  Alpha Z   248.75412   248.75412   248.75412
  Ewald   72548.24790 72424.02684-81652.35484   -58.58666    37.25693    27.52527
  Hartree 74822.88652 74789.00685-74434.16612   -15.21928     3.73846     3.86105
  E(xc)   -1357.92033 -1355.66309 -1375.18464     1.04874    -1.49802    -0.89325
  Local  ************************151021.74859    71.66823   -40.34401   -30.62689
  n-local  3555.37061  3559.67154  3740.96921    -0.18538    10.79318     6.31763
  augment  -758.54193  -762.14541  -800.78883    -1.01854    -1.76316    -0.96911
  Kinetic  3312.14640  3275.97753  3267.71173   -13.94324     5.81772     4.37973
  Fock        0.00000     0.00000     0.00000     0.00000     0.00000     0.00000
  vdW       -12.70382   -12.70606    -8.78994     0.00232    -0.44616    -0.04758
  -------------------------------------------------------------------------------------
  Total      24.85992   -12.95056     7.89928   -16.23381    13.55494     9.54684
  in kB      13.80569    -7.19195     4.38678    -9.01527     7.52759     5.30174
  external pressure =        3.67 kB  Pullay stress =        0.00 kB

  kinetic pressure (ideal gas correction) =      0.24 kB
  total pressure  =      3.91 kB
  Total+kin.    13.987      -6.909       4.640      -8.949       7.492       5.276

 VOLUME and BASIS-vectors are now :
 -----------------------------------------------------------------------------
  energy-cutoff  :      550.00
  volume of cell :     2885.04
      direct lattice vectors                 reciprocal lattice vectors
    10.340368467  0.000000000  0.000000000     0.096708353  0.049855632  0.002665526
    -4.825225449  9.359817266  0.000000000     0.000000000  0.106839693  0.002499395
    -0.462111748 -0.697350482 29.809096889     0.000000000  0.000000000  0.033546806

  length of vectors
    10.340368467 10.530383653 29.820833361     0.108835631  0.106868924  0.033546806


 FORCES acting on ions
    electron-ion (+dipol)            ewald-force                    non-local-force                 convergence-correction
 -----------------------------------------------------------------------------------------------
   0.257E+01 -.621E+00 -.843E+03   -.255E+01 0.532E+00 0.849E+03   -.777E-01 0.222E+00 -.527E+01   0.135E-02 -.107E-02 0.626E-03
   -.138E+00 -.202E+01 -.846E+03   0.142E+00 0.191E+01 0.851E+03   0.197E+00 0.400E+00 -.548E+01   -.104E-02 0.557E-03 0.119E-02
   0.241E+01 -.403E+01 -.844E+03   -.236E+01 0.391E+01 0.850E+03   -.274E+00 0.492E+00 -.520E+01   -.612E-03 0.430E-03 -.101E-02
   -.146E+01 -.168E+00 -.845E+03   0.152E+01 0.618E-01 0.851E+03   0.317E+00 0.260E+00 -.527E+01   0.171E-03 0.177E-03 -.173E-02
   0.196E+01 -.169E+01 -.845E+03   -.198E+01 0.160E+01 0.850E+03   0.155E+00 0.240E+00 -.496E+01   0.191E-02 -.445E-03 0.309E-03
   0.164E+01 -.431E+01 -.842E+03   -.165E+01 0.427E+01 0.847E+03   0.942E-01 0.404E+00 -.555E+01   -.415E-03 0.117E-02 0.492E-04
   0.192E+01 -.254E+01 -.846E+03   -.196E+01 0.241E+01 0.851E+03   -.182E-01 0.534E+00 -.516E+01   -.148E-02 0.740E-05 0.223E-03
   0.746E-01 -.104E+01 -.844E+03   -.712E-01 0.921E+00 0.849E+03   0.452E-01 0.269E+00 -.510E+01   -.861E-03 0.215E-03 -.132E-02
   -.118E+00 -.520E+01 -.847E+03   0.171E+00 0.508E+01 0.853E+03   0.106E+00 0.509E+00 -.520E+01   0.102E-02 -.853E-03 0.301E-04
   -.159E+01 -.165E+01 0.119E+03   0.165E+01 0.154E+01 -.113E+03   0.114E+00 0.434E+00 -.505E+01   -.653E-03 0.242E-03 0.118E-02
   0.100E+01 -.629E+01 0.120E+03   -.984E+00 0.624E+01 -.115E+03   0.400E-01 0.720E+00 -.505E+01   0.433E-03 0.203E-02 -.312E-03
   0.683E+00 -.245E+01 0.121E+03   -.612E+00 0.238E+01 -.116E+03   -.527E-01 0.334E+00 -.551E+01   0.141E-02 -.165E-02 -.351E-03
   0.366E+01 -.263E+01 0.121E+03   -.368E+01 0.253E+01 -.116E+03   -.280E+00 0.561E+00 -.469E+01   0.105E-02 -.820E-03 0.139E-02
   0.657E+00 -.185E+01 0.120E+03   -.645E+00 0.178E+01 -.115E+03   -.714E-01 0.250E+00 -.513E+01   -.770E-03 0.125E-02 0.482E-03
   0.176E+01 -.347E+01 0.121E+03   -.179E+01 0.329E+01 -.116E+03   -.850E-01 0.713E+00 -.493E+01   -.102E-02 -.780E-03 -.129E-02
   0.198E+01 -.827E+00 0.120E+03   -.200E+01 0.741E+00 -.114E+03   -.144E-01 0.321E+00 -.526E+01   -.366E-03 -.746E-03 0.931E-03
   0.204E+01 -.313E+01 0.118E+03   -.209E+01 0.307E+01 -.112E+03   0.705E-02 0.307E+00 -.540E+01   0.357E-03 0.906E-03 0.135E-02
   0.261E+01 -.112E+01 0.123E+03   -.261E+01 0.102E+01 -.117E+03   -.301E+00 0.159E+00 -.531E+01   -.358E-03 -.288E-03 0.117E-03
   0.323E+01 -.316E+01 -.122E+03   -.318E+01 0.321E+01 0.117E+03   -.312E+00 0.389E-01 0.534E+01   0.139E-02 -.132E-02 -.110E-02
   0.164E+00 0.313E+00 -.123E+03   -.486E-01 -.287E+00 0.117E+03   -.302E+00 -.272E+00 0.510E+01   -.104E-02 0.722E-03 -.166E-02
   0.196E+01 -.370E+00 -.119E+03   -.182E+01 0.349E+00 0.113E+03   -.442E+00 -.233E+00 0.545E+01   -.581E-03 0.443E-03 0.747E-04
   0.417E+01 -.174E+01 -.118E+03   -.413E+01 0.178E+01 0.113E+03   -.344E+00 0.166E-01 0.518E+01   0.147E-03 -.304E-05 0.938E-03
   0.349E+01 0.336E-01 -.118E+03   -.344E+01 -.337E-01 0.113E+03   -.217E+00 -.191E+00 0.531E+01   0.190E-02 -.463E-03 -.832E-03
   0.263E+01 0.100E+01 -.123E+03   -.255E+01 -.105E+01 0.118E+03   -.342E+00 -.178E+00 0.554E+01   -.462E-03 0.120E-02 -.772E-03
   -.294E+01 -.220E+01 -.119E+03   0.307E+01 0.224E+01 0.114E+03   0.649E-01 -.481E-01 0.536E+01   -.161E-02 -.114E-03 -.840E-03
   0.840E+00 -.132E+01 -.121E+03   -.748E+00 0.137E+01 0.115E+03   -.325E+00 -.220E+00 0.518E+01   -.909E-03 0.318E-03 0.662E-03
   0.135E+01 -.252E+01 -.121E+03   -.122E+01 0.254E+01 0.116E+03   -.313E+00 -.172E+00 0.506E+01   0.104E-02 -.985E-03 -.690E-03
   0.158E+01 -.182E+01 0.844E+03   -.147E+01 0.185E+01 -.850E+03   -.304E+00 -.361E-01 0.498E+01   -.724E-03 0.350E-03 -.774E-03
   0.274E+01 -.146E+01 0.844E+03   -.262E+01 0.142E+01 -.849E+03   -.388E+00 -.533E-01 0.540E+01   0.454E-03 0.206E-02 0.106E-02
   0.204E+01 -.228E+00 0.844E+03   -.193E+01 0.219E+00 -.849E+03   -.315E+00 -.158E+00 0.556E+01   0.131E-02 -.176E-02 0.950E-03
   -.282E+00 -.340E+00 0.846E+03   0.415E+00 0.328E+00 -.852E+03   -.287E+00 -.152E+00 0.504E+01   0.867E-03 -.786E-03 -.824E-03
   0.277E+01 -.183E+01 0.848E+03   -.268E+01 0.185E+01 -.853E+03   -.562E+00 -.136E+00 0.527E+01   -.849E-03 0.120E-02 -.180E-03
   0.150E+01 -.266E+01 0.846E+03   -.139E+01 0.265E+01 -.851E+03   -.396E+00 -.161E-01 0.534E+01   -.894E-03 -.938E-03 0.175E-02
   0.443E+01 -.242E+01 0.844E+03   -.436E+01 0.244E+01 -.850E+03   -.543E+00 0.109E+00 0.529E+01   -.243E-03 -.752E-03 -.196E-03
   0.129E+01 0.943E-01 0.844E+03   -.113E+01 -.448E-01 -.849E+03   -.511E+00 -.384E+00 0.511E+01   0.415E-03 0.101E-02 -.482E-03
   0.254E+01 -.341E+00 0.842E+03   -.243E+01 0.298E+00 -.847E+03   -.480E+00 -.190E+00 0.530E+01   -.432E-03 -.379E-03 0.423E-03
   -.386E+01 0.182E+01 -.487E+03   0.391E+01 -.188E+01 0.487E+03   0.144E+00 -.455E-01 -.212E+00   0.162E-03 -.905E-03 -.662E-03
   -.481E+01 0.497E+01 -.482E+03   0.491E+01 -.514E+01 0.482E+03   0.111E+00 -.132E+00 0.243E-01   -.216E-02 0.494E-03 -.593E-03
   -.557E+01 0.294E+00 -.481E+03   0.574E+01 -.315E+00 0.481E+03   0.370E+00 0.149E+00 -.507E-02   0.238E-03 -.417E-03 -.681E-03
   -.184E+01 0.498E+01 -.484E+03   0.196E+01 -.513E+01 0.484E+03   -.135E-01 -.161E+00 -.938E-01   0.114E-02 -.432E-03 -.663E-03
   0.313E+00 0.375E+01 -.482E+03   -.312E+00 -.384E+01 0.482E+03   -.132E+00 -.254E-01 -.833E-01   0.109E-02 -.434E-03 -.610E-03
   -.510E+01 0.254E+01 -.483E+03   0.524E+01 -.261E+01 0.483E+03   0.416E+00 -.660E-01 -.293E-01   -.114E-02 0.150E-02 -.690E-03
   -.143E+01 0.648E+01 -.482E+03   0.145E+01 -.658E+01 0.482E+03   -.113E+00 -.297E+00 0.326E+00   -.141E-02 0.730E-03 -.575E-03
   -.254E+01 0.479E+01 -.482E+03   0.261E+01 -.491E+01 0.482E+03   -.255E-01 0.201E-01 -.225E+00   0.992E-03 -.472E-03 -.619E-03
   0.144E+01 0.760E+00 -.484E+03   -.141E+01 -.831E+00 0.484E+03   -.196E+00 0.186E+00 -.200E+00   0.927E-03 0.933E-04 -.671E-03
   -.236E+01 0.791E+01 0.484E+03   0.247E+01 -.814E+01 -.484E+03   0.338E-01 -.261E+00 0.157E+00   0.602E-03 -.150E-02 0.695E-03
   -.397E+01 0.927E+00 0.480E+03   0.415E+01 -.981E+00 -.481E+03   0.258E+00 -.111E+00 -.283E+00   -.737E-03 0.184E-02 0.524E-03
   0.762E+00 0.369E+01 0.485E+03   -.724E+00 -.382E+01 -.486E+03   -.169E+00 -.290E+00 0.932E-01   0.573E-03 -.128E-03 0.663E-03
   -.568E+01 0.561E+01 0.480E+03   0.593E+01 -.584E+01 -.480E+03   0.484E+00 -.358E+00 -.397E+00   0.195E-03 -.169E-02 0.667E-03
   -.429E+01 0.106E+01 0.489E+03   0.449E+01 -.106E+01 -.489E+03   0.295E+00 0.555E-01 0.401E+00   -.136E-04 0.670E-03 0.669E-03
   -.525E+01 0.211E+01 0.485E+03   0.546E+01 -.226E+01 -.485E+03   0.486E+00 0.178E+00 -.159E-01   -.135E-02 0.525E-03 0.624E-03
   -.538E+00 0.562E+01 0.485E+03   0.606E+00 -.572E+01 -.485E+03   -.804E-02 -.228E+00 0.227E+00   -.768E-03 -.691E-03 0.584E-03
   -.131E+01 0.267E+01 0.481E+03   0.136E+01 -.279E+01 -.482E+03   0.742E-01 -.138E+00 -.174E+00   0.726E-03 0.939E-03 0.522E-03
   -.512E+01 0.246E+01 0.477E+03   0.534E+01 -.257E+01 -.477E+03   0.397E+00 0.239E+00 -.867E-01   0.709E-03 0.147E-03 0.579E-03
 -----------------------------------------------------------------------------------------------
   0.400E+01 -.357E+01 -.721E+00   0.462E-13 -.195E-13 -.102E-11   -.401E+01 0.357E+01 0.722E+00   -.308E-03 0.386E-03 -.863E-03
 
 
 POSITION                                       TOTAL-FORCE (eV/Angst)
 -----------------------------------------------------------------------------------
      1.47042      0.59546     20.19344        -0.060205      0.132676      0.169700
     -0.17021      3.68959     20.22343         0.184299      0.283276     -0.115508
     -1.75585      6.80938     20.19755        -0.227898      0.371027      0.145710
      4.88549      0.59059     20.20120         0.356126      0.158343      0.086752
      3.29399      3.70546     20.18438         0.133659      0.152426      0.426387
      1.67631      6.81128     20.20043         0.069922      0.358103     -0.130050
      8.35010      0.56982     20.20220        -0.069848      0.391940      0.161307
      6.74091      3.71348     20.17934         0.038964      0.151274      0.281825
      5.11930      6.79828     20.21365         0.150034      0.382879      0.163165
     -0.13029      1.78287     13.20842         0.155969      0.321221      0.306411
     -1.74112      4.87431     13.22105         0.038788      0.650657      0.217164
     -3.33242      8.02134     13.23557        -0.002192      0.259503     -0.214771
      3.33090      1.78381     13.18010        -0.311959      0.446327      0.620715
      1.72892      4.90693     13.20849        -0.070630      0.177944      0.143813
      0.11753      7.98989     13.20525        -0.121263      0.519936      0.339379
      6.77584      1.78483     13.23386        -0.057876      0.230037      0.014403
      5.14398      4.88627     13.25113        -0.060129      0.244983     -0.176172
      3.56827      8.05351     13.21204        -0.309931      0.063902      0.068323
      1.49582      0.62205     16.60719        -0.246350      0.106353     -0.069665
     -0.10706      3.77575     16.61506        -0.176863     -0.228913     -0.280996
     -1.71694      6.90243     16.57109        -0.289579     -0.238068      0.113182
      4.95064      0.63074     16.58119        -0.294083      0.071027     -0.118033
      3.34192      3.76025     16.58708        -0.152742     -0.185608     -0.055170
      1.73857      6.88200     16.59142        -0.250274     -0.205357      0.116576
      8.36642      0.63930     16.57379         0.196784      0.007244      0.062252
      6.78490      3.77001     16.59706        -0.221276     -0.159426     -0.149725
      5.15990      6.89254     16.60757        -0.186224     -0.130316     -0.239363
     -0.08585      1.86027      9.63209        -0.197482      0.012607     -0.414878
     -1.68694      4.96784      9.60703        -0.258631     -0.084361      0.061963
     -3.31061      8.09053      9.58946        -0.207259     -0.153809      0.228054
      3.35975      1.84542      9.61605        -0.154779     -0.152521     -0.334960
      1.76599      4.96802      9.58365        -0.464931     -0.107242     -0.024853
      0.15676      8.09726      9.59402        -0.287603     -0.006209      0.023460
      6.82174      1.83356      9.61461        -0.460072      0.127224     -0.037982
      5.22821      4.99190      9.62173        -0.342280     -0.317864     -0.202514
      3.61105      8.09645      9.62827        -0.360574     -0.220679     -0.126058
      5.22379      8.91352     18.41403         0.228955     -0.111620     -0.243482
     -1.88521      2.67932     18.39058         0.221340     -0.306131      0.039355
      6.82259      5.79908     18.38785         0.570085      0.110772      0.036194
     -1.64288      8.92214     18.39673         0.095326     -0.321684     -0.074980
      1.57613      2.68634     18.40054        -0.137635     -0.124641     -0.115594
     -0.07964      5.79883     18.39721         0.595030     -0.150825     -0.047319
      6.62824     -0.41743     18.36832        -0.093661     -0.436430      0.531887
      5.01246      2.67056     18.39877         0.048669     -0.109538     -0.273909
      3.41457      5.77578     18.40627        -0.200693      0.125485     -0.242603
      1.58404      0.77910     11.40048         0.138420     -0.506587      0.157316
     -0.03053      3.89167     11.43320         0.440739     -0.172473     -0.409691
     -1.61617      7.02143     11.39974        -0.162777     -0.421149      0.023352
      5.01716      0.77671     11.44005         0.761570     -0.603409     -0.617590
      3.41458      3.88236     11.37780         0.495432      0.048929      0.436699
      1.79493      6.99128     11.40599         0.717632      0.039011     -0.107227
      8.48879      0.78629     11.40358         0.049173     -0.358127      0.250352
      6.86681      3.88772     11.43528         0.126389     -0.268830     -0.309181
      5.24960      6.98262     11.43834         0.623183      0.136166     -0.092539
 -----------------------------------------------------------------------------------
    total drift:                               -0.001208     -0.000544      0.000885


--------------------------------------------------------------------------------------------------------



  FREE ENERGIE OF THE ION-ELECTRON SYSTEM (eV)
  ---------------------------------------------------
  free  energy   TOTEN  =      -342.80645198 eV

  energy  without entropy=     -342.80645198  energy(sigma->0) =     -342.80645198
 
 d Force =-0.1107791E-01[-0.133E-01,-0.884E-02]  d Energy =-0.1106135E-01-0.166E-04
 d Force = 0.1184988E+02[ 0.118E+02, 0.119E+02]  d Ewald  = 0.1184988E+02 0.171E-07


--------------------------------------------------------------------------------------------------------


    POTLOK:  cpu time    0.2869: real time    0.2872


--------------------------------------------------------------------------------------------------------


           RANDOM_SEED =         209808348              324                0
   IONSTEP:  cpu time    0.0001: real time    0.0001

  ENERGY OF THE ELECTRON-ION-THERMOSTAT SYSTEM (eV)
  ---------------------------------------------------
% ion-electron   TOTEN  =      -342.806452  see above
  kinetic energy EKIN   =         0.641234
  kin. lattice  EKIN_LAT=         0.000000  (temperature   93.60 K)
  nose potential ES     =        -0.000624
  nose kinetic   EPS    =         0.000131
  ---------------------------------------------------
  total energy   ETOTAL =      -342.165711 eV

  maximum distance moved by ions :      0.61E-03


 mean value of Nose-termostat <S>:     0.998 mean value of <T> :    93.600
 mean temperature <T/S>/<1/S>  :    93.600

    WAVPRE:  cpu time    0.1034: real time    0.1067
    FEWALD:  cpu time    0.0034: real time    0.0034
    ORTHCH:  cpu time    7.8256: real time    7.8401
    POTLOK:  cpu time    0.2903: real time    0.2906
    EDDIAG:  cpu time    2.4831: real time    2.4854
     LOOP+:  cpu time  464.5259: real time  465.3392
    4ORBIT:  cpu time    0.0000: real time    0.0000

 total amount of memory used by VASP MPI-rank0   359927. kBytes
=======================================================================

   base      :      30000. kBytes
   nonl-proj :     194826. kBytes
   fftplans  :      17372. kBytes
   grid      :      82746. kBytes
   one-center:        839. kBytes
   wavefun   :      34144. kBytes
 
  
  
 General timing and accounting informations for this job:
 ========================================================
  
                  Total CPU time used (sec):     5613.448
                            User time (sec):     5601.117
                          System time (sec):       12.331
                         Elapsed time (sec):     5623.286
  
                   Maximum memory used (kb):      802220.
                   Average memory used (kb):           0.
  
                          Minor page faults:       361620
                          Major page faults:            0
                 Voluntary context switches:          692
