0.000000000000000000e+00 2.032270000000000021e+00 9.354589999999999961e+00 -1.760000000000000009e+00 5.080680000000000085e+00 9.354589999999999961e+00 -3.520000000000000018e+00 8.129089999999999705e+00 9.354589999999999961e+00 3.520000000000000018e+00 2.032270000000000021e+00 9.354589999999999961e+00 1.760000000000000009e+00 5.080680000000000085e+00 9.354589999999999961e+00 0.000000000000000000e+00 8.129089999999999705e+00 9.354589999999999961e+00 7.040000000000000036e+00 2.032270000000000021e+00 9.354589999999999961e+00 5.280000000000000249e+00 5.080680000000000085e+00 9.354589999999999961e+00 3.520000000000000018e+00 8.129089999999999705e+00 9.354589999999999961e+00 3.519999999999999796e-01 2.032270000000000021e+00 1.701816000000000173e+01 -1.407999999999999918e+00 5.080680000000000085e+00 1.701816000000000173e+01 -3.168000000000000149e+00 8.129089999999999705e+00 1.701816000000000173e+01 3.871999999999999886e+00 2.032270000000000021e+00 1.701816000000000173e+01 2.112000000000000099e+00 5.080680000000000085e+00 1.701816000000000173e+01 3.519999999999999796e-01 8.129089999999999705e+00 1.701816000000000173e+01 7.392000000000000348e+00 2.032270000000000021e+00 1.701816000000000173e+01 5.631999999999999673e+00 5.080680000000000085e+00 1.701816000000000173e+01 3.871999999999999886e+00 8.129089999999999705e+00 1.701816000000000173e+01 0.000000000000000000e+00 2.032270000000000021e+00 1.298185999999999929e+01 -1.760000000000000009e+00 5.080680000000000085e+00 1.298185999999999929e+01 -3.520000000000000018e+00 8.129089999999999705e+00 1.298185999999999929e+01 3.520000000000000018e+00 2.032270000000000021e+00 1.298185999999999929e+01 1.760000000000000009e+00 5.080680000000000085e+00 1.298185999999999929e+01 0.000000000000000000e+00 8.129089999999999705e+00 1.298185999999999929e+01 7.040000000000000036e+00 2.032270000000000021e+00 1.298185999999999929e+01 5.280000000000000249e+00 5.080680000000000085e+00 1.298185999999999929e+01 3.520000000000000018e+00 8.129089999999999705e+00 1.298185999999999929e+01 3.519999999999999796e-01 2.032270000000000021e+00 2.064542000000000144e+01 -1.407999999999999918e+00 5.080680000000000085e+00 2.064542000000000144e+01 -3.168000000000000149e+00 8.129089999999999705e+00 2.064542000000000144e+01 3.871999999999999886e+00 2.032270000000000021e+00 2.064542000000000144e+01 2.112000000000000099e+00 5.080680000000000085e+00 2.064542000000000144e+01 3.519999999999999796e-01 8.129089999999999705e+00 2.064542000000000144e+01 7.392000000000000348e+00 2.032270000000000021e+00 2.064542000000000144e+01 5.631999999999999673e+00 5.080680000000000085e+00 2.064542000000000144e+01 3.871999999999999886e+00 8.129089999999999705e+00 2.064542000000000144e+01 0.000000000000000000e+00 0.000000000000000000e+00 1.116769999999999996e+01 -1.760000000000000009e+00 3.048410000000000064e+00 1.116769999999999996e+01 -3.520000000000000018e+00 6.096820000000000128e+00 1.116769999999999996e+01 3.520000000000000018e+00 0.000000000000000000e+00 1.116769999999999996e+01 1.760000000000000009e+00 3.048410000000000064e+00 1.116769999999999996e+01 0.000000000000000000e+00 6.096820000000000128e+00 1.116769999999999996e+01 7.040000000000000036e+00 0.000000000000000000e+00 1.116769999999999996e+01 5.280000000000000249e+00 3.048410000000000064e+00 1.116769999999999996e+01 3.520000000000000018e+00 6.096820000000000128e+00 1.116769999999999996e+01 3.519999999999999796e-01 0.000000000000000000e+00 1.883230999999999966e+01 -1.407999999999999918e+00 3.048410000000000064e+00 1.883230999999999966e+01 -3.168000000000000149e+00 6.096820000000000128e+00 1.883230999999999966e+01 3.871999999999999886e+00 0.000000000000000000e+00 1.883230999999999966e+01 2.112000000000000099e+00 3.048410000000000064e+00 1.883230999999999966e+01 3.519999999999999796e-01 6.096820000000000128e+00 1.883230999999999966e+01 7.392000000000000348e+00 0.000000000000000000e+00 1.883230999999999966e+01 5.631999999999999673e+00 3.048410000000000064e+00 1.883230999999999966e+01 3.871999999999999886e+00 6.096820000000000128e+00 1.883230999999999966e+01
-8.999999999999999754e-04 2.032469999999999999e+00 9.356130000000000280e+00 -1.758510000000000018e+00 5.079939999999999678e+00 9.357329999999999259e+00 -3.519530000000000047e+00 8.129110000000000724e+00 9.356469999999999843e+00 3.517749999999999932e+00 2.033580000000000165e+00 9.354309999999999903e+00 1.758240000000000025e+00 5.081249999999999822e+00 9.356389999999999318e+00 1.010000000000000047e-03 8.131410000000000693e+00 9.354419999999999291e+00 7.038190000000000168e+00 2.031660000000000021e+00 9.355909999999999727e+00 5.281460000000000043e+00 5.079069999999999752e+00 9.351940000000000808e+00 3.519789999999999974e+00 8.131199999999999761e+00 9.352539999999999409e+00 3.529800000000000160e-01 2.032000000000000028e+00 1.701773000000000025e+01 -1.407620000000000093e+00 5.079310000000000436e+00 1.701694000000000173e+01 -3.169490000000000141e+00 8.130380000000000607e+00 1.701702999999999832e+01 3.871799999999999908e+00 2.031590000000000007e+00 1.701762000000000086e+01 2.111289999999999889e+00 5.080189999999999984e+00 1.701653999999999911e+01 3.515599999999999836e-01 8.131199999999999761e+00 1.701958000000000126e+01 7.392120000000000246e+00 2.031109999999999971e+00 1.701958000000000126e+01 5.626540000000000319e+00 5.081450000000000244e+00 1.701698000000000022e+01 3.871970000000000134e+00 8.130359999999999587e+00 1.701941000000000059e+01 -1.010000000000000047e-03 2.031270000000000131e+00 1.298385000000000034e+01 -1.756480000000000041e+00 5.081730000000000302e+00 1.298174999999999990e+01 -3.520179999999999865e+00 8.124729999999999563e+00 1.298465999999999987e+01 3.519649999999999945e+00 2.028329999999999966e+00 1.298192000000000057e+01 1.762650000000000050e+00 5.078990000000000116e+00 1.298438999999999943e+01 1.700000000000000122e-04 8.126129999999999853e+00 1.298254999999999981e+01 7.040840000000000209e+00 2.031550000000000189e+00 1.298080999999999996e+01 5.277739999999999654e+00 5.080429999999999779e+00 1.298334000000000010e+01 3.520370000000000221e+00 8.128479999999999706e+00 1.297986000000000040e+01 3.527399999999999980e-01 2.033110000000000195e+00 2.064411000000000129e+01 -1.410760000000000014e+00 5.081889999999999574e+00 2.064705000000000013e+01 -3.165529999999999955e+00 8.127950000000000230e+00 2.064307000000000158e+01 3.871119999999999894e+00 2.032430000000000181e+00 2.064622999999999919e+01 2.110700000000000021e+00 5.081269999999999953e+00 2.064742000000000033e+01 3.522199999999999775e-01 8.131980000000000430e+00 2.064594999999999914e+01 7.395170000000000243e+00 2.031190000000000051e+00 2.064423999999999992e+01 5.633820000000000050e+00 5.081590000000000273e+00 2.064733999999999980e+01 3.870220000000000216e+00 8.127259999999999707e+00 2.064343999999999824e+01 3.600000000000000227e-04 1.869999999999999917e-03 1.116563999999999979e+01 8.799599999999999866e+00 3.048480000000000079e+00 1.116752999999999929e+01 -3.519950000000000134e+00 6.098390000000000200e+00 1.116940999999999917e+01 3.521770000000000067e+00 2.939999999999999905e-03 1.116846999999999923e+01 1.760389999999999899e+00 3.049970000000000070e+00 1.116581000000000046e+01 -2.560000000000000209e-03 6.096919999999999895e+00 1.116519000000000084e+01 7.040540000000000020e+00 6.599999999999999964e-04 1.116615000000000002e+01 5.278819999999999624e+00 3.050209999999999866e+00 1.116822999999999944e+01 3.519210000000000171e+00 6.094540000000000290e+00 1.116815000000000069e+01 -4.926770000000000316e+00 9.143470000000000653e+00 1.883173999999999992e+01 -1.406190000000000051e+00 3.049519999999999786e+00 1.883173000000000030e+01 -3.169179999999999886e+00 6.095790000000000042e+00 1.883011000000000124e+01 3.871300000000000185e+00 9.899999999999999946e-04 1.883161000000000129e+01 2.115289999999999893e+00 3.051149999999999807e+00 1.883130999999999844e+01 3.510900000000000132e-01 6.095460000000000100e+00 1.883101999999999876e+01 7.394059999999999633e+00 4.200000000000000174e-04 1.883278999999999925e+01 5.636809999999999654e+00 3.046870000000000189e+00 1.883396000000000114e+01 3.868590000000000195e+00 6.098209999999999908e+00 1.882989999999999853e+01
-1.789999999999999925e-03 2.032669999999999977e+00 9.357649999999999579e+00 -1.757039999999999935e+00 5.079189999999999650e+00 9.360060000000000713e+00 -3.519060000000000077e+00 8.129139999999999588e+00 9.358330000000000481e+00 3.515509999999999913e+00 2.034879999999999800e+00 9.354020000000000223e+00 1.756480000000000041e+00 5.081819999999999560e+00 9.358180000000000831e+00 2.010000000000000068e-03 8.133720000000000283e+00 9.354250000000000398e+00 7.036389999999999922e+00 2.031050000000000022e+00 9.357210000000000250e+00 5.282919999999999838e+00 5.077460000000000306e+00 9.349299999999999500e+00 3.519589999999999996e+00 8.133300000000000196e+00 9.350490000000000634e+00 3.539599999999999969e-01 2.031740000000000101e+00 1.701729999999999876e+01 -1.407229999999999981e+00 5.077939999999999898e+00 1.701572000000000173e+01 -3.170980000000000132e+00 8.131669999999999732e+00 1.701588999999999885e+01 3.871620000000000061e+00 2.030899999999999928e+00 1.701709999999999923e+01 2.110570000000000057e+00 5.079699999999999882e+00 1.701492000000000004e+01 3.511400000000000077e-01 8.133309999999999818e+00 1.702100000000000080e+01 7.392249999999999766e+00 2.029949999999999921e+00 1.702101000000000042e+01 5.621100000000000207e+00 5.082209999999999894e+00 1.701580999999999833e+01 3.871939999999999937e+00 8.131640000000000867e+00 1.702065999999999946e+01 -2.020000000000000094e-03 2.030279999999999863e+00 1.298583999999999961e+01 -1.752969999999999917e+00 5.082779999999999632e+00 1.298164000000000051e+01 -3.520370000000000221e+00 8.120380000000000820e+00 1.298745000000000083e+01 3.519289999999999807e+00 2.024399999999999977e+00 1.298197000000000045e+01 1.765290000000000026e+00 5.077309999999999768e+00 1.298691999999999958e+01 3.299999999999999982e-04 8.123170000000000002e+00 1.298323000000000071e+01 7.041660000000000252e+00 2.030819999999999848e+00 1.297977000000000025e+01 5.275489999999999569e+00 5.080180000000000362e+00 1.298481999999999914e+01 3.520739999999999981e+00 8.127860000000000085e+00 1.297785999999999973e+01 3.534900000000000264e-01 2.033939999999999859e+00 2.064279000000000153e+01 -1.413510000000000044e+00 5.083099999999999952e+00 2.064867999999999881e+01 -3.163060000000000205e+00 8.126810000000000755e+00 2.064072000000000173e+01 3.870249999999999968e+00 2.032599999999999962e+00 2.064704000000000050e+01 2.109399999999999942e+00 5.081850000000000200e+00 2.064941999999999922e+01 3.524399999999999755e-01 8.134859999999999758e+00 2.064648000000000039e+01 7.398329999999999629e+00 2.030120000000000147e+00 2.064307000000000158e+01 5.635629999999999917e+00 5.082489999999999952e+00 2.064924999999999855e+01 3.868459999999999788e+00 8.125429999999999708e+00 2.064147000000000176e+01 7.200000000000000453e-04 3.729999999999999809e-03 1.116361000000000026e+01 8.799189999999999401e+00 3.048550000000000093e+00 1.116737000000000002e+01 -3.519909999999999872e+00 6.099929999999999630e+00 1.117112000000000016e+01 3.523530000000000051e+00 5.859999999999999758e-03 1.116923000000000066e+01 1.760769999999999946e+00 3.051520000000000010e+00 1.116394000000000020e+01 -5.089999999999999906e-03 6.097019999999999662e+00 1.116269999999999918e+01 7.041070000000000384e+00 1.319999999999999993e-03 1.116461999999999932e+01 5.277639999999999887e+00 3.051989999999999981e+00 1.116874999999999929e+01 3.518419999999999881e+00 6.092279999999999696e+00 1.116858000000000040e+01 -4.925539999999999807e+00 9.141730000000000800e+00 1.883117999999999981e+01 -1.404379999999999962e+00 3.050629999999999953e+00 1.883115000000000094e+01 -3.170360000000000067e+00 6.094769999999999577e+00 1.882790999999999926e+01 3.870589999999999975e+00 1.990000000000000015e-03 1.883090999999999937e+01 2.118580000000000130e+00 3.053889999999999993e+00 1.883031000000000077e+01 3.501799999999999913e-01 6.094109999999999694e+00 1.882974000000000103e+01 7.396099999999999675e+00 8.400000000000000348e-04 1.883326999999999884e+01 5.641580000000000261e+00 3.045339999999999936e+00 1.883560999999999908e+01 3.865190000000000126e+00 6.099590000000000067e+00 1.882751000000000019e+01
-2.690000000000000117e-03 2.032880000000000020e+00 9.359149999999999636e+00 -1.755579999999999918e+00 5.078450000000000131e+00 9.362769999999999371e+00 -3.518580000000000041e+00 8.129170000000000229e+00 9.360200000000000742e+00 3.513290000000000024e+00 2.036189999999999944e+00 9.353730000000000544e+00 1.754729999999999901e+00 5.082390000000000185e+00 9.359949999999999548e+00 3.010000000000000089e-03 8.136029999999999873e+00 9.354070000000000107e+00 7.034580000000000055e+00 2.030460000000000154e+00 9.358510000000000773e+00 5.284370000000000012e+00 5.075870000000000104e+00 9.346669999999999590e+00 3.519390000000000018e+00 8.135389999999999233e+00 9.348440000000000083e+00 3.549599999999999977e-01 2.031470000000000109e+00 1.701688000000000045e+01 -1.406849999999999934e+00 5.076570000000000249e+00 1.701450000000000173e+01 -3.172449999999999992e+00 8.132939999999999614e+00 1.701475999999999900e+01 3.871459999999999901e+00 2.030229999999999979e+00 1.701657000000000153e+01 2.109859999999999847e+00 5.079220000000000290e+00 1.701329000000000136e+01 3.507199999999999762e-01 8.135410000000000252e+00 1.702241000000000071e+01 7.392400000000000304e+00 2.028789999999999871e+00 1.702241000000000071e+01 5.615689999999999849e+00 5.082959999999999923e+00 1.701463999999999999e+01 3.871919999999999806e+00 8.132910000000000750e+00 1.702187999999999946e+01 -3.020000000000000115e-03 2.029290000000000038e+00 1.298780000000000001e+01 -1.749489999999999990e+00 5.083820000000000228e+00 1.298152999999999935e+01 -3.520570000000000199e+00 8.116059999999999164e+00 1.299023000000000039e+01 3.518930000000000113e+00 2.020490000000000119e+00 1.298202999999999996e+01 1.767900000000000027e+00 5.075630000000000308e+00 1.298942000000000085e+01 5.000000000000000104e-04 8.120229999999999393e+00 1.298390999999999984e+01 7.042469999999999786e+00 2.030100000000000016e+00 1.297873000000000054e+01 5.273240000000000371e+00 5.079930000000000057e+00 1.298629000000000033e+01 3.521090000000000053e+00 8.127250000000000085e+00 1.297586000000000084e+01 3.542500000000000093e-01 2.034769999999999968e+00 2.064147000000000176e+01 -1.416250000000000009e+00 5.084310000000000329e+00 2.065028999999999826e+01 -3.160600000000000076e+00 8.125659999999999883e+00 2.063838000000000150e+01 3.869400000000000173e+00 2.032770000000000188e+00 2.064783999999999864e+01 2.108099999999999863e+00 5.082440000000000069e+00 2.065139999999999887e+01 3.526599999999999735e-01 8.137719999999999843e+00 2.064698999999999884e+01 7.401500000000000412e+00 2.029040000000000177e+00 2.064190999999999931e+01 5.637419999999999654e+00 5.083389999999999631e+00 2.065112999999999843e+01 3.866699999999999804e+00 8.123609999999999332e+00 2.063951000000000136e+01 1.080000000000000014e-03 5.559999999999999838e-03 1.116161999999999921e+01 8.798790000000000333e+00 3.048620000000000108e+00 1.116722999999999999e+01 -3.519880000000000120e+00 6.101440000000000197e+00 1.117281000000000013e+01 3.525250000000000217e+00 8.729999999999999913e-03 1.116999000000000031e+01 1.761130000000000084e+00 3.053040000000000198e+00 1.116212999999999944e+01 -7.559999999999999880e-03 6.097129999999999939e+00 1.116025999999999918e+01 7.041590000000000238e+00 1.949999999999999910e-03 1.116310999999999964e+01 5.276449999999999640e+00 3.053760000000000030e+00 1.116926999999999914e+01 3.517640000000000100e+00 6.090060000000000251e+00 1.116899000000000086e+01 -4.924319999999999808e+00 9.140010000000000190e+00 1.883062999999999931e+01 -1.402590000000000003e+00 3.051740000000000119e+00 1.883058000000000121e+01 -3.171520000000000117e+00 6.093750000000000000e+00 1.882571000000000083e+01 3.869899999999999896e+00 2.980000000000000010e-03 1.883021000000000100e+01 2.121840000000000170e+00 3.056610000000000049e+00 1.882931999999999917e+01 3.492700000000000249e-01 6.092780000000000307e+00 1.882849999999999824e+01 7.398130000000000095e+00 1.260000000000000052e-03 1.883373999999999882e+01 5.646300000000000097e+00 3.043829999999999814e+00 1.883724000000000132e+01 3.861819999999999808e+00 6.100929999999999964e+00 1.882516999999999996e+01
-3.579999999999999849e-03 2.033100000000000129e+00 9.360630000000000450e+00 -1.754150000000000098e+00 5.077709999999999724e+00 9.365439999999999543e+00 -3.518100000000000005e+00 8.129210000000000491e+00 9.362049999999999983e+00 3.511080000000000201e+00 2.037500000000000089e+00 9.353429999999999467e+00 1.752990000000000048e+00 5.082959999999999923e+00 9.361679999999999779e+00 4.000000000000000083e-03 8.138329999999999842e+00 9.353889999999999816e+00 7.032790000000000319e+00 2.029879999999999907e+00 9.359799999999999898e+00 5.285820000000000185e+00 5.074290000000000411e+00 9.344079999999999941e+00 3.519200000000000106e+00 8.137449999999999406e+00 9.346420000000000172e+00 3.559800000000000186e-01 2.031210000000000182e+00 1.701648000000000138e+01 -1.406470000000000109e+00 5.075219999999999843e+00 1.701328000000000173e+01 -3.173890000000000100e+00 8.134199999999999875e+00 1.701361999999999952e+01 3.871340000000000003e+00 2.029570000000000096e+00 1.701605999999999952e+01 2.109150000000000080e+00 5.078750000000000320e+00 1.701165999999999912e+01 3.503100000000000103e-01 8.137489999999999668e+00 1.702382000000000062e+01 7.392570000000000086e+00 2.027649999999999952e+00 1.702380000000000138e+01 5.610310000000000130e+00 5.083689999999999820e+00 1.701349000000000089e+01 3.871900000000000119e+00 8.134180000000000632e+00 1.702308000000000021e+01 -4.020000000000000136e-03 2.028309999999999835e+00 1.298973999999999940e+01 -1.746029999999999971e+00 5.084850000000000314e+00 1.298142999999999958e+01 -3.520770000000000177e+00 8.111789999999999168e+00 1.299296999999999969e+01 3.518559999999999910e+00 2.016620000000000079e+00 1.298210000000000086e+01 1.770469999999999988e+00 5.073959999999999582e+00 1.299188999999999972e+01 6.700000000000000226e-04 8.117300000000000182e+00 1.298456999999999972e+01 7.043260000000000076e+00 2.029389999999999805e+00 1.297770000000000046e+01 5.270990000000000286e+00 5.079679999999999751e+00 1.298775999999999975e+01 3.521450000000000191e+00 8.126640000000000086e+00 1.297386000000000017e+01 3.550200000000000022e-01 2.035600000000000076e+00 2.064012999999999920e+01 -1.418979999999999908e+00 5.085510000000000197e+00 2.065186999999999884e+01 -3.158160000000000078e+00 8.124520000000000408e+00 2.063605000000000089e+01 3.868559999999999999e+00 2.032939999999999969e+00 2.064863000000000071e+01 2.106799999999999784e+00 5.083029999999999937e+00 2.065335999999999927e+01 3.528700000000000170e-01 8.140560000000000684e+00 2.064748000000000161e+01 7.404679999999999929e+00 2.027979999999999894e+00 2.064077999999999946e+01 5.639190000000000147e+00 5.084290000000000198e+00 2.065296999999999983e+01 3.864970000000000017e+00 8.121800000000000352e+00 2.063757000000000019e+01 1.449999999999999900e-03 7.349999999999999763e-03 1.115968999999999944e+01 8.798400000000000887e+00 3.048680000000000057e+00 1.116712000000000060e+01 -3.519870000000000054e+00 6.102879999999999860e+00 1.117448000000000086e+01 3.526940000000000186e+00 1.152000000000000073e-02 1.117075999999999958e+01 1.761460000000000026e+00 3.054520000000000124e+00 1.116041000000000061e+01 -9.950000000000000511e-03 6.097249999999999837e+00 1.115789999999999971e+01 7.042089999999999961e+00 2.560000000000000209e-03 1.116164999999999985e+01 5.275269999999999904e+00 3.055489999999999817e+00 1.116980000000000040e+01 3.516890000000000072e+00 6.087880000000000180e+00 1.116934999999999967e+01 -4.923110000000000319e+00 9.138310000000000599e+00 1.883010000000000161e+01 -1.400810000000000111e+00 3.052830000000000155e+00 1.883001000000000147e+01 -3.172670000000000101e+00 6.092749999999999666e+00 1.882350999999999885e+01 3.869209999999999816e+00 3.969999999999999571e-03 1.882951999999999870e+01 2.125059999999999949e+00 3.059299999999999908e+00 1.882835999999999999e+01 3.483700000000000130e-01 6.091479999999999784e+00 1.882730000000000103e+01 7.400140000000000384e+00 1.680000000000000070e-03 1.883420999999999879e+01 5.650929999999999787e+00 3.042349999999999888e+00 1.883884000000000114e+01 3.858480000000000132e+00 6.102229999999999599e+00 1.882289000000000101e+01
-4.460000000000000422e-03 2.033339999999999925e+00 9.362069999999999226e+00 -1.752769999999999939e+00 5.076979999999999826e+00 9.368069999999999453e+00 -3.517599999999999838e+00 8.129250000000000753e+00 9.363899999999999224e+00 3.508890000000000065e+00 2.038809999999999789e+00 9.353120000000000545e+00 1.751260000000000039e+00 5.083540000000000170e+00 9.363379999999999370e+00 4.969999999999999592e-03 8.140629999999999811e+00 9.353699999999999903e+00 7.030990000000000073e+00 2.029329999999999856e+00 9.361060000000000159e+00 5.287259999999999849e+00 5.072739999999999583e+00 9.341509999999999536e+00 3.519010000000000193e+00 8.139469999999999317e+00 9.344409999999999883e+00 3.570099999999999940e-01 2.030949999999999811e+00 1.701607999999999876e+01 -1.406090000000000062e+00 5.073870000000000324e+00 1.701203999999999894e+01 -3.175320000000000142e+00 8.135439999999999117e+00 1.701248000000000005e+01 3.871249999999999858e+00 2.028939999999999966e+00 1.701555000000000106e+01 2.108439999999999870e+00 5.078289999999999971e+00 1.701002000000000081e+01 3.499200000000000088e-01 8.139559999999999462e+00 1.702522000000000091e+01 7.392769999999999619e+00 2.026520000000000099e+00 1.702515999999999963e+01 5.604960000000000164e+00 5.084389999999999965e+00 1.701236000000000104e+01 3.871890000000000054e+00 8.135460000000000136e+00 1.702423999999999893e+01 -5.000000000000000104e-03 2.027350000000000207e+00 1.299164000000000030e+01 -1.742620000000000058e+00 5.085869999999999891e+00 1.298132999999999981e+01 -3.520970000000000155e+00 8.107590000000000074e+00 1.299568000000000012e+01 3.518180000000000085e+00 2.012799999999999923e+00 1.298216999999999999e+01 1.772999999999999909e+00 5.072300000000000253e+00 1.299431000000000047e+01 8.400000000000000348e-04 8.114399999999999835e+00 1.298520000000000074e+01 7.044030000000000236e+00 2.028680000000000039e+00 1.297667999999999999e+01 5.268769999999999953e+00 5.079430000000000334e+00 1.298921999999999954e+01 3.521799999999999820e+00 8.126039999999999708e+00 1.297184999999999988e+01 3.558100000000000152e-01 2.036420000000000119e+00 2.063879000000000019e+01 -1.421699999999999964e+00 5.086710000000000065e+00 2.065343000000000018e+01 -3.155730000000000146e+00 8.123369999999999536e+00 2.063373999999999953e+01 3.867750000000000021e+00 2.033129999999999882e+00 2.064939999999999998e+01 2.105510000000000215e+00 5.083630000000000315e+00 2.065530000000000044e+01 3.530800000000000050e-01 8.143370000000000886e+00 2.064795000000000158e+01 7.407869999999999955e+00 2.026920000000000055e+00 2.063967999999999847e+01 5.640920000000000378e+00 5.085189999999999877e+00 2.065476999999999919e+01 3.863269999999999982e+00 8.119989999999999597e+00 2.063564999999999827e+01 1.830000000000000029e-03 9.079999999999999530e-03 1.115784999999999982e+01 8.798009999999999664e+00 3.048750000000000071e+00 1.116705999999999932e+01 -3.519880000000000120e+00 6.104250000000000398e+00 1.117613000000000056e+01 3.528579999999999828e+00 1.422000000000000000e-02 1.117151999999999923e+01 1.761749999999999927e+00 3.055940000000000101e+00 1.115878999999999976e+01 -1.222999999999999955e-02 6.097380000000000244e+00 1.115564000000000000e+01 7.042570000000000441e+00 3.119999999999999944e-03 1.116023999999999994e+01 5.274090000000000167e+00 3.057189999999999852e+00 1.117032000000000025e+01 3.516169999999999796e+00 6.085759999999999614e+00 1.116966000000000037e+01 -4.921920000000000073e+00 9.136649999999999494e+00 1.882959999999999923e+01 -1.399049999999999905e+00 3.053920000000000190e+00 1.882945000000000135e+01 -3.173799999999999955e+00 6.091770000000000351e+00 1.882131000000000043e+01 3.868520000000000181e+00 4.969999999999999592e-03 1.882884999999999920e+01 2.128229999999999844e+00 3.061949999999999950e+00 1.882742000000000004e+01 3.474599999999999911e-01 6.090209999999999901e+00 1.882614999999999839e+01 7.402099999999999902e+00 2.099999999999999870e-03 1.883465999999999951e+01 5.655429999999999957e+00 3.040919999999999845e+00 1.884043000000000134e+01 3.855170000000000208e+00 6.103460000000000107e+00 1.882069999999999865e+01
-5.340000000000000129e-03 2.033589999999999787e+00 9.363469999999999516e+00 -1.751430000000000042e+00 5.076260000000000439e+00 9.370639999999999858e+00 -3.517079999999999984e+00 8.129319999999999879e+00 9.365729999999999222e+00 3.506730000000000125e+00 2.040119999999999933e+00 9.352800000000000225e+00 1.749540000000000095e+00 5.084130000000000038e+00 9.365030000000000854e+00 5.919999999999999915e-03 8.142929999999999779e+00 9.353490000000000748e+00 7.029200000000000337e+00 2.028799999999999937e+00 9.362310000000000798e+00 5.288689999999999891e+00 5.071229999999999905e+00 9.338990000000000791e+00 3.518839999999999968e+00 8.141460000000000363e+00 9.342420000000000613e+00 3.580699999999999994e-01 2.030689999999999884e+00 1.701570999999999856e+01 -1.405720000000000081e+00 5.072540000000000049e+00 1.701079999999999970e+01 -3.176719999999999988e+00 8.136659999999999116e+00 1.701132000000000133e+01 3.871199999999999974e+00 2.028319999999999901e+00 1.701504999999999868e+01 2.107709999999999972e+00 5.077849999999999753e+00 1.700835999999999970e+01 3.495400000000000174e-01 8.141610000000000014e+00 1.702662000000000120e+01 7.392999999999999794e+00 2.025399999999999867e+00 1.702649999999999864e+01 5.599660000000000082e+00 5.085060000000000358e+00 1.701125000000000043e+01 3.871890000000000054e+00 8.136730000000000018e+00 1.702534999999999954e+01 -5.969999999999999613e-03 2.026400000000000201e+00 1.299349999999999916e+01 -1.739249999999999963e+00 5.086859999999999715e+00 1.298123000000000005e+01 -3.521180000000000199e+00 8.103450000000000486e+00 1.299834000000000067e+01 3.517780000000000129e+00 2.009040000000000159e+00 1.298225000000000051e+01 1.775470000000000104e+00 5.070660000000000167e+00 1.299668999999999919e+01 1.030000000000000100e-03 8.111520000000000508e+00 1.298582000000000036e+01 7.044780000000000264e+00 2.027989999999999959e+00 1.297565999999999953e+01 5.266560000000000130e+00 5.079189999999999650e+00 1.299066999999999972e+01 3.522139999999999826e+00 8.125439999999999330e+00 1.296983999999999959e+01 3.566099999999999826e-01 2.037230000000000096e+00 2.063744000000000156e+01 -1.424390000000000045e+00 5.087900000000000311e+00 2.065493999999999986e+01 -3.153329999999999966e+00 8.122210000000000818e+00 2.063144000000000133e+01 3.866969999999999796e+00 2.033319999999999794e+00 2.065015999999999963e+01 2.104210000000000136e+00 5.084240000000000315e+00 2.065719999999999956e+01 3.532799999999999829e-01 8.146150000000000446e+00 2.064838999999999913e+01 7.411080000000000112e+00 2.025879999999999903e+00 2.063861999999999952e+01 5.642619999999999969e+00 5.086079999999999934e+00 2.065651000000000082e+01 3.861610000000000209e+00 8.118199999999999861e+00 2.063376999999999839e+01 2.210000000000000159e-03 1.073999999999999955e-02 1.115611999999999959e+01 8.797639999999999461e+00 3.048810000000000020e+00 1.116704000000000008e+01 -3.519909999999999872e+00 6.105520000000000280e+00 1.117774999999999963e+01 3.530159999999999965e+00 1.680999999999999855e-02 1.117229000000000028e+01 1.762000000000000011e+00 3.057300000000000129e+00 1.115729999999999933e+01 -1.438000000000000042e-02 6.097540000000000404e+00 1.115349999999999930e+01 7.043029999999999902e+00 3.640000000000000006e-03 1.115888999999999953e+01 5.272910000000000430e+00 3.058840000000000003e+00 1.117084999999999972e+01 3.515489999999999782e+00 6.083719999999999573e+00 1.116990999999999978e+01 -4.920759999999999579e+00 9.135040000000000049e+00 1.882913999999999888e+01 -1.397319999999999895e+00 3.054990000000000094e+00 1.882890000000000086e+01 -3.174910000000000121e+00 6.090810000000000279e+00 1.881909999999999883e+01 3.867840000000000167e+00 5.960000000000000020e-03 1.882817999999999969e+01 2.131349999999999856e+00 3.064560000000000173e+00 1.882650999999999897e+01 3.465599999999999792e-01 6.088989999999999903e+00 1.882507000000000019e+01 7.404020000000000046e+00 2.510000000000000078e-03 1.883510000000000062e+01 5.659799999999999720e+00 3.039530000000000065e+00 1.884197999999999951e+01 3.851919999999999789e+00 6.104630000000000223e+00 1.881860999999999962e+01