-3.427267725199999973e+02
-3.427239690600000017e+02
-3.427159745199999747e+02
-3.427030121600000143e+02
-3.426854181100000005e+02
-3.426636300499999948e+02
-3.426381660200000283e+02
-3.426095974099999921e+02
-3.425785296500000072e+02
-3.425455783400000200e+02
-3.416303513999999950e+02
-3.416307484899999736e+02
-3.416265239900000097e+02
-3.416178487399999995e+02
-3.416050488399999949e+02
-3.415885874400000262e+02
-3.415690446199999997e+02
-3.415470935399999917e+02
-3.415234707999999841e+02
-3.414989492099999779e+02
-3.406415481399999976e+02
-3.406560428600000137e+02
-3.406766241299999933e+02
-3.407030452199999786e+02
-3.407350244599999769e+02
-3.407722385800000211e+02
-3.408143072600000210e+02
-3.408607896799999821e+02
-3.409111649499999999e+02
-3.409648438400000146e+02
-3.418523354299999824e+02
-3.418498402199999759e+02
-3.418459411599999953e+02
-3.418409047399999849e+02
-3.418351025499999878e+02
-3.418289995499999918e+02
-3.418231230399999845e+02
-3.418180340000000115e+02
-3.418142943799999784e+02
-3.418124358700000016e+02
-3.417014458300000115e+02
-3.417025759399999743e+02
-3.417030968400000006e+02
-3.417032168399999819e+02
-3.417032608000000096e+02
-3.417036460900000066e+02
-3.417048591899999792e+02
-3.417074084500000026e+02
-3.417117917799999987e+02
-3.417184649100000229e+02
-3.412684390399999756e+02
-3.412685184800000116e+02
-3.412700492000000168e+02
-3.412731279199999790e+02
-3.412778629499999852e+02
-3.412843724800000018e+02
-3.412927812500000186e+02
-3.413032208399999945e+02
-3.413158129500000086e+02
-3.413306808799999885e+02
-3.424109826900000257e+02
-3.424069605600000159e+02
-3.423986811500000158e+02
-3.423863310500000239e+02
-3.423701881999999728e+02
-3.423506208900000161e+02
-3.423280628699999966e+02
-3.423030050599999754e+02
-3.422759655599999746e+02
-3.422474823100000094e+02
-3.414321115800000257e+02
-3.414320546199999740e+02
-3.414294744300000275e+02
-3.414244912099999851e+02
-3.414173144600000001e+02
-3.414082297499999754e+02
-3.413975926300000197e+02
-3.413858162799999718e+02
-3.413733514799999966e+02
-3.413606848499999842e+02
-3.422051567500000147e+02
-3.421957967899999744e+02
-3.421825288599999908e+02
-3.421657011099999863e+02
-3.421457562300000177e+02
-3.421232039199999804e+02
-3.420986014000000068e+02
-3.420725421399999959e+02
-3.420456209800000238e+02
-3.420184253699999886e+02
-3.413756615099999863e+02
-3.413767063099999746e+02
-3.413792834399999947e+02
-3.413833875099999773e+02
-3.413890168199999948e+02
-3.413961858700000107e+02
-3.414049004199999899e+02
-3.414151750799999832e+02
-3.414270243199999868e+02
-3.414404571800000099e+02
-3.423270112399999903e+02
-3.423272462699999892e+02
-3.423233319000000279e+02
-3.423155006499999899e+02
-3.423040910299999950e+02
-3.422895320800000150e+02
-3.422723252299999785e+02
-3.422530261300000234e+02
-3.422322265099999754e+02
-3.422105239200000142e+02
-3.412183943499999828e+02
-3.412213779400000249e+02
-3.412279907800000274e+02
-3.412381293500000083e+02
-3.412516868999999815e+02
-3.412685460299999818e+02
-3.412885741000000053e+02
-3.413116019199999869e+02
-3.413374256399999922e+02
-3.413657925900000123e+02
-3.415487175100000172e+02
-3.415465195500000277e+02
-3.415428082299999915e+02
-3.415376929899999823e+02
-3.415313429199999860e+02
-3.415239649000000099e+02
-3.415158114700000169e+02
-3.415071693099999948e+02
-3.414983436900000129e+02
-3.414896559300000263e+02
-3.419580379600000128e+02
-3.419563964399999918e+02
-3.419516984399999728e+02
-3.419441151300000001e+02
-3.419339362299999721e+02
-3.419215605800000048e+02
-3.419074676700000168e+02
-3.418922049999999899e+02
-3.418763562400000069e+02
-3.418605238700000086e+02
-3.416551929999999970e+02
-3.416609279599999809e+02
-3.416646821499999760e+02
-3.416665164099999856e+02
-3.416665679299999852e+02
-3.416650458299999968e+02
-3.416622183100000143e+02
-3.416584027600000013e+02
-3.416539547400000174e+02
-3.416492505800000004e+02
-3.422932543399999759e+02
-3.422908188900000255e+02
-3.422859866900000156e+02
-3.422788693200000125e+02
-3.422696428300000093e+02
-3.422585366100000215e+02
-3.422458259200000157e+02
-3.422318312799999944e+02
-3.422168990000000122e+02
-3.422013983599999847e+02
-3.415241859999999861e+02
-3.415256931900000268e+02
-3.415246669200000156e+02
-3.415211657099999911e+02
-3.415153402700000242e+02
-3.415074269300000083e+02
-3.414977201199999968e+02
-3.414865773000000218e+02
-3.414743856200000209e+02
-3.414615479600000185e+02
-3.419601154599999973e+02
-3.419595479800000248e+02
-3.419546663500000250e+02
-3.419456657200000222e+02
-3.419328925699999786e+02
-3.419168275499999936e+02
-3.418980724200000054e+02
-3.418773196000000212e+02
-3.418553286299999741e+02
-3.418329013300000270e+02
-3.416485457599999904e+02
-3.416486074100000110e+02
-3.416464332300000137e+02
-3.416420980199999917e+02
-3.416357718599999771e+02
-3.416277177299999721e+02
-3.416182705800000008e+02
-3.416078245499999753e+02
-3.415968022100000212e+02
-3.415856408500000043e+02
-3.418345977000000175e+02
-3.418340101499999832e+02
-3.418301396499999782e+02
-3.418231722900000022e+02
-3.418134125600000175e+02
-3.418012657500000273e+02
-3.417872289300000261e+02
-3.417718631600000094e+02
-3.417557757999999808e+02
-3.417395997099999931e+02
-3.416093208699999764e+02
-3.416112256100000195e+02
-3.416135865399999716e+02
-3.416164527600000156e+02
-3.416199202199999831e+02
-3.416241278100000045e+02
-3.416292480299999852e+02
-3.416354842700000063e+02
-3.416430626800000141e+02
-3.416522157900000138e+02
-3.418096663399999784e+02
-3.418175345399999969e+02
-3.418213390500000060e+02
-3.418209833999999887e+02
-3.418164910699999837e+02
-3.418079999000000271e+02
-3.417957559800000240e+02
-3.417801013100000205e+02
-3.417614612300000090e+02
-3.417403129499999750e+02
-3.417677677600000266e+02
-3.417753230499999972e+02
-3.417825554899999929e+02
-3.417895426200000202e+02
-3.417964268200000220e+02
-3.418034017699999936e+02
-3.418107061900000190e+02
-3.418186073699999952e+02
-3.418273789899999997e+02
-3.418372763699999837e+02
-3.419121211600000265e+02
-3.419098889699999972e+02
-3.419038446000000135e+02
-3.418941450600000280e+02
-3.418810464100000104e+02
-3.418648973300000193e+02
-3.418461212299999943e+02
-3.418251938999999879e+02
-3.418026279499999873e+02
-3.417789546600000108e+02
-3.423445486100000039e+02
-3.423441820900000039e+02
-3.423398003600000266e+02
-3.423315619300000208e+02
-3.423197478499999988e+02
-3.423047397500000102e+02
-3.422869900800000096e+02
-3.422670060099999887e+02
-3.422453295600000160e+02
-3.422225023799999803e+02
-3.420924771599999872e+02
-3.420881107299999826e+02
-3.420801928600000110e+02
-3.420689618000000110e+02
-3.420547632399999998e+02
-3.420380304500000079e+02
-3.420192636300000117e+02
-3.419990197500000022e+02
-3.419778923000000077e+02
-3.419564855899999998e+02
-3.412716153000000077e+02
-3.412707079799999974e+02
-3.412697743300000184e+02
-3.412690385700000206e+02
-3.412687989400000106e+02
-3.412694029900000032e+02
-3.412712281099999814e+02
-3.412746506799999793e+02
-3.412800158399999759e+02
-3.412876128899999912e+02
-3.420387537799999791e+02
-3.420386836399999879e+02
-3.420359250199999792e+02
-3.420305946400000039e+02
-3.420229021499999931e+02
-3.420131402700000081e+02
-3.420016709799999717e+02
-3.419888995900000168e+02
-3.419752583100000152e+02
-3.419611874400000033e+02
-3.416436237400000095e+02
-3.416473711300000105e+02
-3.416500947200000269e+02
-3.416517960499999731e+02
-3.416525337499999750e+02
-3.416524295699999811e+02
-3.416516504100000020e+02
-3.416504025099999922e+02
-3.416489151700000093e+02
-3.416474182399999791e+02
-3.416543929000000048e+02
-3.416513057099999742e+02
-3.416444008099999792e+02
-3.416338566900000160e+02
-3.416199513899999829e+02
-3.416030547099999808e+02
-3.415836126799999874e+02
-3.415621221499999933e+02
-3.415391142099999797e+02
-3.415151364800000238e+02
-3.423935632299999838e+02
-3.423909311799999955e+02
-3.423837754499999733e+02
-3.423722999299999969e+02
-3.423568386200000191e+02
-3.423378254300000094e+02
-3.423157888800000137e+02
-3.422913183200000162e+02
-3.422650442600000247e+02
-3.422376184500000136e+02
-3.417368284400000107e+02
-3.417403756400000248e+02
-3.417426912299999913e+02
-3.417437609899999984e+02
-3.417436258199999770e+02
-3.417423759100000211e+02
-3.417401484100000175e+02
-3.417371175900000253e+02
-3.417334954500000208e+02
-3.417295267800000147e+02
-3.418099660099999824e+02
-3.418108191599999941e+02
-3.418079392199999802e+02
-3.418015864800000259e+02
-3.417921862100000112e+02
-3.417802937299999826e+02
-3.417665743900000166e+02
-3.417517581000000177e+02
-3.417366101299999741e+02
-3.417218888799999945e+02
-3.417874259999999822e+02
-3.417836489499999857e+02
-3.417771665500000040e+02
-3.417681731700000114e+02
-3.417569487200000253e+02
-3.417438457000000085e+02
-3.417292758799999888e+02
-3.417136932999999885e+02
-3.416975784399999725e+02
-3.416814170299999773e+02
-3.415177553199999920e+02
-3.415110331000000201e+02
-3.415050698800000077e+02
-3.415001896100000067e+02
-3.414967715899999803e+02
-3.414952306199999725e+02
-3.414959843699999738e+02
-3.414994303799999784e+02
-3.415059134900000117e+02
-3.415157037299999843e+02
-3.422875444100000095e+02
-3.422903103699999861e+02
-3.422886797599999795e+02
-3.422826944000000253e+02
-3.422725202299999978e+02
-3.422584253900000135e+02
-3.422407661699999721e+02
-3.422199792499999944e+02
-3.421965507900000034e+02
-3.421710070299999984e+02
-3.416917209999999727e+02
-3.416876836700000126e+02
-3.416810874399999989e+02
-3.416721239199999900e+02
-3.416610647900000117e+02
-3.416482613100000094e+02
-3.416341286800000034e+02
-3.416191355400000020e+02
-3.416037822200000278e+02
-3.415885890499999960e+02
-3.419380707500000085e+02
-3.419477051499999902e+02
-3.419550165499999821e+02
-3.419599884900000006e+02
-3.419627014100000224e+02
-3.419633215999999720e+02
-3.419620906800000171e+02
-3.419593145299999719e+02
-3.419553369700000189e+02
-3.419505275600000118e+02
-3.418263141499999733e+02
-3.418331874400000174e+02
-3.418389558399999828e+02
-3.418435176200000001e+02
-3.418468368200000214e+02
-3.418489392899999757e+02
-3.418499120299999845e+02
-3.418498960300000249e+02
-3.418490676299999791e+02
-3.418476322299999879e+02
-3.420256154499999752e+02
-3.420237746099999754e+02
-3.420209146999999916e+02
-3.420172602000000097e+02
-3.420131085500000268e+02
-3.420088295400000220e+02
-3.420048320099999728e+02
-3.420015394800000195e+02
-3.419993667900000105e+02
-3.419986924199999976e+02
-3.419353032299999882e+02
-3.419343323400000259e+02
-3.419301180900000077e+02
-3.419228695099999982e+02
-3.419128729299999918e+02
-3.419004790000000185e+02
-3.418860894300000268e+02
-3.418701391100000251e+02
-3.418530776999999716e+02
-3.418353574899999785e+02
-3.414663575600000058e+02
-3.414647454999999923e+02
-3.414620612800000004e+02
-3.414584161600000130e+02
-3.414539646700000048e+02
-3.414488916999999901e+02
-3.414434117000000128e+02
-3.414377557400000001e+02
-3.414321618899999748e+02
-3.414268703600000094e+02
-3.413919192600000088e+02
-3.413912338700000078e+02
-3.413882912199999851e+02
-3.413832128000000239e+02
-3.413761665100000187e+02
-3.413673668999999791e+02
-3.413570695600000136e+02
-3.413455673500000103e+02
-3.413331820299999890e+02
-3.413202483300000267e+02
-3.420274722999999994e+02
-3.420254286200000138e+02
-3.420185010600000055e+02
-3.420068872300000180e+02
-3.419909074799999757e+02
-3.419709788800000183e+02
-3.419476050800000166e+02
-3.419213528299999894e+02
-3.418928323000000091e+02
-3.418626743400000123e+02
-3.423284987299999784e+02
-3.423272513599999911e+02
-3.423210599000000229e+02
-3.423102089999999862e+02
-3.422951279700000100e+02
-3.422763679600000160e+02
-3.422545713200000250e+02
-3.422304402500000151e+02
-3.422047047300000031e+02
-3.421780895499999815e+02
-3.421010481800000207e+02
-3.421005546200000254e+02
-3.420964084299999968e+02
-3.420888092299999812e+02
-3.420780835099999990e+02
-3.420646653300000253e+02
-3.420490858399999752e+02
-3.420319384700000001e+02
-3.420138609399999723e+02
-3.419955066800000054e+02
-3.417549482699999999e+02
-3.417638549399999874e+02
-3.417718444800000270e+02
-3.417789667000000122e+02
-3.417853948900000205e+02
-3.417914140699999734e+02
-3.417973875399999883e+02
-3.418037276900000165e+02
-3.418108503299999938e+02
-3.418191551300000128e+02
-3.415933039700000222e+02
-3.415909985499999948e+02
-3.415867476000000238e+02
-3.415808142399999952e+02
-3.415735442999999805e+02
-3.415653374400000075e+02
-3.415566432699999950e+02
-3.415479285999999775e+02
-3.415396716500000025e+02
-3.415323345400000221e+02
-3.413752350699999738e+02
-3.413736168199999952e+02
-3.413716797499999984e+02
-3.413695294699999749e+02
-3.413672974199999999e+02
-3.413651476499999831e+02
-3.413632627000000070e+02
-3.413618300800000043e+02
-3.413610307100000227e+02
-3.413610279700000092e+02
-3.421260129199999938e+02
-3.421282701100000168e+02
-3.421274136299999782e+02
-3.421235877199999891e+02
-3.421170487499999808e+02
-3.421081456800000069e+02
-3.420973022700000001e+02
-3.420849909199999956e+02
-3.420717119400000001e+02
-3.420579608400000211e+02
