5.490000000000000088e-04 1.029999999999999964e-04 -9.259999999999999568e-04 5.469999999999999602e-04 1.029999999999999964e-04 -9.269999999999999811e-04 5.490000000000000088e-04 1.029999999999999964e-04 -9.269999999999999811e-04 5.479999999999999845e-04 1.029999999999999964e-04 -9.380000000000000317e-04 5.490000000000000088e-04 1.039999999999999936e-04 -9.340000000000000429e-04 5.519999999999999733e-04 1.039999999999999936e-04 -9.319999999999999942e-04 5.559999999999999621e-04 1.060000000000000016e-04 -9.229999999999999923e-04 5.559999999999999621e-04 1.079999999999999960e-04 -9.250000000000000409e-04 5.519999999999999733e-04 1.079999999999999960e-04 -9.190000000000000035e-04 2.032799999999999885e-02 -2.169999999999999891e-04 -5.509999999999999490e-04 2.032399999999999832e-02 -2.139999999999999975e-04 -5.569999999999999864e-04 2.032600000000000032e-02 -2.069999999999999900e-04 -5.540000000000000219e-04 2.032499999999999932e-02 -2.169999999999999891e-04 -5.460000000000000443e-04 2.032799999999999885e-02 -2.159999999999999919e-04 -5.599999999999999509e-04 2.032300000000000079e-02 -2.079999999999999872e-04 -5.550000000000000462e-04 2.032399999999999832e-02 -2.149999999999999947e-04 -5.500000000000000331e-04 2.032499999999999932e-02 -2.139999999999999975e-04 -5.550000000000000462e-04 2.032799999999999885e-02 -2.100000000000000087e-04 -5.580000000000000107e-04 -2.034100000000000144e-02 -1.800000000000000113e-04 5.450000000000000200e-04 -2.034199999999999897e-02 -1.789999999999999870e-04 5.450000000000000200e-04 -2.033899999999999944e-02 -1.840000000000000001e-04 5.460000000000000443e-04 -2.033799999999999844e-02 -1.800000000000000113e-04 5.569999999999999864e-04 -2.033899999999999944e-02 -1.769999999999999926e-04 5.550000000000000462e-04 -2.033499999999999891e-02 -1.800000000000000113e-04 5.519999999999999733e-04 -2.033000000000000085e-02 -1.759999999999999954e-04 5.429999999999999714e-04 -2.032899999999999985e-02 -1.730000000000000038e-04 5.450000000000000200e-04 -2.033499999999999891e-02 -1.759999999999999954e-04 5.389999999999999826e-04 -5.619999999999999996e-04 6.200000000000000270e-05 8.899999999999999491e-04 -5.640000000000000482e-04 6.899999999999999667e-05 8.940000000000000464e-04 -5.630000000000000239e-04 7.100000000000000462e-05 8.909999999999999734e-04 -5.630000000000000239e-04 6.399999999999999710e-05 8.809999999999999472e-04 -5.609999999999999752e-04 6.700000000000000226e-05 8.970000000000000109e-04 -5.640000000000000482e-04 7.100000000000000462e-05 8.919999999999999978e-04 -5.630000000000000239e-04 6.600000000000000506e-05 8.859999999999999603e-04 -5.619999999999999996e-04 6.799999999999999946e-05 8.940000000000000464e-04 -5.590000000000000351e-04 7.100000000000000462e-05 8.959999999999999866e-04 -6.027000000000000239e-03 9.200000000000000007e-05 -1.010000000000000020e-04 -6.021999999999999575e-03 9.000000000000000567e-05 -1.000000000000000048e-04 -6.020000000000000177e-03 9.200000000000000007e-05 -9.799999999999999684e-05 -6.021000000000000310e-03 8.700000000000000051e-05 -1.029999999999999964e-04 -6.028000000000000372e-03 8.899999999999999491e-05 -1.039999999999999936e-04 -6.021000000000000310e-03 9.399999999999999448e-05 -1.010000000000000020e-04 -6.001000000000000258e-03 9.699999999999999963e-05 -1.010000000000000020e-04 -6.001000000000000258e-03 1.010000000000000020e-04 -1.029999999999999964e-04 -6.007000000000000187e-03 1.100000000000000039e-04 -1.029999999999999964e-04 6.007000000000000187e-03 1.100000000000000039e-04 1.019999999999999992e-04 5.997999999999999859e-03 9.500000000000000523e-05 1.019999999999999992e-04 6.000000000000000125e-03 1.050000000000000044e-04 1.019999999999999992e-04 6.000000000000000125e-03 1.160000000000000007e-04 1.010000000000000020e-04 6.009999999999999717e-03 8.799999999999999771e-05 1.000000000000000048e-04 5.998999999999999992e-03 1.069999999999999988e-04 1.039999999999999936e-04 6.001000000000000258e-03 1.169999999999999979e-04 1.019999999999999992e-04 6.000000000000000125e-03 9.500000000000000523e-05 1.019999999999999992e-04 6.009999999999999717e-03 1.019999999999999992e-04 1.029999999999999964e-04
5.021000000000000289e-03 1.166200000000000049e-02 -3.078600000000000086e-02 -3.361499999999999905e-02 5.669999999999999693e-03 -3.893400000000000333e-02 1.135300000000000024e-02 8.940999999999999295e-03 -1.016199999999999916e-02 2.071100000000000024e-02 1.562000000000000020e-03 -7.503000000000000121e-03 1.030599999999999919e-02 4.949000000000000274e-03 -3.476499999999999729e-02 -1.351800000000000050e-02 -5.964999999999999816e-03 -8.692000000000000073e-03 5.772000000000000221e-03 1.931300000000000031e-02 -1.638399999999999926e-02 -6.700000000000000226e-03 2.366100000000000148e-02 3.081499999999999864e-02 7.640000000000000090e-03 -2.966799999999999993e-02 1.726899999999999963e-02 3.015400000000000025e-02 3.242000000000000090e-03 1.174500000000000023e-02 9.556000000000000258e-03 1.012599999999999958e-02 -5.998999999999999992e-03 3.627500000000000169e-02 -1.772699999999999970e-02 -4.742999999999999820e-03 4.798499999999999988e-02 1.703500000000000153e-02 8.042999999999999802e-03 1.238500000000000018e-02 1.100699999999999942e-02 -8.181000000000000771e-03 2.647899999999999907e-02 -1.674099999999999894e-02 -7.245999999999999837e-03 3.856699999999999712e-02 1.080599999999999963e-02 -2.282599999999999907e-02 5.240299999999999819e-02 -2.167300000000000129e-02 1.568599999999999856e-02 1.986800000000000024e-02 -7.500000000000000156e-04 -3.319899999999999934e-02 -3.612000000000000193e-03 1.208399999999999926e-02 -3.161800000000000027e-02 -4.952100000000000252e-02 -1.313500000000000084e-02 2.697000000000000178e-03 -1.936399999999999927e-02 5.483299999999999980e-02 -3.397200000000000220e-02 -2.273000000000000020e-02 4.363700000000000218e-02 4.069999999999999833e-03 -5.829499999999999960e-02 1.219800000000000051e-02 -3.716799999999999965e-02 -9.627999999999999406e-03 2.219099999999999892e-02 -1.839800000000000116e-02 -3.446500000000000258e-02 7.919000000000000691e-03 7.552999999999999818e-03 -1.348000000000000023e-03 1.484000000000000076e-03 -8.018000000000000821e-03 -1.950599999999999903e-02 3.719000000000000083e-03 -2.080999999999999951e-03 1.342299999999999917e-02 -6.017999999999999912e-03 -7.101999999999999806e-03 1.600899999999999893e-02 -4.524000000000000243e-03 -2.663400000000000142e-02 -1.840299999999999922e-02 -2.093999999999999941e-03 1.465200000000000009e-02 2.253499999999999948e-02 8.026999999999999413e-03 -1.183500000000000003e-02 2.993000000000000001e-03 5.041999999999999607e-03 -2.326100000000000043e-02 -4.615000000000000178e-03 -2.608399999999999955e-02 -2.138200000000000170e-02 6.106999999999999582e-03 8.082000000000000642e-03 2.912999999999999964e-02 -2.921599999999999892e-02 -1.758999999999999930e-03 -4.231399999999999745e-02 2.552000000000000102e-02 9.709000000000000616e-03 2.443999999999999992e-02 6.030000000000000204e-04 -3.633700000000000124e-02 5.712799999999999823e-02 1.177000000000000095e-03 -1.226000000000000093e-03 2.691199999999999842e-02 -1.806500000000000120e-02 -5.097399999999999848e-02 -1.597600000000000062e-02 -3.797799999999999787e-02 -6.085700000000000137e-02 1.074000000000000085e-03 -2.858600000000000030e-02 -3.564200000000000007e-02 7.094300000000000606e-02 6.769799999999999429e-02 8.918000000000000579e-03 6.553299999999999403e-02 -1.810000000000000150e-02 -2.434800000000000159e-02 3.570399999999999963e-02 -3.262999999999999842e-03 -2.637600000000000014e-02 4.829999999999999767e-04 1.555300000000000085e-02 4.092599999999999710e-02 -3.480799999999999866e-02 -7.990000000000000574e-03 2.526000000000000120e-02 1.777400000000000160e-02 -1.016199999999999916e-02 -7.399000000000000195e-03 5.826999999999999715e-03 1.652400000000000049e-02 1.234200000000000054e-02 1.252000000000000075e-03 8.633000000000000049e-03 -1.103999999999999947e-03 7.254000000000000031e-03 -2.796799999999999981e-02 -2.412299999999999861e-02 1.697500000000000051e-02 6.096999999999999989e-03 2.394200000000000148e-02 3.781600000000000239e-02 -2.000700000000000048e-02 -4.699999999999999859e-04 -6.849000000000000053e-03 -7.396500000000000297e-02 2.639400000000000079e-02 -1.765800000000000008e-02 3.283500000000000307e-02 -4.015300000000000119e-02 5.722599999999999909e-02
9.492000000000000437e-03 2.323000000000000065e-02 -6.062000000000000027e-02 -6.812000000000000000e-02 1.104100000000000047e-02 -7.741000000000000658e-02 2.198800000000000060e-02 1.761899999999999925e-02 -1.940599999999999964e-02 4.083400000000000224e-02 2.890999999999999907e-03 -1.410400000000000022e-02 2.010199999999999834e-02 9.792999999999999622e-03 -6.866800000000000681e-02 -2.754399999999999904e-02 -1.216700000000000073e-02 -1.651899999999999896e-02 1.092899999999999948e-02 3.858000000000000318e-02 -3.180600000000000094e-02 -1.393900000000000000e-02 4.674500000000000183e-02 6.199699999999999656e-02 1.472900000000000077e-02 -5.869499999999999718e-02 3.496500000000000302e-02 3.982499999999999929e-02 6.741999999999999729e-03 2.388699999999999851e-02 -1.165999999999999936e-03 2.042700000000000071e-02 -1.141499999999999980e-02 5.218600000000000322e-02 -3.515200000000000269e-02 -9.010999999999999913e-03 7.506999999999999784e-02 3.399200000000000138e-02 1.615099999999999869e-02 4.374000000000000284e-03 2.223999999999999935e-02 -1.574300000000000005e-02 3.260199999999999904e-02 -3.326199999999999990e-02 -1.399399999999999950e-02 5.673399999999999971e-02 2.188400000000000067e-02 -4.521499999999999825e-02 8.444599999999999329e-02 -4.277100000000000346e-02 3.156400000000000178e-02 1.946499999999999966e-02 -1.343000000000000010e-03 -6.583300000000000263e-02 1.267099999999999997e-02 2.394599999999999854e-02 -6.297899999999999332e-02 -7.852699999999999958e-02 -2.603700000000000112e-02 5.160999999999999789e-03 -1.839800000000000116e-02 1.091590000000000060e-01 -6.693300000000000638e-02 -2.492899999999999977e-02 8.770000000000000018e-02 8.489000000000000018e-03 -9.494800000000000462e-02 2.406000000000000152e-02 -7.357500000000000151e-02 8.679999999999999565e-04 4.439499999999999696e-02 -3.680499999999999744e-02 -4.857299999999999812e-02 1.593200000000000172e-02 1.468999999999999993e-02 1.743400000000000158e-02 3.033999999999999805e-03 -1.637800000000000020e-02 -1.859699999999999895e-02 7.550000000000000287e-03 -4.527999999999999907e-03 2.733899999999999872e-02 -1.198500000000000086e-02 -1.481999999999999984e-02 3.238800000000000012e-02 -9.164000000000000271e-03 -5.388699999999999740e-02 -3.617399999999999782e-02 -4.372000000000000018e-03 2.844000000000000000e-02 4.533800000000000330e-02 1.584899999999999851e-02 -2.429699999999999915e-02 6.485000000000000313e-03 9.879000000000000628e-03 -4.713900000000000035e-02 -8.654000000000000234e-03 -5.170700000000000296e-02 -4.305599999999999705e-02 1.286600000000000070e-02 1.614099999999999910e-02 5.740300000000000263e-02 -5.697599999999999887e-02 -3.869000000000000043e-03 -8.436100000000000543e-02 5.160499999999999809e-02 1.915299999999999989e-02 4.828299999999999953e-02 6.719000000000000146e-03 -7.230399999999999328e-02 1.134550000000000003e-01 8.257999999999999716e-03 -2.650000000000000012e-03 5.373700000000000004e-02 -2.985799999999999912e-02 -1.015940000000000037e-01 -3.187399999999999956e-02 -6.921199999999999575e-02 -1.214179999999999982e-01 1.142999999999999919e-03 -5.089699999999999780e-02 -7.095500000000000418e-02 1.409870000000000012e-01 1.403250000000000053e-01 1.856299999999999964e-02 1.300499999999999989e-01 -2.980299999999999963e-02 -4.857700000000000212e-02 7.112499999999999378e-02 -5.450000000000000200e-04 -5.254899999999999849e-02 9.610000000000000486e-04 3.677400000000000113e-02 8.100699999999999568e-02 -6.857599999999999807e-02 -2.198500000000000107e-02 5.004100000000000215e-02 3.531600000000000017e-02 -2.620099999999999860e-02 -1.493300000000000009e-02 1.146699999999999976e-02 2.698400000000000104e-02 2.443800000000000139e-02 2.452999999999999885e-03 1.127099999999999977e-02 -2.105999999999999799e-03 1.430500000000000001e-02 -6.141800000000000037e-02 -4.812899999999999817e-02 3.373299999999999910e-02 6.272999999999999930e-03 4.727200000000000152e-02 7.468099999999999739e-02 -4.595099999999999879e-02 -9.920000000000000432e-04 -1.385499999999999926e-02 -1.530870000000000009e-01 5.234199999999999964e-02 -3.496900000000000008e-02 5.869699999999999918e-02 -7.938499999999999723e-02 1.130059999999999953e-01
1.391500000000000029e-02 3.474300000000000305e-02 -9.016299999999999315e-02 -1.026910000000000045e-01 1.620200000000000112e-02 -1.160640000000000005e-01 3.238100000000000006e-02 2.599399999999999974e-02 -2.866600000000000051e-02 6.078100000000000169e-02 3.964999999999999775e-03 -2.053800000000000070e-02 2.998400000000000024e-02 1.449899999999999974e-02 -1.024270000000000042e-01 -4.149100000000000010e-02 -1.857800000000000076e-02 -2.425300000000000025e-02 1.616199999999999928e-02 5.777299999999999797e-02 -4.705000000000000154e-02 -2.119899999999999909e-02 6.927899999999999336e-02 9.253699999999999426e-02 2.177499999999999922e-02 -8.684999999999999665e-02 5.214799999999999991e-02 4.927200000000000329e-02 1.023800000000000057e-02 3.583200000000000274e-02 -1.174599999999999950e-02 3.071400000000000172e-02 -1.671500000000000069e-02 6.794799999999999451e-02 -5.237200000000000188e-02 -1.327300000000000008e-02 1.013850000000000029e-01 5.061899999999999733e-02 2.373799999999999868e-02 -3.690000000000000138e-03 3.345000000000000057e-02 -2.300900000000000167e-02 3.870699999999999835e-02 -4.975600000000000162e-02 -2.076700000000000074e-02 7.465199999999999614e-02 3.298399999999999943e-02 -6.756600000000000106e-02 1.164430000000000048e-01 -6.341299999999999715e-02 4.700200000000000211e-02 1.911600000000000105e-02 -2.041999999999999978e-03 -9.814399999999999513e-02 2.839500000000000010e-02 3.539599999999999691e-02 -9.335000000000000242e-02 -1.073179999999999967e-01 -3.889100000000000196e-02 7.870999999999999525e-03 -1.737500000000000155e-02 1.625129999999999908e-01 -9.828000000000000624e-02 -2.693699999999999914e-02 1.317810000000000092e-01 1.378599999999999964e-02 -1.300959999999999894e-01 3.544200000000000128e-02 -1.086109999999999992e-01 1.108199999999999984e-02 6.646900000000000031e-02 -5.454099999999999920e-02 -6.258400000000000074e-02 2.382199999999999943e-02 2.194799999999999876e-02 3.596200000000000091e-02 4.481999999999999873e-03 -2.459799999999999834e-02 -1.768300000000000080e-02 1.125499999999999938e-02 -6.611999999999999822e-03 4.108799999999999952e-02 -1.787400000000000100e-02 -2.211400000000000171e-02 4.859399999999999831e-02 -1.385800000000000053e-02 -8.074699999999999933e-02 -5.392899999999999777e-02 -6.664999999999999918e-03 4.228500000000000314e-02 6.774700000000000166e-02 2.350999999999999965e-02 -3.638999999999999874e-02 9.868999999999999301e-03 1.450800000000000006e-02 -7.061399999999999622e-02 -1.263300000000000013e-02 -7.672099999999999753e-02 -6.400699999999999446e-02 1.946900000000000019e-02 2.423399999999999860e-02 8.554000000000000492e-02 -8.374900000000000400e-02 -6.320000000000000097e-03 -1.250410000000000132e-01 7.760799999999999643e-02 2.848900000000000043e-02 7.232500000000000040e-02 1.225500000000000027e-02 -1.075569999999999998e-01 1.684199999999999864e-01 1.520099999999999923e-02 -4.187999999999999882e-03 8.005800000000000416e-02 -4.124599999999999794e-02 -1.514389999999999903e-01 -4.772699999999999859e-02 -9.950399999999999523e-02 -1.812729999999999897e-01 4.300000000000000165e-05 -7.279399999999999760e-02 -1.055989999999999984e-01 2.093909999999999938e-01 2.113430000000000031e-01 2.888500000000000095e-02 1.929389999999999994e-01 -4.105999999999999928e-02 -7.236499999999999877e-02 1.058479999999999976e-01 2.145000000000000205e-03 -7.830900000000000361e-02 1.299000000000000024e-03 5.752299999999999774e-02 1.200429999999999969e-01 -1.011709999999999970e-01 -3.594399999999999679e-02 7.432300000000000018e-02 5.254099999999999743e-02 -4.204999999999999710e-02 -2.251600000000000129e-02 1.694999999999999979e-02 3.730399999999999688e-02 3.634300000000000030e-02 3.713999999999999854e-03 1.393699999999999974e-02 -2.910999999999999959e-03 2.118199999999999944e-02 -9.426900000000000557e-02 -7.186399999999999733e-02 5.021500000000000269e-02 6.594000000000000035e-03 7.000800000000000078e-02 1.103319999999999995e-01 -7.169100000000000472e-02 -1.484999999999999992e-03 -2.091000000000000150e-02 -2.308630000000000126e-01 7.774000000000000354e-02 -5.176800000000000151e-02 8.352199999999999902e-02 -1.172600000000000031e-01 1.669730000000000103e-01
1.829000000000000070e-02 4.606500000000000178e-02 -1.191239999999999938e-01 -1.370260000000000089e-01 2.118499999999999897e-02 -1.545590000000000019e-01 4.241500000000000131e-02 3.393700000000000189e-02 -3.788799999999999807e-02 8.040400000000000325e-02 4.729999999999999830e-03 -2.661200000000000024e-02 3.994700000000000334e-02 1.893399999999999944e-02 -1.357460000000000055e-01 -5.528999999999999887e-02 -2.525700000000000167e-02 -3.179900000000000088e-02 2.149399999999999922e-02 7.673699999999999966e-02 -6.196200000000000319e-02 -2.848399999999999890e-02 9.114099999999999979e-02 1.223059999999999981e-01 2.876099999999999837e-02 -1.139789999999999970e-01 6.879399999999999404e-02 5.841299999999999965e-02 1.372400000000000009e-02 4.752399999999999680e-02 -2.211099999999999871e-02 4.097200000000000147e-02 -2.180400000000000046e-02 8.350200000000000677e-02 -6.929200000000000637e-02 -1.745700000000000029e-02 1.267610000000000126e-01 6.685599999999999876e-02 3.075999999999999915e-02 -1.176299999999999915e-02 4.462499999999999800e-02 -2.977300000000000085e-02 4.475099999999999911e-02 -6.619500000000000384e-02 -2.754500000000000004e-02 9.216699999999999893e-02 4.412300000000000250e-02 -8.972499999999999920e-02 1.482890000000000041e-01 -8.348600000000000465e-02 6.197199999999999931e-02 1.881700000000000039e-02 -2.975999999999999913e-03 -1.298420000000000130e-01 4.347700000000000176e-02 4.637199999999999656e-02 -1.224719999999999975e-01 -1.357839999999999880e-01 -5.162400000000000322e-02 1.085500000000000007e-02 -1.629299999999999846e-02 2.145730000000000137e-01 -1.278839999999999977e-01 -2.873799999999999966e-02 1.756270000000000053e-01 1.993500000000000133e-02 -1.635310000000000097e-01 4.637000000000000149e-02 -1.421669999999999878e-01 2.094400000000000081e-02 8.838100000000000123e-02 -7.141400000000000525e-02 -7.646500000000000519e-02 3.153500000000000053e-02 2.936400000000000121e-02 5.413599999999999662e-02 5.808999999999999928e-03 -3.267799999999999871e-02 -1.677800000000000125e-02 1.478499999999999953e-02 -8.203000000000000222e-03 5.456300000000000039e-02 -2.365099999999999841e-02 -2.883799999999999905e-02 6.456399999999999639e-02 -1.860900000000000054e-02 -1.071259999999999990e-01 -7.163200000000000123e-02 -8.937999999999999765e-03 5.616499999999999965e-02 8.964199999999999946e-02 3.096099999999999894e-02 -4.800499999999999906e-02 1.312100000000000072e-02 1.887499999999999942e-02 -9.353300000000000503e-02 -1.654399999999999968e-02 -1.010360000000000008e-01 -8.411599999999999633e-02 2.572699999999999987e-02 3.238300000000000206e-02 1.133409999999999973e-01 -1.094490000000000046e-01 -9.096999999999999184e-03 -1.642000000000000126e-01 1.034049999999999969e-01 3.770500000000000240e-02 9.647799999999999432e-02 1.717399999999999829e-02 -1.418280000000000096e-01 2.214830000000000132e-01 2.198299999999999907e-02 -5.858000000000000360e-03 1.055549999999999961e-01 -5.210999999999999660e-02 -2.001159999999999883e-01 -6.345099999999999352e-02 -1.286309999999999953e-01 -2.400069999999999981e-01 -2.227999999999999946e-03 -9.409099999999999409e-02 -1.392950000000000021e-01 2.754719999999999946e-01 2.802129999999999899e-01 3.972599999999999743e-02 2.536010000000000209e-01 -5.180900000000000089e-02 -9.549399999999999555e-02 1.395349999999999924e-01 4.759000000000000209e-03 -1.035019999999999968e-01 1.487999999999999956e-03 7.766099999999999393e-02 1.577159999999999951e-01 -1.323469999999999924e-01 -4.979299999999999699e-02 9.790799999999999503e-02 6.926200000000000412e-02 -5.762799999999999867e-02 -3.007299999999999904e-02 2.222500000000000170e-02 4.738599999999999757e-02 4.795599999999999863e-02 5.067000000000000323e-03 1.663800000000000001e-02 -3.549000000000000071e-03 2.782400000000000151e-02 -1.263630000000000031e-01 -9.517899999999999971e-02 6.626500000000000445e-02 7.061999999999999701e-03 9.202299999999999369e-02 1.444350000000000078e-01 -9.705400000000000138e-02 -1.988000000000000184e-03 -2.795999999999999874e-02 -3.066849999999999854e-01 1.024219999999999992e-01 -6.795199999999999851e-02 1.072260000000000019e-01 -1.534830000000000083e-01 2.186700000000000033e-01
2.261399999999999869e-02 5.705699999999999661e-02 -1.472050000000000025e-01 -1.708089999999999886e-01 2.602099999999999899e-02 -1.925520000000000009e-01 5.197399999999999937e-02 4.132600000000000162e-02 -4.702200000000000130e-02 9.956199999999999772e-02 5.120999999999999684e-03 -3.212899999999999784e-02 4.998299999999999965e-02 2.295499999999999971e-02 -1.683610000000000106e-01 -6.888700000000000379e-02 -3.227499999999999813e-02 -3.903899999999999731e-02 2.696700000000000139e-02 9.533500000000000307e-02 -7.638599999999999557e-02 -3.579700000000000243e-02 1.122210000000000013e-01 1.512189999999999923e-01 3.568299999999999944e-02 -1.399410000000000098e-01 8.494400000000000561e-02 6.718100000000000460e-02 1.719400000000000095e-02 5.893099999999999727e-02 -3.217699999999999727e-02 5.118299999999999933e-02 -2.660600000000000118e-02 9.877400000000000069e-02 -8.579599999999999727e-02 -2.148100000000000009e-02 1.510460000000000136e-01 8.264799999999999924e-02 3.721399999999999708e-02 -1.980700000000000169e-02 5.572799999999999976e-02 -3.586099999999999705e-02 5.068600000000000189e-02 -8.254400000000000626e-02 -3.433400000000000341e-02 1.091229999999999978e-01 5.531900000000000012e-02 -1.115400000000000003e-01 1.799020000000000064e-01 -1.029120000000000035e-01 7.643199999999999994e-02 1.857400000000000023e-02 -4.250999999999999571e-03 -1.606549999999999923e-01 5.784399999999999958e-02 5.679900000000000226e-02 -1.501329999999999887e-01 -1.638509999999999966e-01 -6.417000000000000481e-02 1.411800000000000034e-02 -1.514800000000000001e-02 2.650669999999999971e-01 -1.557199999999999973e-01 -3.031000000000000014e-02 2.190060000000000062e-01 2.690100000000000130e-02 -1.950919999999999876e-01 5.689999999999999919e-02 -1.741620000000000112e-01 3.039999999999999994e-02 1.101260000000000017e-01 -8.723599999999999410e-02 -9.019000000000000627e-02 3.902800000000000019e-02 3.698400000000000298e-02 7.187699999999999645e-02 7.008000000000000340e-03 -4.064199999999999757e-02 -1.589799999999999894e-02 1.809399999999999897e-02 -9.148999999999999147e-03 6.766600000000000392e-02 -2.929500000000000159e-02 -3.487500000000000322e-02 8.025500000000000689e-02 -2.343500000000000097e-02 -1.329039999999999944e-01 -8.925199999999999800e-02 -1.113699999999999933e-02 7.007299999999999640e-02 1.109200000000000047e-01 3.815400000000000041e-02 -5.908000000000000057e-02 1.622600000000000084e-02 2.291899999999999840e-02 -1.157439999999999997e-01 -2.038699999999999887e-02 -1.245649999999999952e-01 -1.032600000000000046e-01 3.144000000000000267e-02 4.061300000000000326e-02 1.406020000000000048e-01 -1.340099999999999902e-01 -1.219600000000000024e-02 -2.016979999999999884e-01 1.288759999999999906e-01 4.681699999999999751e-02 1.206630000000000064e-01 2.144300000000000025e-02 -1.748599999999999877e-01 2.721640000000000170e-01 2.857799999999999924e-02 -7.668000000000000337e-03 1.299150000000000027e-01 -6.234499999999999764e-02 -2.472360000000000113e-01 -7.894800000000000428e-02 -1.563970000000000082e-01 -2.972210000000000130e-01 -5.649999999999999641e-03 -1.146189999999999987e-01 -1.717819999999999903e-01 3.385870000000000268e-01 3.464079999999999937e-01 5.090399999999999786e-02 3.114979999999999971e-01 -6.199199999999999849e-02 -1.177450000000000024e-01 1.718490000000000018e-01 7.262000000000000226e-03 -1.279629999999999934e-01 1.492000000000000054e-03 9.707000000000000350e-02 1.937409999999999966e-01 -1.619059999999999944e-01 -6.343100000000000127e-02 1.206480000000000052e-01 8.526899999999999757e-02 -7.283699999999999897e-02 -3.756099999999999717e-02 2.722400000000000167e-02 5.713599999999999929e-02 5.918799999999999756e-02 6.505999999999999631e-03 1.937900000000000039e-02 -4.017999999999999870e-03 3.415800000000000086e-02 -1.575219999999999954e-01 -1.179550000000000043e-01 8.169600000000000473e-02 7.675999999999999664e-03 1.132100000000000051e-01 1.766810000000000047e-01 -1.218640000000000001e-01 -2.500000000000000052e-03 -3.496799999999999908e-02 -3.799710000000000032e-01 1.261849999999999916e-01 -8.345600000000000240e-02 1.297359999999999902e-01 -1.877759999999999985e-01 2.676540000000000030e-01
2.687000000000000152e-02 6.757299999999999418e-02 -1.741260000000000030e-01 -2.037200000000000122e-01 3.075400000000000009e-02 -2.296749999999999903e-01 6.095199999999999924e-02 4.804699999999999943e-02 -5.601099999999999829e-02 1.181299999999999989e-01 5.080000000000000314e-03 -3.690800000000000330e-02 6.009500000000000258e-02 2.643300000000000163e-02 -2.000099999999999933e-01 -8.222899999999999654e-02 -3.969400000000000012e-02 -4.586599999999999705e-02 3.262000000000000316e-02 1.134270000000000000e-01 -9.016699999999999715e-02 -4.314300000000000079e-02 1.324289999999999912e-01 1.791780000000000039e-01 4.253099999999999936e-02 -1.646239999999999926e-01 1.006169999999999981e-01 7.552599999999999592e-02 2.064399999999999916e-02 7.002700000000000591e-02 -4.188200000000000256e-02 6.134499999999999675e-02 -3.102500000000000049e-02 1.136979999999999935e-01 -1.017979999999999996e-01 -2.525799999999999920e-02 1.740960000000000008e-01 9.796499999999999653e-02 4.310800000000000048e-02 -2.778999999999999873e-02 6.671499999999999653e-02 -4.107899999999999746e-02 5.647499999999999742e-02 -9.877800000000000469e-02 -4.112099999999999783e-02 1.253650000000000042e-01 6.658699999999999342e-02 -1.328759999999999941e-01 2.112110000000000098e-01 -1.216109999999999969e-01 9.035600000000000576e-02 1.838499999999999857e-02 -5.969000000000000347e-03 -1.903289999999999982e-01 7.142900000000000638e-02 6.662800000000000666e-02 -1.761290000000000078e-01 -1.914420000000000011e-01 -7.647600000000000231e-02 1.765900000000000108e-02 -1.393600000000000047e-02 3.137280000000000069e-01 -1.817620000000000069e-01 -3.164200000000000346e-02 2.616709999999999869e-01 3.462300000000000100e-02 -2.246479999999999866e-01 6.709700000000000386e-02 -2.045269999999999866e-01 3.939700000000000146e-02 1.317029999999999867e-01 -1.018440000000000040e-01 -1.037269999999999998e-01 4.625699999999999951e-02 4.483800000000000285e-02 8.910500000000000365e-02 8.071000000000000049e-03 -4.850700000000000151e-02 -1.505899999999999947e-02 2.113900000000000154e-02 -9.315999999999999628e-03 8.032400000000000651e-02 -3.478099999999999942e-02 -4.013200000000000101e-02 9.562199999999999867e-02 -2.833000000000000101e-02 -1.579990000000000006e-01 -1.067680000000000018e-01 -1.322800000000000017e-02 8.397699999999999609e-02 1.314700000000000035e-01 4.506500000000000089e-02 -6.954799999999999871e-02 1.915800000000000142e-02 2.657199999999999840e-02 -1.371149999999999869e-01 -2.415700000000000139e-02 -1.472430000000000128e-01 -1.213430000000000064e-01 3.641699999999999798e-02 4.894199999999999939e-02 1.671350000000000058e-01 -1.573690000000000089e-01 -1.559999999999999928e-02 -2.374350000000000072e-01 1.539099999999999913e-01 5.583699999999999775e-02 1.448000000000000120e-01 2.504699999999999982e-02 -2.064050000000000051e-01 3.200029999999999819e-01 3.496200000000000002e-02 -9.634999999999999468e-03 1.528380000000000016e-01 -7.185600000000000320e-02 -2.924430000000000085e-01 -9.411600000000000521e-02 -1.826160000000000005e-01 -3.525380000000000180e-01 -1.015899999999999963e-02 -1.342220000000000080e-01 -2.028179999999999983e-01 3.981430000000000247e-01 4.094280000000000141e-01 6.222799999999999859e-02 3.661019999999999830e-01 -7.155999999999999861e-02 -1.389100000000000057e-01 2.024680000000000091e-01 9.615999999999999548e-03 -1.515459999999999863e-01 1.296000000000000060e-03 1.156429999999999958e-01 2.278459999999999930e-01 -1.896750000000000103e-01 -7.675500000000000378e-02 1.423800000000000066e-01 1.003860000000000030e-01 -8.758499999999999619e-02 -4.490999999999999853e-02 3.189499999999999974e-02 6.646599999999999731e-02 6.995800000000000629e-02 8.024999999999999148e-03 2.214700000000000002e-02 -4.329000000000000382e-03 4.012299999999999894e-02 -1.876089999999999980e-01 -1.400700000000000001e-01 9.634600000000000108e-02 8.427000000000000463e-03 1.334599999999999953e-01 2.067890000000000006e-01 -1.459489999999999954e-01 -3.037999999999999902e-03 -4.188100000000000156e-02 -4.501740000000000186e-01 1.488559999999999883e-01 -9.820600000000000163e-02 1.510120000000000073e-01 -2.199010000000000131e-01 3.135290000000000021e-01