-3.386763653599999770e+02
-3.386737148099999786e+02
-3.386652655699999741e+02
-3.386512591000000043e+02
-3.386320867100000100e+02
-3.386082601499999782e+02
-3.385803948099999729e+02
-3.385491816900000117e+02
-3.385153570699999932e+02
-3.384796795199999906e+02
-3.370251212800000076e+02
-3.370280458899999871e+02
-3.370322575999999799e+02
-3.370377552300000161e+02
-3.370445563200000265e+02
-3.370527026400000068e+02
-3.370622467100000108e+02
-3.370732629299999985e+02
-3.370858323599999835e+02
-3.371000351900000283e+02
-3.381413620000000151e+02
-3.381480800599999839e+02
-3.381509293799999796e+02
-3.381499313599999823e+02
-3.381452384300000062e+02
-3.381371185500000252e+02
-3.381259531599999946e+02
-3.381122150699999906e+02
-3.380964491099999805e+02
-3.380792470900000239e+02
-3.380436548999999786e+02
-3.380409743700000149e+02
-3.380349251299999764e+02
-3.380256383700000242e+02
-3.380133252499999799e+02
-3.379982606799999871e+02
-3.379807701600000200e+02
-3.379612236699999812e+02
-3.379400066499999866e+02
-3.379175153699999896e+02
-3.381772476200000028e+02
-3.381769974100000127e+02
-3.381738277200000198e+02
-3.381678044600000135e+02
-3.381590622300000177e+02
-3.381478001899999981e+02
-3.381342692499999885e+02
-3.381187664400000017e+02
-3.381016223500000137e+02
-3.380831847000000039e+02
-3.375164728500000138e+02
-3.374997364500000003e+02
-3.374803023000000053e+02
-3.374586135100000206e+02
-3.374352195000000165e+02
-3.374107553000000053e+02
-3.373859148799999730e+02
-3.373614219899999966e+02
-3.373380065800000125e+02
-3.373163803799999982e+02
-3.381555671699999834e+02
-3.381563031399999772e+02
-3.381531019899999819e+02
-3.381460828799999945e+02
-3.381354521000000091e+02
-3.381215044599999828e+02
-3.381046038000000067e+02
-3.380851698899999747e+02
-3.380636619399999745e+02
-3.380405702699999893e+02
-3.376701729100000193e+02
-3.376764924299999961e+02
-3.376808808700000100e+02
-3.376832879799999887e+02
-3.376837601500000119e+02
-3.376824348600000008e+02
-3.376795394100000181e+02
-3.376753827499999829e+02
-3.376703386600000272e+02
-3.376648323200000164e+02
-3.381233610500000282e+02
-3.381248584599999845e+02
-3.381222636800000032e+02
-3.381157367299999805e+02
-3.381055386500000282e+02
-3.380920246200000179e+02
-3.380756233000000179e+02
-3.380568228999999860e+02
-3.380361490299999900e+02
-3.380141484000000105e+02
-3.376198362999999745e+02
-3.376104878099999951e+02
-3.375995287100000155e+02
-3.375872028599999908e+02
-3.375738046999999824e+02
-3.375596715600000266e+02
-3.375451747500000010e+02
-3.375307061299999987e+02
-3.375166730299999927e+02
-3.375034897599999795e+02
-3.363967337099999781e+02
-3.364052459299999782e+02
-3.364180314999999837e+02
-3.364349815599999829e+02
-3.364560143499999754e+02
-3.364810544100000129e+02
-3.365100149099999953e+02
-3.365427635899999927e+02
-3.365791135700000041e+02
-3.366187873100000161e+02
-3.361651812700000050e+02
-3.361809030499999835e+02
-3.362061658900000225e+02
-3.362405316699999958e+02
-3.362834391600000004e+02
-3.363341879700000163e+02
-3.363919382500000097e+02
-3.364557220600000278e+02
-3.365244516299999873e+02
-3.365969391900000005e+02
-3.372678242000000068e+02
-3.372685529699999734e+02
-3.372731233700000075e+02
-3.372816922000000091e+02
-3.372944367800000123e+02
-3.373115260499999977e+02
-3.373330919699999981e+02
-3.373592100000000187e+02
-3.373898651499999914e+02
-3.374249278799999843e+02
-3.377015732699999830e+02
-3.376997289600000158e+02
-3.376928604299999961e+02
-3.376811663899999871e+02
-3.376650060100000132e+02
-3.376448915700000271e+02
-3.376214580399999932e+02
-3.375954253300000119e+02
-3.375675818899999854e+02
-3.375387365299999942e+02
-3.376508853700000259e+02
-3.376522112999999763e+02
-3.376511256200000162e+02
-3.376477634299999977e+02
-3.376423897999999895e+02
-3.376353874800000199e+02
-3.376272279600000275e+02
-3.376184508599999958e+02
-3.376096303200000079e+02
-3.376013526599999750e+02
-3.368991199399999914e+02
-3.368954323699999804e+02
-3.368925510400000007e+02
-3.368905582699999854e+02
-3.368895549999999730e+02
-3.368896550299999717e+02
-3.368909841199999846e+02
-3.368936761900000079e+02
-3.368978683600000181e+02
-3.369036930799999823e+02
-3.372849581099999909e+02
-3.372872782300000267e+02
-3.372881761300000107e+02
-3.372878458600000044e+02
-3.372865918599999873e+02
-3.372848249699999883e+02
-3.372830155199999922e+02
-3.372816733199999817e+02
-3.372813054999999736e+02
-3.372823889100000088e+02
-3.377046030399999950e+02
-3.377089802099999929e+02
-3.377118978099999822e+02
-3.377133844300000192e+02
-3.377135304099999757e+02
-3.377124689400000079e+02
-3.377103747300000123e+02
-3.377074423999999908e+02
-3.377038758699999903e+02
-3.376998725199999853e+02
-3.377473254999999881e+02
-3.377424511500000222e+02
-3.377343455800000243e+02
-3.377232141499999898e+02
-3.377093719200000237e+02
-3.376932316499999729e+02
-3.376752785099999983e+02
-3.376560603699999774e+02
-3.376361599900000101e+02
-3.376161713199999781e+02
-3.376986934299999916e+02
-3.376915807299999983e+02
-3.376853494999999725e+02
-3.376801719499999876e+02
-3.376762587800000119e+02
-3.376738491500000237e+02
-3.376731950000000211e+02
-3.376745511699999724e+02
-3.376781559400000106e+02
-3.376842147300000079e+02
-3.380809599699999808e+02
-3.380811799300000189e+02
-3.380763026000000195e+02
-3.380666062700000225e+02
-3.380525219699999866e+02
-3.380346065400000271e+02
-3.380135220299999901e+02
-3.379900009799999907e+02
-3.379648158900000112e+02
-3.379387489800000139e+02
-3.375334108499999957e+02
-3.375374929899999756e+02
-3.375407735000000002e+02
-3.375432820400000082e+02
-3.375450870999999893e+02
-3.375462901000000215e+02
-3.375470267499999864e+02
-3.375474538700000267e+02
-3.375477477900000167e+02
-3.375480954299999894e+02
-3.376026081900000122e+02
-3.375985741100000155e+02
-3.375935682799999995e+02
-3.375878016600000251e+02
-3.375815776200000187e+02
-3.375752697799999851e+02
-3.375693066200000203e+02
-3.375641464199999859e+02
-3.375602425800000219e+02
-3.375580318199999965e+02
-3.381500366099999724e+02
-3.381412070100000165e+02
-3.381282261200000221e+02
-3.381114291800000160e+02
-3.380912827700000207e+02
-3.380683690399999932e+02
-3.380433617300000151e+02
-3.380169877399999905e+02
-3.379900038200000267e+02
-3.379631692799999882e+02
-3.379605066899999883e+02
-3.379657605099999955e+02
-3.379686561899999901e+02
-3.379692017500000247e+02
-3.379674859400000173e+02
-3.379636681999999723e+02
-3.379579834099999971e+02
-3.379507298999999989e+02
-3.379422578100000010e+02
-3.379329559899999822e+02
-3.381162228499999856e+02
-3.381161755100000050e+02
-3.381137900800000011e+02
-3.381091711400000008e+02
-3.381025051699999722e+02
-3.380940497199999868e+02
-3.380841246400000273e+02
-3.380731018800000243e+02
-3.380613904300000172e+02
-3.380494203999999741e+02
-3.377190718699999934e+02
-3.377157281199999943e+02
-3.377095128000000273e+02
-3.377005338899999742e+02
-3.376889928800000007e+02
-3.376751702999999907e+02
-3.376594186400000126e+02
-3.376421465299999909e+02
-3.376238051400000018e+02
-3.376048738000000071e+02
-3.377826166899999976e+02
-3.377863755600000104e+02
-3.377877511199999958e+02
-3.377867773799999895e+02
-3.377835569100000157e+02
-3.377782746899999893e+02
-3.377711810499999956e+02
-3.377625845000000027e+02
-3.377528403300000264e+02
-3.377423379100000034e+02
-3.378880245299999956e+02
-3.378798483099999999e+02
-3.378690808399999810e+02
-3.378558974100000114e+02
-3.378405299300000024e+02
-3.378232657899999936e+02
-3.378044250699999793e+02
-3.377843599600000175e+02
-3.377634381600000211e+02
-3.377420346000000109e+02
-3.378724566099999720e+02
-3.378708312699999965e+02
-3.378635153299999843e+02
-3.378508103600000254e+02
-3.378332100299999752e+02
-3.378113590699999804e+02
-3.377860340700000279e+02
-3.377580837400000178e+02
-3.377283974000000057e+02
-3.376978636299999721e+02
-3.369436166400000161e+02
-3.369402927200000022e+02
-3.369404140600000233e+02
-3.369441418999999769e+02
-3.369516080999999872e+02
-3.369629008300000237e+02
-3.369780563599999823e+02
-3.369970349199999760e+02
-3.370197178600000143e+02
-3.370458903200000123e+02
-3.369621430899999837e+02
-3.369705697599999894e+02
-3.369842724200000248e+02
-3.370031290300000251e+02
-3.370270096899999999e+02
-3.370557608099999811e+02
-3.370891992800000025e+02
-3.371270885600000042e+02
-3.371691132700000253e+02
-3.372148679200000174e+02
-3.377659695599999736e+02
-3.377707087200000160e+02
-3.377730877100000271e+02
-3.377731667900000048e+02
-3.377710737300000119e+02
-3.377669940900000256e+02
-3.377611642200000119e+02
-3.377538665800000217e+02
-3.377454192700000135e+02
-3.377361639999999738e+02
-3.379380472799999779e+02
-3.379385628300000235e+02
-3.379351764499999717e+02
-3.379279925299999832e+02
-3.379172261300000173e+02
-3.379031941599999982e+02
-3.378862964799999986e+02
-3.378670045299999742e+02
-3.378458385299999804e+02
-3.378233458299999938e+02
-3.380954989599999863e+02
-3.380941086600000176e+02
-3.380885749999999916e+02
-3.380790858299999968e+02
-3.380659486800000195e+02
-3.380495738399999937e+02
-3.380304521699999896e+02
-3.380091414099999838e+02
-3.379862511200000199e+02
-3.379624104700000089e+02
-3.373846224900000266e+02
-3.373850646800000277e+02
-3.373859348500000124e+02
-3.373872752999999989e+02
-3.373891571400000089e+02
-3.373916725400000018e+02
-3.373949334299999805e+02
-3.373990660599999956e+02
-3.374042041899999731e+02
-3.374104886900000224e+02
-3.380261115000000132e+02
-3.380128534199999990e+02
-3.379962886100000219e+02
-3.379767228900000191e+02
-3.379545453800000132e+02
-3.379302044799999862e+02
-3.379042041800000220e+02
-3.378770764700000200e+02
-3.378493701699999860e+02
-3.378216336799999908e+02
-3.379460501400000112e+02
-3.379405948099999932e+02
-3.379298359900000150e+02
-3.379140201899999738e+02
-3.378935331100000212e+02
-3.378688782599999740e+02
-3.378406561400000214e+02
-3.378095411599999807e+02
-3.377762510000000020e+02
-3.377415245199999845e+02
-3.383483306499999799e+02
-3.383454566400000090e+02
-3.383380942900000150e+02
-3.383264543999999887e+02
-3.383108569799999827e+02
-3.382917229899999825e+02
-3.382695492500000114e+02
-3.382448786799999993e+02
-3.382182977100000016e+02
-3.381903960199999801e+02
-3.379479089600000066e+02
-3.379550377300000150e+02
-3.379596149899999773e+02
-3.379616434800000206e+02
-3.379612160500000186e+02
-3.379585115799999926e+02
-3.379537880799999812e+02
-3.379473734300000274e+02
-3.379396508699999799e+02
-3.379310374799999863e+02
-3.380920204000000240e+02
-3.380923071299999947e+02
-3.380900605100000007e+02
-3.380853779000000259e+02
-3.380784158800000228e+02
-3.380693898100000183e+02
-3.380585636499999964e+02
-3.380462381500000220e+02
-3.380327425199999993e+02
-3.380184243300000162e+02
-3.377141745900000274e+02
-3.377135770900000011e+02
-3.377090671199999861e+02
-3.377007908599999837e+02
-3.376889988300000027e+02
-3.376740393700000027e+02
-3.376563403200000266e+02
-3.376363864699999908e+02
-3.376147091199999863e+02
-3.375918544500000280e+02
-3.373418775999999752e+02
-3.373534362099999839e+02
-3.373668121900000187e+02
-3.373819143900000199e+02
-3.373987159999999790e+02
-3.374172447799999759e+02
-3.374375591599999780e+02
-3.374597249400000010e+02
-3.374837957899999878e+02
-3.375097851400000195e+02
-3.379979947599999832e+02
-3.379944843900000251e+02
-3.379872495000000185e+02
-3.379765044600000010e+02
-3.379625517900000204e+02
-3.379457748599999718e+02
-3.379266192000000046e+02
-3.379055675999999835e+02
-3.378831224300000144e+02
-3.378597945299999878e+02
-3.371314392500000281e+02
-3.371301014200000168e+02
-3.371245292400000153e+02
-3.371150431899999944e+02
-3.371021556499999861e+02
-3.370865508100000056e+02
-3.370690476600000238e+02
-3.370505499700000200e+02
-3.370320125299999745e+02
-3.370143856099999766e+02
-3.378300694100000214e+02
-3.378165466400000128e+02
-3.378036981899999773e+02
-3.377919229299999984e+02
-3.377816660600000205e+02
-3.377733984500000020e+02
-3.377675970299999904e+02
-3.377647189400000229e+02
-3.377651748600000019e+02
-3.377693096799999921e+02
-3.375842349000000127e+02
-3.375824116100000083e+02
-3.375795807599999989e+02
-3.375758653899999899e+02
-3.375714322900000184e+02
-3.375664876600000071e+02
-3.375612745500000074e+02
-3.375560532800000146e+02
-3.375511079500000164e+02
-3.375467321699999843e+02
-3.382537199500000042e+02
-3.382532660100000044e+02
-3.382486160099999779e+02
-3.382398787600000105e+02
-3.382272673499999769e+02
-3.382110945200000174e+02
-3.381917552699999874e+02
-3.381697085000000129e+02
-3.381454594400000246e+02
-3.381195394000000078e+02
-3.376560135299999956e+02
-3.376585264199999870e+02
-3.376597731800000020e+02
-3.376597949800000151e+02
-3.376586890199999971e+02
-3.376566100599999913e+02
-3.376537547099999870e+02
-3.376503542899999957e+02
-3.376466467899999770e+02
-3.376428748600000063e+02
-3.377796794000000205e+02
-3.377782431800000040e+02
-3.377715785999999980e+02
-3.377599207600000000e+02
-3.377436373200000048e+02
-3.377232119299999908e+02
-3.376992187899999749e+02
-3.376722940700000208e+02
-3.376431132600000069e+02
-3.376123583300000064e+02
-3.366281493399999931e+02
-3.366464141199999744e+02
-3.366693612400000006e+02
-3.366966494499999953e+02
-3.367278821200000039e+02
-3.367626144999999838e+02
-3.368003585399999906e+02
-3.368405933099999743e+02
-3.368827845299999808e+02
-3.369263934100000029e+02
-3.375550642700000026e+02
-3.375693817999999737e+02
-3.375836452899999927e+02
-3.375977280399999927e+02
-3.376115550000000098e+02
-3.376250987500000065e+02
-3.376383901500000206e+02
-3.376515112600000066e+02
-3.376645847500000173e+02
-3.376777728700000125e+02
-3.381253055999999901e+02
-3.381247637399999917e+02
-3.381196261000000050e+02
-3.381100669499999753e+02
-3.380963995999999838e+02
-3.380790597299999831e+02
-3.380585771099999874e+02
-3.380355558900000119e+02
-3.380106522400000131e+02
-3.379845458300000018e+02
-3.377550673200000233e+02
-3.377481816200000253e+02
-3.377376029700000117e+02
-3.377235903600000029e+02
-3.377064886399999750e+02
-3.376867101400000024e+02
-3.376647163299999761e+02
-3.376410024699999894e+02
-3.376160819599999741e+02
-3.375904656199999749e+02
-3.371933935000000133e+02
-3.371898657799999910e+02
-3.371827298599999949e+02
-3.371722141399999941e+02
-3.371586938600000281e+02
-3.371426618699999835e+02
-3.371247176599999875e+02
-3.371055461899999841e+02
-3.370858873099999755e+02
-3.370665180699999723e+02
-3.379208683100000030e+02
-3.379260563199999865e+02
-3.379280846400000087e+02
-3.379269743500000232e+02
-3.379228652900000043e+02
-3.379160107700000140e+02
-3.379067606500000238e+02
-3.378955486599999745e+02
-3.378828787699999907e+02
-3.378693073599999934e+02
-3.369467166599999928e+02
-3.369533188999999993e+02
-3.369621560400000249e+02
-3.369732697900000176e+02
-3.369867371500000104e+02
-3.370026368700000035e+02
-3.370210445000000163e+02
-3.370420046200000002e+02
-3.370655052100000262e+02
-3.370914625699999760e+02
-3.375153620500000216e+02
-3.375075856199999862e+02
-3.375002543499999774e+02
-3.374935744800000066e+02
-3.374877986299999861e+02
-3.374832164300000272e+02
-3.374801409199999966e+02
-3.374788861299999780e+02
-3.374797521300000085e+02
-3.374830063900000141e+02
-3.372937829100000044e+02
-3.373139661499999988e+02
-3.373363219699999718e+02
-3.373605773900000031e+02
-3.373864840200000117e+02
-3.374138218100000017e+02
-3.374423960099999817e+02
-3.374720253899999989e+02
-3.375025316599999883e+02
-3.375337448799999720e+02
-3.379747419199999854e+02
-3.379771264500000143e+02
-3.379754820100000074e+02
-3.379698740000000043e+02
-3.379604770400000007e+02
-3.379475639799999840e+02
-3.379314982299999883e+02
-3.379127245600000151e+02
-3.378917346599999973e+02
-3.378690598900000168e+02
-3.380158010800000170e+02
-3.380073381199999858e+02
-3.379969232199999851e+02
-3.379848331599999938e+02
-3.379714351200000237e+02
-3.379571686900000032e+02
-3.379425365100000249e+02
-3.379280763200000024e+02
-3.379143490299999826e+02
-3.379019127400000002e+02
-3.380904677799999831e+02
-3.380900181399999838e+02
-3.380860201500000244e+02
-3.380785313200000246e+02
-3.380677035200000091e+02
-3.380537785899999790e+02
-3.380370820900000126e+02
-3.380180042000000071e+02
-3.379969914700000118e+02
-3.379745273400000087e+02
-3.377853353900000002e+02
-3.377848867000000155e+02
-3.377820211900000231e+02
-3.377769819299999767e+02
-3.377700715400000036e+02
-3.377616440499999726e+02
-3.377520885800000201e+02
-3.377418132899999819e+02
-3.377312398199999848e+02
-3.377207799999999907e+02
-3.380955415999999900e+02
-3.381045717399999830e+02
-3.381104391299999747e+02
-3.381131341799999745e+02
-3.381127385600000252e+02
-3.381094231999999806e+02
-3.381034386900000186e+02
-3.380951064999999858e+02
-3.380848022499999956e+02
-3.380729388099999824e+02
-3.381276766400000042e+02
-3.381171478399999728e+02
-3.381037462300000129e+02
-3.380877323400000023e+02
-3.380694445600000222e+02
-3.380492772499999887e+02
-3.380276756200000250e+02
-3.380051155400000198e+02
-3.379820849100000260e+02
-3.379590775099999860e+02
-3.371621608799999876e+02
-3.371645563899999729e+02
-3.371701664000000278e+02
-3.371790171800000167e+02
-3.371911741399999869e+02
-3.372067467499999793e+02
-3.372258466700000099e+02
-3.372485843700000032e+02
-3.372750218200000063e+02
-3.373051540499999987e+02
-3.382006693399999904e+02
-3.382007514200000173e+02
-3.381960903899999948e+02
-3.381867957399999796e+02
-3.381730916600000114e+02
-3.381553111399999807e+02
-3.381338792899999817e+02
-3.381092890200000056e+02
-3.380820848600000090e+02
-3.380528444799999761e+02
-3.381520381600000178e+02
-3.381574969200000282e+02
-3.381594276999999806e+02
-3.381578933999999776e+02
-3.381530759899999907e+02
-3.381452674899999806e+02
-3.381348599699999795e+02
-3.381223203399999875e+02
-3.381081707199999755e+02
-3.380929707700000222e+02
-3.381001438700000108e+02
-3.381058594099999937e+02
-3.381086190099999840e+02
-3.381084850699999720e+02
-3.381056536099999903e+02
-3.381004395599999839e+02
-3.380932682900000259e+02
-3.380846382700000277e+02
-3.380751070900000173e+02
-3.380652551399999766e+02
-3.373821344500000237e+02
-3.373760113999999817e+02
-3.373692640099999949e+02
-3.373621091399999727e+02
-3.373548558300000195e+02
-3.373478872499999852e+02
-3.373416390599999772e+02
-3.373365779399999838e+02
-3.373331721600000037e+02
-3.373318633999999747e+02
-3.371707607199999757e+02
-3.371802444699999910e+02
-3.371902604100000076e+02
-3.372007588499999997e+02
-3.372117168799999831e+02
-3.372231439199999841e+02
-3.372350798300000179e+02
-3.372475925699999948e+02
-3.372607736799999998e+02
-3.372747261700000081e+02
-3.366157340699999736e+02
-3.366189675400000283e+02
-3.366275556499999766e+02
-3.366414940199999819e+02
-3.366607786199999737e+02
-3.366853928699999869e+02
-3.367152814099999887e+02
-3.367503226599999948e+02
-3.367903095400000097e+02
-3.368349216700000284e+02
-3.379081884299999956e+02
-3.379061228699999901e+02
-3.379031528099999946e+02
-3.378993869700000232e+02
-3.378950596099999757e+02
-3.378905118499999958e+02
-3.378861601199999996e+02
-3.378824779099999773e+02
-3.378799674399999731e+02
-3.378791110799999728e+02
-3.365474071900000013e+02
-3.365423279199999911e+02
-3.365403602299999761e+02
-3.365415305700000204e+02
-3.365458391199999824e+02
-3.365532564100000172e+02
-3.365637223300000187e+02
-3.365771536299999980e+02
-3.365934342400000219e+02
-3.366124211299999729e+02
-3.373571027400000162e+02
-3.373679599499999995e+02
-3.373780300199999829e+02
-3.373871441599999912e+02
-3.373951827299999877e+02
-3.374020806199999925e+02
-3.374078267200000028e+02
-3.374124675599999819e+02
-3.374161023400000090e+02
-3.374188751400000115e+02
-3.377280647399999793e+02
-3.377366337199999862e+02
-3.377440635400000133e+02
-3.377503268400000138e+02
-3.377554572700000222e+02
-3.377595467300000109e+02
-3.377627453999999716e+02
-3.377652523099999939e+02
-3.377673061099999927e+02
-3.377691726300000141e+02
-3.368232933200000048e+02
-3.368322796699999913e+02
-3.368442693399999825e+02
-3.368591395899999839e+02
-3.368767520100000183e+02
-3.368969452599999954e+02
-3.369195461200000068e+02
-3.369443590100000279e+02
-3.369711843900000190e+02
-3.369998047199999860e+02
-3.370121383399999786e+02
-3.370296873500000174e+02
-3.370508486499999776e+02
-3.370753052000000025e+02
-3.371027252000000090e+02
-3.371327703200000201e+02
-3.371650864700000056e+02
-3.371993072600000119e+02
-3.372350451300000032e+02
-3.372718961300000160e+02
-3.371001282400000036e+02
-3.371223729600000070e+02
-3.371485313399999768e+02
-3.371779878199999985e+02
-3.372101473399999918e+02
-3.372444492100000275e+02
-3.372803855000000226e+02
-3.373175056700000027e+02
-3.373554231800000025e+02
-3.373938134200000150e+02
-3.377860450300000252e+02
-3.377865696599999978e+02
-3.377848353100000054e+02
-3.377809122799999955e+02
-3.377749511100000177e+02
-3.377671705999999858e+02
-3.377578548299999852e+02
-3.377473374900000067e+02
-3.377359949799999868e+02
-3.377242337600000042e+02
-3.380207564699999807e+02
-3.380244204599999875e+02
-3.380252473400000213e+02
-3.380233158199999934e+02
-3.380187832099999810e+02
-3.380118845499999907e+02
-3.380029217499999845e+02
-3.379922458099999858e+02
-3.379802510399999846e+02
-3.379673541999999884e+02
-3.376460712200000103e+02
-3.376484328000000232e+02
-3.376494929400000160e+02
-3.376492874300000153e+02
-3.376479187200000069e+02
-3.376455344999999966e+02
-3.376423367699999858e+02
-3.376385718700000211e+02
-3.376345157399999835e+02
-3.376304705200000171e+02
-3.365731981100000212e+02
-3.365650390199999720e+02
-3.365606693199999881e+02
-3.365601935299999923e+02
-3.365636735400000248e+02
-3.365711346499999763e+02
-3.365825628599999959e+02
-3.365978977699999746e+02
-3.366170384299999796e+02
-3.366398317700000007e+02
-3.377192338799999902e+02
-3.377212381499999765e+02
-3.377216656499999772e+02
-3.377204537299999743e+02
-3.377176231400000006e+02
-3.377132682100000238e+02
-3.377075610300000221e+02
-3.377007326899999953e+02
-3.376930594400000132e+02
-3.376848512000000255e+02
-3.374370521299999837e+02
-3.374427455399999758e+02
-3.374488420499999961e+02
-3.374553463500000134e+02
-3.374622957400000018e+02
-3.374697591699999748e+02
-3.374778375999999867e+02
-3.374866548800000032e+02
-3.374963617700000214e+02
-3.375071154600000227e+02
-3.379335975000000190e+02
-3.379320991700000150e+02
-3.379297200500000145e+02
-3.379266155099999764e+02
-3.379230692400000180e+02
-3.379194719700000178e+02
-3.379162876899999901e+02
-3.379140341899999953e+02
-3.379132373499999744e+02
-3.379144057500000145e+02
-3.375309600499999760e+02
-3.375314048899999761e+02
-3.375306115700000191e+02
-3.375286301200000025e+02
-3.375255523899999730e+02
-3.375215060799999947e+02
-3.375166592699999910e+02
-3.375112026400000218e+02
-3.375053505000000200e+02
-3.374993357700000161e+02
-3.380840733800000066e+02
-3.380840966200000253e+02
-3.380805277599999954e+02
-3.380735889100000122e+02
-3.380636177800000155e+02
-3.380510398700000110e+02
-3.380363584400000150e+02
-3.380201360699999782e+02
-3.380029727699999853e+02
-3.379854904399999782e+02
-3.377389628999999900e+02
-3.377436707200000114e+02
-3.377476539300000127e+02
-3.377509540500000185e+02
-3.377536580500000127e+02
-3.377558910700000183e+02
-3.377578110399999787e+02
-3.377596091199999933e+02
-3.377614990600000056e+02
-3.377637049800000000e+02
-3.382507002799999896e+02
-3.382455468399999745e+02
-3.382354409800000212e+02
-3.382206969800000138e+02
-3.382017774600000166e+02
-3.381792636199999720e+02
-3.381538244100000270e+02
-3.381261932499999716e+02
-3.380971354700000120e+02
-3.380674292599999831e+02
-3.382237224799999922e+02
-3.382234453099999882e+02
-3.382187764899999820e+02
-3.382099409200000082e+02
-3.381973115499999949e+02
-3.381813797600000271e+02
-3.381627363399999808e+02
-3.381420386899999926e+02
-3.381199812799999904e+02
-3.380972641199999771e+02
-3.374016712200000256e+02
-3.374037039699999809e+02
-3.374051994399999899e+02
-3.374062224599999809e+02
-3.374068759900000032e+02
-3.374072996799999942e+02
-3.374076654200000007e+02
-3.374081688399999734e+02
-3.374090209199999890e+02
-3.374104372599999806e+02
-3.378774312499999724e+02
-3.378781875099999752e+02
-3.378770577700000217e+02
-3.378741994599999998e+02
-3.378698528900000042e+02
-3.378643458899999814e+02
-3.378580545500000198e+02
-3.378513903900000059e+02
-3.378447763799999848e+02
-3.378386226200000237e+02
-3.384265907700000184e+02
-3.384305247400000098e+02
-3.384313067499999761e+02
-3.384289759499999946e+02
-3.384236465800000246e+02
-3.384155045200000131e+02
-3.384047999699999991e+02
-3.383918375700000070e+02
-3.383769655500000226e+02
-3.383605603199999905e+02
-3.369251513599999726e+02
-3.369290349699999751e+02
-3.369346469999999840e+02
-3.369419268199999919e+02
-3.369508167500000013e+02
-3.369612585699999840e+02
-3.369731982800000196e+02
-3.369865855699999884e+02
-3.370013723199999731e+02
-3.370175125299999763e+02
-3.373570522699999970e+02
-3.373609405500000094e+02
-3.373646632699999941e+02
-3.373682506000000103e+02
-3.373718394200000148e+02
-3.373756555900000080e+02
-3.373799954200000002e+02
-3.373851925800000231e+02
-3.373915887699999985e+02
-3.373994991399999890e+02
-3.362480865599999902e+02
-3.362635382099999788e+02
-3.362883386099999825e+02
-3.363221797699999911e+02
-3.363646657300000129e+02
-3.364153023000000076e+02
-3.364734538399999906e+02
-3.365383427300000108e+02
-3.366090354699999807e+02
-3.366844378600000027e+02
-3.376536823399999889e+02
-3.376443664099999751e+02
-3.376349290599999904e+02
-3.376255598299999861e+02
-3.376164705799999979e+02
-3.376078779200000213e+02
-3.376000013899999885e+02
-3.375930493999999840e+02
-3.375872126599999774e+02
-3.375826598400000194e+02
-3.382745912500000145e+02
-3.382716630400000213e+02
-3.382638997299999915e+02
-3.382514709800000219e+02
-3.382346655599999963e+02
-3.382138768500000197e+02
-3.381895871400000146e+02
-3.381623417199999722e+02
-3.381327330400000051e+02
-3.381013780600000018e+02
-3.368394654499999774e+02
-3.368526111499999729e+02
-3.368692963799999802e+02
-3.368893538899999953e+02
-3.369125933600000167e+02
-3.369388128100000017e+02
-3.369678048700000090e+02
-3.369993413600000167e+02
-3.370331967299999860e+02
-3.370691333500000155e+02
-3.381322551900000235e+02
-3.381303640799999926e+02
-3.381242251200000055e+02
-3.381140027299999815e+02
-3.380999914999999874e+02
-3.380826037699999915e+02
-3.380623548699999787e+02
-3.380398283200000265e+02
-3.380156610099999739e+02
-3.379905122700000106e+02
-3.380366918000000283e+02
-3.380368443099999922e+02
-3.380324837399999751e+02
-3.380237947900000108e+02
-3.380110941799999864e+02
-3.379948171099999854e+02
-3.379755031500000086e+02
-3.379537528999999836e+02
-3.379302182800000196e+02
-3.379055595500000209e+02
-3.380003717700000152e+02
-3.379965208599999755e+02
-3.379879791000000182e+02
-3.379750128599999925e+02
-3.379580292100000065e+02
-3.379375487300000032e+02
-3.379141823400000249e+02
-3.378886124100000075e+02
-3.378615511099999935e+02
-3.378337217999999780e+02
-3.377303929099999777e+02
-3.377421469000000229e+02
-3.377535275399999932e+02
-3.377644346499999983e+02
-3.377748476200000027e+02
-3.377848077200000034e+02
-3.377944118099999855e+02
-3.378037961300000234e+02
-3.378131184100000155e+02
-3.378225463200000149e+02
-3.370433439999999905e+02
-3.370560916200000179e+02
-3.370713796900000148e+02
-3.370890309399999865e+02
-3.371088466799999992e+02
-3.371306085400000256e+02
-3.371540902899999992e+02
-3.371790572699999871e+02
-3.372052716100000112e+02
-3.372324961499999745e+02
-3.374983709100000056e+02
-3.374944987399999832e+02
-3.374912153600000124e+02
-3.374886177100000282e+02
-3.374868245399999864e+02
-3.374859809199999745e+02
-3.374862453200000232e+02
-3.374877906300000063e+02
-3.374907929600000216e+02
-3.374954262399999720e+02
-3.377030292300000269e+02
-3.376978637500000104e+02
-3.376890772699999843e+02
-3.376769443399999773e+02
-3.376618523600000117e+02
-3.376442790899999977e+02
-3.376247793900000147e+02
-3.376039617900000280e+02
-3.375824617600000010e+02
-3.375609238000000119e+02
-3.382474114400000076e+02
-3.382400153599999726e+02
-3.382282257200000117e+02
-3.382122761499999797e+02
-3.381925019999999904e+02
-3.381693182000000206e+02
-3.381432050799999729e+02
-3.381146894999999972e+02
-3.380843259200000261e+02
-3.380526801500000147e+02
-3.375048529000000030e+02
-3.374911481400000071e+02
-3.374783880699999941e+02
-3.374668502000000103e+02
-3.374568079300000250e+02
-3.374485168400000248e+02
-3.374422110799999928e+02
-3.374380946499999823e+02
-3.374363282300000151e+02
-3.374370227399999749e+02
-3.378874447200000191e+02
-3.378880845400000226e+02
-3.378847355899999911e+02
-3.378775018300000283e+02
-3.378666057799999862e+02
-3.378523770499999728e+02
-3.378352325999999834e+02
-3.378156683700000258e+02
-3.377942329800000039e+02
-3.377715039999999931e+02
-3.381202682900000127e+02
-3.381220432499999902e+02
-3.381200604300000236e+02
-3.381143912800000066e+02
-3.381052160300000082e+02
-3.380928162000000157e+02
-3.380775599099999909e+02
-3.380598924000000238e+02
-3.380403063399999724e+02
-3.380193247700000256e+02
-3.377343370799999889e+02
-3.377443500900000117e+02
-3.377535117200000059e+02
-3.377617807600000219e+02
-3.377692032200000085e+02
-3.377758985799999891e+02
-3.377820409099999779e+02
-3.377878416300000026e+02
-3.377935291100000086e+02
-3.377993237800000088e+02
-3.378214665599999762e+02
-3.378249736999999868e+02
-3.378251592600000208e+02
-3.378221323399999960e+02
-3.378160868699999924e+02
-3.378072963600000094e+02
-3.377960938100000021e+02
-3.377828631300000097e+02
-3.377680126000000200e+02
-3.377519637199999920e+02
-3.380631731099999797e+02
-3.380609092799999758e+02
-3.380540813499999899e+02
-3.380428434199999970e+02
-3.380274404499999719e+02
-3.380082119300000159e+02
-3.379855684400000086e+02
-3.379599772700000244e+02
-3.379319413599999962e+02
-3.379019915299999752e+02
-3.378394435000000158e+02
-3.378361776400000167e+02
-3.378272851899999978e+02
-3.378130365499999925e+02
-3.377938502599999993e+02
-3.377702647300000081e+02
-3.377429258500000060e+02
-3.377125409700000205e+02
-3.376798712600000272e+02
-3.376456915900000126e+02
-3.380415711599999895e+02
-3.380327630799999952e+02
-3.380201182900000276e+02