-4.251121214236153745e-01 -2.672841153074337339e-01 1.975508270414127132e+00 -2.672841153074337339e-01 -2.052324651026127267e+00 -1.174686652762749750e+00 1.975508270414127132e+00 -1.174686652762749750e+00 -7.748002495485835084e-01
-3.882228990958185855e-01 -3.067953656928435469e-01 2.054096780334031536e+00 -3.067953656928435469e-01 -1.882254486323711173e+00 -1.256114186165724789e+00 2.054096780334031536e+00 -1.256114186165724789e+00 -5.089627704108672379e-01
-3.389106886605725566e-01 -3.459992058921884106e-01 2.133553271955766384e+00 -3.459992058921884106e-01 -1.703594919363597304e+00 -1.337885295659007490e+00 2.133553271955766384e+00 -1.337885295659007490e+00 -2.264889753213995827e-01
-2.771393242136343527e-01 -3.847328893363750613e-01 2.213913911183574612e+00 -3.847328893363750613e-01 -1.516960770517915336e+00 -1.420126561907448792e+00 2.213913911183574612e+00 -1.420126561907448792e+00 6.972786338038457210e-02
-2.038310363131989045e-01 -4.227613376478244200e-01 2.295160615065334753e+00 -4.227613376478244200e-01 -1.324124169094569536e+00 -1.502693321294076290e+00 2.295160615065334753e+00 -1.502693321294076290e+00 3.767944733550501746e-01
-1.202335486556475597e-01 -4.597952235925930053e-01 2.377329549505290629e+00 -4.597952235925930053e-01 -1.126911493257828578e+00 -1.585585573818890204e+00 2.377329549505290629e+00 -1.585585573818890204e+00 6.916367527419473582e-01
-2.781158036281936724e-02 -4.956175517452231505e-01 2.460474963359804867e+00 -4.956175517452231505e-01 -9.274565313580249715e-01 -1.668785236529769289e+00 2.460474963359804867e+00 -1.668785236529769289e+00 1.010873189494361668e+00
7.175315401798910975e-02 -5.299570778238927860e-01 2.544777686150093476e+00 -5.299570778238927860e-01 -7.279473206018571840e-01 -1.752328475330956259e+00 2.544777686150093476e+00 -1.752328475330956259e+00 1.330959524996484955e+00
1.766704422267524055e-01 -5.625968064031444671e-01 2.630418547397370688e+00 -5.625968064031444671e-01 -5.305357322917798601e-01 -1.836269539078815738e+00 2.630418547397370688e+00 -1.836269539078815738e+00 1.648279168824023477e+00
2.850234913385948365e-01 -5.933197420575203607e-01 2.717614542527094557e+00 -5.933197420575203607e-01 -3.375183013472194404e-01 -1.920735008438197111e+00 2.717614542527094557e+00 -1.920735008438197111e+00 1.958926203318739789e+00
-1.911233518656525376e+01 -6.916573304113896370e+00 1.916878887140136811e+01 -6.916573304113896370e+00 -4.655262377573545507e+01 -3.084235891631718740e+00 1.916878887140136811e+01 -3.084235891631718740e+00 -5.062365032995660385e+01
-1.907471838546859999e+01 -6.865113672124029343e+00 1.915118625927789964e+01 -6.865113672124029343e+00 -4.650522774568132434e+01 -3.246931879413700539e+00 1.915118625927789964e+01 -3.246931879413700539e+00 -5.051019228525570526e+01
-1.897779958042200832e+01 -6.808944819199298060e+00 1.911286687279983809e+01 -6.808944819199298060e+00 -4.638297788931573251e+01 -3.406836514464127941e+00 1.911286687279983809e+01 -3.406836514464127941e+00 -5.021334046721231914e+01
-1.882138888348454131e+01 -6.748256633280622196e+00 1.905364082402626025e+01 -6.748256633280622196e+00 -4.618536150919818795e+01 -3.564823281311243708e+00 1.905364082402626025e+01 -3.564823281311243708e+00 -4.973408229311924345e+01
-1.860647371194900757e+01 -6.683163047132556045e+00 1.897326125863397195e+01 -6.683163047132556045e+00 -4.591329006744512498e+01 -3.721214989454614042e+00 1.897326125863397195e+01 -3.721214989454614042e+00 -4.907473439585573516e+01
-1.833413642707865421e+01 -6.613872937490112847e+00 1.887136738953521586e+01 -6.613872937490112847e+00 -4.556780794773160892e+01 -3.876315459599715574e+00 1.887136738953521586e+01 -3.876315459599715574e+00 -4.823842992644700445e+01
-1.800629489707679909e+01 -6.540614169882400297e+00 1.874752247446587816e+01 -6.540614169882400297e+00 -4.515056717514367080e+01 -4.030390534863837360e+00 1.874752247446587816e+01 -4.030390534863837360e+00 -4.722959327391652806e+01
-1.762524676602859230e+01 -6.463614609838524316e+00 1.860132774875001971e+01 -6.463614609838524316e+00 -4.466371348341372283e+01 -4.183668080776087095e+00 1.860132774875001971e+01 -4.183668080776087095e+00 -4.605401602046243426e+01
-1.719290990213735171e+01 -6.383254033240327807e+00 1.843268826841718067e+01 -6.383254033240327807e+00 -4.410893687521596007e+01 -4.336186074924648359e+00 1.843268826841718067e+01 -4.336186074924648359e+00 -4.471887593025156349e+01
-1.671353779527973060e+01 -6.299855249587379191e+00 1.824067358255683757e+01 -6.299855249587379191e+00 -4.349047185163296803e+01 -4.488381259573642978e+00 1.824067358255683757e+01 -4.488381259573642978e+00 -4.323000256307023648e+01
1.717697256232954217e+01 -5.355465595842664683e+00 -2.045637456072419624e+01 -5.355465595842664683e+00 -5.135140849627756410e+00 3.022728712459203049e+00 -2.045637456072419624e+01 3.022728712459203049e+00 -9.029153785755003270e+00
1.730914579546598731e+01 -5.272843816012072971e+00 -2.033353162668350933e+01 -5.272843816012072971e+00 -4.851143116340439931e+00 2.986650355144907731e+00 -2.033353162668350933e+01 2.986650355144907731e+00 -8.492859721513450921e+00
1.745117168035027078e+01 -5.184061877319032341e+00 -2.016749553196400413e+01 -5.184061877319032341e+00 -4.536848929232531802e+00 2.940881455526522803e+00 -2.016749553196400413e+01 2.940881455526522803e+00 -7.920883567486767696e+00
1.760250985216989505e+01 -5.090038399944782910e+00 -1.995855447113233794e+01 -5.090038399944782910e+00 -4.193753297618604492e+00 2.885944366256127935e+00 -1.995855447113233794e+01 2.885944366256127935e+00 -7.317151974645753398e+00
1.776207958129987219e+01 -4.991728028391401395e+00 -1.970741091844475790e+01 -4.991728028391401395e+00 -3.824107741550721862e+00 2.822469512948301507e+00 -1.970741091844475790e+01 2.822469512948301507e+00 -6.685033216988299998e+00
1.792862001651104364e+01 -4.890193480123461001e+00 -1.941473132383667632e+01 -4.890193480123461001e+00 -3.430487999968447443e+00 2.751123345538454057e+00 -1.941473132383667632e+01 2.751123345538454057e+00 -6.028093702276877686e+00
1.810060012416800035e+01 -4.786497472605539372e+00 -1.908145231964975608e+01 -4.786497472605539372e+00 -3.015848067180090908e+00 2.672662374764080973e+00 -1.908145231964975608e+01 2.672662374764080973e+00 -5.350224057161455882e+00
1.827647085847493003e+01 -4.681720735462626237e+00 -1.870838445310273457e+01 -4.681720735462626237e+00 -2.583322059098127177e+00 2.587681001918925805e+00 -1.870838445310273457e+01 2.587681001918925805e+00 -4.655513042056584894e+00
1.845439497906934534e+01 -4.576943998319712215e+00 -1.829641032005602241e+01 -4.576943998319712215e+00 -2.136368310522528624e+00 2.496773628296735215e+00 -1.829641032005602241e+01 2.496773628296735215e+00 -3.948175502499731593e+00
1.863269735503250502e+01 -4.473193954320540122e+00 -1.784639450420961637e+01 -4.473193954320540122e+00 -1.678499192734517198e+00 2.400516643030836672e+00 -1.784639450420961637e+01 2.400516643030836672e+00 -3.232462308349195013e+00
7.346739852974392804e+00 3.577580566418352981e-01 1.438280609810718147e+01 3.577580566418352981e-01 -2.281341685310365008e+01 -1.372345994791273149e+01 1.438280609810718147e+01 -1.372345994791273149e+01 7.535988020348570515e+00
7.165047774638146905e+00 3.916603163734805326e-01 1.435445710863233160e+01 3.916603163734805326e-01 -2.283466493962719213e+01 -1.388621628504547800e+01 1.435445710863233160e+01 -1.388621628504547800e+01 7.262293730184183005e+00
6.971102086850024193e+00 4.269099269215284598e-01 1.430540625593789095e+01 4.269099269215284598e-01 -2.285079673453709503e+01 -1.402881698226258145e+01 1.430540625593789095e+01 -1.402881698226258145e+01 6.968662289425727963e+00
6.766104480878706973e+00 4.632883989644002165e-01 1.423601768889315267e+01 4.632883989644002165e-01 -2.286166657828563942e+01 -1.415124383212057602e+01 1.423601768889315267e+01 -1.415124383212057602e+01 6.656131522350706042e+00
6.551056366114763385e+00 5.004497910762626400e-01 1.414671017869781444e+01 5.004497910762626400e-01 -2.286798456116796174e+01 -1.425338758995866861e+01 1.414671017869781444e+01 -1.425338758995866861e+01 6.325721045793152086e+00
6.326667832853326345e+00 5.381391990486072974e-01 1.403797532632542655e+01 5.381391990486072974e-01 -2.287066105535729932e+01 -1.433492052179449239e+01 1.403797532632542655e+01 -1.433492052179449239e+01 5.977995290500476067e+00
6.093248407633297781e+00 5.761017186729254780e-01 1.391026831786261297e+01 5.761017186729254780e-01 -2.287087954467887840e+01 -1.439562413830647358e+01 1.391026831786261297e+01 -1.439562413830647358e+01 5.613190953237724656e+00
5.851289691428232409e+00 6.139914085233839636e-01 1.376397150962213445e+01 6.139914085233839636e-01 -2.286978709807098653e+01 -1.443522532784263213e+01 1.376397150962213445e+01 -1.443522532784263213e+01 5.231508315883009352e+00
5.601010173559706651e+00 6.516261941653337386e-01 1.359959471002101061e+01 6.516261941653337386e-01 -2.286858540680230334e+01 -1.445345097875099682e+01 1.359959471002101061e+01 -1.445345097875099682e+01 4.832874548662472236e+00
5.342610135905833779e+00 6.886601341729420289e-01 1.341748386048507413e+01 6.886601341729420289e-01 -2.286869465146309111e+01 -1.444993694216227098e+01 1.341748386048507413e+01 -1.444993694216227098e+01 4.417271444132646607e+00
-1.933859662745917518e+01 -1.127112076142119079e+01 1.115615155717045148e+01 -1.127112076142119079e+01 3.397213625700232775e+00 1.426914695254709819e+00 1.115615155717045148e+01 1.426914695254709819e+00 -2.001815655599317267e+01
-1.925756146836240745e+01 -1.128538661202828308e+01 1.122625383717552161e+01 -1.128538661202828308e+01 3.352767901151563645e+00 1.340458879187851338e+00 1.122625383717552161e+01 1.340458879187851338e+00 -1.998374637205128934e+01
-1.913601788623240552e+01 -1.129322458899854631e+01 1.128774899293754430e+01 -1.129322458899854631e+01 3.334180175392643442e+00 1.250120700696469633e+00 1.128774899293754430e+01 1.250120700696469633e+00 -1.986910680234602822e+01
-1.897392925500856009e+01 -1.129461637930167761e+01 1.134087509385047632e+01 -1.129461637930167761e+01 3.341981526302299166e+00 1.156083290083608217e+00 1.134087509385047632e+01 1.156083290083608217e+00 -1.967590433263508842e+01
-1.877232110438792034e+01 -1.128959860899828449e+01 1.138548563567188587e+01 -1.128959860899828449e+01 3.375640876001702484e+00 1.058731220985658528e+00 1.138548563567188587e+01 1.058731220985658528e+00 -1.940534762291855131e+01
-1.853253028558269833e+01 -1.127807971293684552e+01 1.142137917506842015e+01 -1.127807971293684552e+01 3.434498955399898801e+00 9.584124409784035015e-01 1.142137917506842015e+01 9.584124409784035015e-01 -1.905935954137837385e+01
-1.825596690192633531e+01 -1.126002306505675143e+01 1.144826270355521380e+01 -1.126002306505675143e+01 3.517603486921060174e+00 8.554932106679300485e-01 1.144826270355521380e+01 8.554932106679300485e-01 -1.863995452134804509e+01
-1.794440731735834760e+01 -1.123541035232769936e+01 1.146575164749587117e+01 -1.123541035232769936e+01 3.623727497534795727e+00 7.501932864178905147e-01 1.146575164749587117e+01 7.501932864178905147e-01 -1.815002602161564482e+01
-1.759970114793948071e+01 -1.120420494868907824e+01 1.147333324204187477e+01 -1.120420494868907824e+01 3.751552449059191385e+00 6.426957985313282995e-01 1.147333324204187477e+01 6.426957985313282995e-01 -1.759228437066621709e+01
-1.722351487942742665e+01 -1.116633360201967307e+01 1.147043978325378610e+01 -1.116633360201967307e+01 3.899796429372942796e+00 5.331838773112872465e-01 1.147043978325378610e+01 5.331838773112872465e-01 -1.696947652304541521e+01
3.324175116813961495e+01 -5.906860306095124358e+00 -6.040397187919980482e+00 -5.906860306095124358e+00 4.698696209341644447e+01 1.812843078661990148e+01 -6.040397187919980482e+00 1.812843078661990148e+01 2.792614013529179218e+01
3.348976797996466814e+01 -5.961836934115138931e+00 -6.022998864721944123e+00 -5.961836934115138931e+00 4.714634593800620621e+01 1.833048976358221083e+01 -6.022998864721944123e+00 1.833048976358221083e+01 2.842987947110308866e+01
3.370950171822945407e+01 -6.009470674986031824e+00 -5.982535237184899657e+00 -6.009470674986031824e+00 4.725695573454427745e+01 1.848128674955288275e+01 -5.982535237184899657e+00 1.848128674955288275e+01 2.882224880558911551e+01
3.389830894356028068e+01 -6.049433258458782880e+00 -5.918798976730520245e+00 -6.049433258458782880e+00 4.731664908772125244e+01 1.858061441595359753e+01 -5.918798976730520245e+00 1.858061441595359753e+01 2.909765026713501257e+01
3.405396087374014513e+01 -6.081327304758263885e+00 -5.831859192884916610e+00 -6.081327304758263885e+00 4.732421658083023175e+01 1.862800627348310556e+01 -5.831859192884916610e+00 1.862800627348310556e+01 2.925290481753973637e+01
3.417403867535519879e+01 -6.104738156727817611e+00 -5.721715885648086086e+00 -6.104738156727817611e+00 4.727837968763818566e+01 1.862320316141850540e+01 -5.721715885648086086e+00 1.862320316141850540e+01 2.928491980550991158e+01
3.425595074117634198e+01 -6.119441208407588206e+00 -5.588541828835303704e+00 -6.119441208407588206e+00 4.717775621762292815e+01 1.856603230594451759e+01 -5.588541828835303704e+00 1.856603230594451759e+01 2.919039525117380407e+01
3.429698452230378791e+01 -6.125211853837721598e+00 -5.432492518880315480e+00 -6.125211853837721598e+00 4.702098125764378977e+01 1.845644187491656396e+01 -5.432492518880315480e+00 1.845644187491656396e+01 2.896618667109343548e+01
3.429377092933970061e+01 -6.121929151347526243e+00 -5.253602510546175886e+00 -6.121929151347526243e+00 4.680618885049582190e+01 1.829422453975631058e+01 -5.253602510546175886e+00 1.829422453975631058e+01 2.860854487347737418e+01
3.424475499794662881e+01 -6.109472159266309710e+00 -5.052234628844959552e+00 -6.109472159266309710e+00 4.653289522949626189e+01 1.807963946118667664e+01 -5.052234628844959552e+00 1.807963946118667664e+01 2.811479186418888432e+01
-3.346054459476057730e+01 -3.733706373639376963e+00 -2.754424131891071603e+00 -3.733706373639376963e+00 -1.162346130466245420e+01 4.459739425293500759e+00 -2.754424131891071603e+00 4.459739425293500759e+00 -1.881097292154209200e+01
-3.338752125204224086e+01 -3.564223079608198397e+00 -2.692050413855252344e+00 -3.564223079608198397e+00 -1.156775986456908534e+01 4.346905443709633055e+00 -2.692050413855252344e+00 4.346905443709633055e+00 -1.864606171768874887e+01
-3.327269859708834332e+01 -3.392788283671846372e+00 -2.623766432906623258e+00 -3.392788283671846372e+00 -1.149189290478892644e+01 4.222046493243412968e+00 -2.623766432906623258e+00 4.222046493243412968e+00 -1.840297892323389561e+01
-3.311646693027991262e+01 -3.220517129776135246e+00 -2.549869560764067344e+00 -3.220517129776135246e+00 -1.139634365436516461e+01 4.084772273513807228e+00 -2.549869560764067344e+00 4.084772273513807228e+00 -1.808438229791505947e+01
-3.291977412397088898e+01 -3.048338904542574834e+00 -2.470434140357306241e+00 -3.048338904542574834e+00 -1.128189271405986815e+01 3.935008441591092421e+00 -2.470434140357306241e+00 3.935008441591092421e+00 -1.769239061522928580e+01
-3.268408845102326410e+01 -2.877443094846699356e+00 -2.385553100348490219e+00 -2.877443094846699356e+00 -1.114974815648100126e+01 3.772810754672559774e+00 -2.385553100348490219e+00 3.772810754672559774e+00 -1.722988466370325611e+01
-3.241080384136930803e+01 -2.708870501704601974e+00 -2.295226440737619722e+00 -2.708870501704601974e+00 -1.100102512557437784e+01 3.598197798490640587e+00 -2.295226440737619722e+00 3.598197798490640587e+00 -1.669996826065281326e+01
-3.210183462544932809e+01 -2.543624754667513255e+00 -2.199305475665253251e+00 -2.543624754667513255e+00 -1.083724765139927726e+01 3.411243915975055163e+00 -2.199305475665253251e+00 3.411243915975055163e+00 -1.610613552377484936e+01
-3.175911371943606554e+01 -2.382820997681247999e+00 -2.097585762074657634e+00 -2.382820997681247999e+00 -1.065982824962039643e+01 3.212004864323094289e+00 -2.097585762074657634e+00 3.212004864323094289e+00 -1.545212218528782522e+01
-3.138461121096712247e+01 -2.227425688832176398e+00 -1.989714171049659308e+00 -2.227425688832176398e+00 -1.047004933577541586e+01 3.000610743661769053e+00 -1.989714171049659308e+00 3.000610743661769053e+00 -1.474181266326966977e+01
-1.692603518723518974e+01 4.631167764019180844e+00 -1.738034483030546440e+01 4.631167764019180844e+00 1.675896377685707606e+01 1.295797989851091891e+01 -1.738034483030546440e+01 1.295797989851091891e+01 -2.907814872437037934e+01
-1.684929381655017266e+01 4.622679399732635197e+00 -1.733098116675066080e+01 4.622679399732635197e+00 1.663116471283474240e+01 1.283657443076450200e+01 -1.733098116675066080e+01 1.283657443076450200e+01 -2.915980824603687438e+01
-1.671878066180102351e+01 4.611986975191427085e+00 -1.725999585425136473e+01 4.611986975191427085e+00 1.653558864542806717e+01 1.269198079190912942e+01 -1.725999585425136473e+01 1.269198079190912942e+01 -2.913751262825418564e+01
-1.653434999999569754e+01 4.599236213387602135e+00 -1.716709744682350092e+01 4.599236213387602135e+00 1.647343778932142655e+01 1.252514618139308489e+01 -1.716709744682350092e+01 1.252514618139308489e+01 -2.901168082462444175e+01
-1.629702189207850793e+01 4.584827852549279825e+00 -1.705190342161294481e+01 4.584827852549279825e+00 1.644516752886494970e+01 1.233705422941266328e+01 -1.705190342161294481e+01 1.233705422941266328e+01 -2.878256785038371390e+01
-1.600856322932798292e+01 4.569053338660548746e+00 -1.691395839426956726e+01 4.569053338660548746e+00 1.645066857181459952e+01 1.212867035079015565e+01 -1.691395839426956726e+01 1.212867035079015565e+01 -2.845186773531451863e+01
-1.567106877975474788e+01 4.552276979201516305e+00 -1.675273411894720610e+01 4.552276979201516305e+00 1.648948553382023974e+01 1.190092352959984190e+01 -1.675273411894720610e+01 1.190092352959984190e+01 -2.802174810892350010e+01
-1.528703404959754941e+01 4.534844866278286979e+00 -1.656752019605964676e+01 4.534844866278286979e+00 1.656078050767762733e+01 1.165463345767196301e+01 -1.656752019605964676e+01 1.165463345767196301e+01 -2.749539666166160856e+01
-1.485922777570522335e+01 4.517066661248954951e+00 -1.635762444139468741e+01 4.517066661248954951e+00 1.666355164781645470e+01 1.139060161146276329e+01 -1.635762444139468741e+01 1.139060161146276329e+01 -2.687625609921589032e+01
-1.439083764852872349e+01 4.499233810097605257e+00 -1.612224537849608197e+01 4.499233810097605257e+00 1.679637815506429988e+01 1.110948374443643871e+01 -1.612224537849608197e+01 1.110948374443643871e+01 -2.616862524985162963e+01
1.161927539778652729e+01 1.341865286201057117e+01 -5.234217317707249961e+00 1.341865286201057117e+01 -1.128584038648028587e+00 -1.327086532365154170e+00 -5.234217317707249961e+00 -1.327086532365154170e+00 -2.299141256926652588e+01
1.179553924797764175e+01 1.338440896702011429e+01 -5.069560954624831695e+00 1.338440896702011429e+01 -1.092387482274798982e+00 -1.310633552195504370e+00 -5.069560954624831695e+00 -1.310633552195504370e+00 -2.271623195587963551e+01
1.200566730900145451e+01 1.334011248194797972e+01 -4.893712948987454681e+00 1.334011248194797972e+01 -1.008658085389471770e+00 -1.295699308656899307e+00 -4.893712948987454681e+00 -1.295699308656899307e+00 -2.234356291493807234e+01
1.224810468383094175e+01 1.328574532659618157e+01 -4.706420178023276613e+00 1.328574532659618157e+01 -8.780286549216482772e-01 -1.282229561155372899e+00 -4.706420178023276613e+00 -1.282229561155372899e+00 -2.187722036821743998e+01
1.252118799425115014e+01 1.322143406235063878e+01 -4.507718802128277247e+00 1.322143406235063878e+01 -7.016382433446123335e-01 -1.270188149294947833e+00 -4.507718802128277247e+00 -1.270188149294947833e+00 -2.132035027016775786e+01
1.282285609769137658e+01 1.314734141099324916e+01 -4.297608821302453030e+00 1.314734141099324916e+01 -4.809694268934309180e-01 -1.259394271095737983e+00 -4.297608821302453030e+00 -1.259394271095737983e+00 -2.067676754256462601e+01
1.315077664861108708e+01 1.306353969331596510e+01 -4.076035994951840991e+00 1.306353969331596510e+01 -2.178121451689783716e-01 -1.249721365171823084e+00 -4.076035994951840991e+00 -1.249721365171823084e+00 -1.995095607450922159e+01
1.350250882028181820e+01 1.297028203209063335e+01 -3.842964162680461371e+00 1.297028203209063335e+01 8.579053945603073994e-02 -1.240934388949350931e+00 -3.842964162680461371e+00 -1.240934388949350931e+00 -1.914752631648864067e+01
1.387550330478717520e+01 1.286773114909914639e+01 -3.598266763102396126e+00 1.286773114909914639e+01 4.277232438169271678e-01 -1.232852540448435175e+00 -3.598266763102396126e+00 -1.232852540448435175e+00 -1.827166728532563056e+01
1.426724695460673686e+01 1.275606784632139146e+01 -3.341835315029712650e+00 1.275606784632139146e+01 8.057801837590984340e-01 -1.225222696897234842e+00 -3.341835315029712650e+00 -1.225222696897234842e+00 -1.732791711071532603e+01
-3.184663331067677561e+01 7.561923784263708370e+00 1.309925253842108006e+01 7.561923784263708370e+00 -2.361158298885477791e+01 1.919813917019083505e+01 1.309925253842108006e+01 1.919813917019083505e+01 -3.042049805058463363e+01
-3.204230526682874824e+01 7.580309068734362832e+00 1.316947306880237178e+01 7.580309068734362832e+00 -2.345618981408902215e+01 1.923222698843897760e+01 1.316947306880237178e+01 1.923222698843897760e+01 -3.048983683773110798e+01
-3.218768033760743208e+01 7.591434041888545536e+00 1.322173980608323340e+01 7.591434041888545536e+00 -2.326158720611543984e+01 1.923072614889035492e+01 1.322173980608323340e+01 1.923072614889035492e+01 -3.044567463401281771e+01
-3.228110759950933328e+01 7.595392506198043847e+00 1.325665308608312110e+01 7.595392506198043847e+00 -2.302781268592274699e+01 1.919305507621986706e+01 1.325665308608312110e+01 1.919305507621986706e+01 -3.028810524190155462e+01
-3.232301854390468066e+01 7.592315785123362026e+00 1.327464440017226366e+01 7.592315785123362026e+00 -2.275668602146365060e+01 1.911850087164192402e+01 1.327464440017226366e+01 1.911850087164192402e+01 -3.001945496269769009e+01
-3.231361953623142114e+01 7.582316441630648995e+00 1.327616400021524612e+01 7.582316441630648995e+00 -2.244995193871342565e+01 1.900635063637092514e+01 1.327616400021524612e+01 1.900635063637092514e+01 -2.964176869028622363e+01
-3.225351091230899669e+01 7.565600841157838374e+00 1.326156833560486881e+01 7.565600841157838374e+00 -2.210967409205143852e+01 1.885587271112691710e+01 1.326156833560486881e+01 1.885587271112691710e+01 -2.915771041486596360e+01
-3.214349937339478913e+01 7.542356588648509330e+00 1.323128889771136052e+01 7.542356588648509330e+00 -2.173804745931754212e+01 1.866622287366379496e+01 1.323128889771136052e+01 1.866622287366379496e+01 -2.857030057602851869e+01
-3.198452294420668807e+01 7.512752528551882136e+00 1.318562585444444757e+01 7.512752528551882136e+00 -2.133719197637417864e+01 1.843661318321854026e+01 1.318562585444444757e+01 1.843661318321854026e+01 -2.788274721830907410e+01
-3.177765097292309804e+01 7.477070068283324211e+00 1.312489813420821072e+01 7.477070068283324211e+00 -2.090949022600478457e+01 1.816610561507324917e+01 1.312489813420821072e+01 1.816610561507324917e+01 -2.709818334426538300e+01
6.226699119561352092e+01 9.922773094725563237e-01 5.927466282127013208e+00 9.922773094725563237e-01 6.215121373153646545e+01 1.368893105057865434e+01 5.927466282127013208e+00 1.368893105057865434e+01 6.481863833733925162e+01
6.216795527735200011e+01 1.060707326388907301e+00 5.879681367437453510e+00 1.060707326388907301e+00 6.199135300109087154e+01 1.377051874470881820e+01 5.879681367437453510e+00 1.377051874470881820e+01 6.451429554265448019e+01
6.195983851333961212e+01 1.122036908798570432e+00 5.823685523744900117e+00 1.122036908798570432e+00 6.171830596039292516e+01 1.380719871443531233e+01 5.823685523744900117e+00 1.380719871443531233e+01 6.393317040760236836e+01
6.164334758189222185e+01 1.175744460801764868e+00 5.759562879420283998e+00 1.175744460801764868e+00 6.133363739714197038e+01 1.379930747324186058e+01 5.759562879420283998e+00 1.379930747324186058e+01 6.307795504005273557e+01
6.121976123424797578e+01 1.221224258127778350e+00 5.687935984408504453e+00 1.221224258127778350e+00 6.083971973139830425e+01 1.374704692921870119e+01 5.687935984408504453e+00 1.374704692921870119e+01 6.195292316124898235e+01
6.068988710276783394e+01 1.258156612967068044e+00 5.609461040002834409e+00 1.258156612967068044e+00 6.023847109001918199e+01 1.365078724719793968e+01 5.609461040002834409e+00 1.365078724719793968e+01 6.056224753838931463e+01
6.005887384375286331e+01 1.286507873971260763e+00 5.524996155586782365e+00 1.286507873971260763e+00 5.953620110082453465e+01 1.351106684875353814e+01 5.524996155586782365e+00 1.351106684875353814e+01 5.891874933520384161e+01
5.932973325288241995e+01 1.306294866814542877e+00 5.435719128353401430e+00 1.306294866814542877e+00 5.873674601752885138e+01 1.332891210001087323e+01 5.435719128353401430e+00 1.332891210001087323e+01 5.703178362654022493e+01
5.850752985808665585e+01 1.317652196890406469e+00 5.342891883866677460e+00 1.317652196890406469e+00 5.784614625716510261e+01 1.310561857788230355e+01 5.342891883866677460e+00 1.310561857788230355e+01 5.491462586933158718e+01
5.759870789257895751e+01 1.321034157401885789e+00 5.247860476061525503e+00 1.321034157401885789e+00 5.687153590558833116e+01 1.284300345517996433e+01 5.247860476061525503e+00 1.284300345517996433e+01 5.258411856343857949e+01
5.979723150906902873e+01 5.545772175110732505e+00 2.660777103875058103e+01 5.545772175110732505e+00 3.586552469839237034e+01 -2.049946130538618405e+01 2.660777103875058103e+01 -2.049946130538618405e+01 7.515520512489777616e+01
5.964742586685288472e+01 5.594361931504849395e+00 2.630558805673136646e+01 5.594361931504849395e+00 3.587860459075503172e+01 -2.033810857069362754e+01 2.630558805673136646e+01 -2.033810857069362754e+01 7.498101093338043199e+01
5.934742286689411372e+01 5.635236595138176874e+00 2.594146292819780797e+01 5.635236595138176874e+00 3.577871713150108945e+01 -2.012620750197452324e+01 2.594146292819780797e+01 -2.012620750197452324e+01 7.448114785936452620e+01
5.890083310448031995e+01 5.667851170495602275e+00 2.551834203515348776e+01 5.667851170495602275e+00 3.556618591171763910e+01 -1.986466074805077042e+01 2.551834203515348776e+01 -1.986466074805077042e+01 7.365888587594075432e+01
5.831216982372101398e+01 5.691694724281710194e+00 2.504015956397310205e+01 5.691694724281710194e+00 3.524176030023794937e+01 -1.955512032657755128e+01 2.504015956397310205e+01 -1.955512032657755128e+01 7.252136101813511004e+01
5.758788781524830824e+01 5.706341478750318608e+00 2.451197375428127856e+01 5.706341478750318608e+00 3.480700715916797350e+01 -1.919991949960394351e+01 2.451197375428127856e+01 -1.919991949960394351e+01 7.107914960516271208e+01
5.673638341621687431e+01 5.711587060583261710e+00 2.393959221453592434e+01 5.711587060583261710e+00 3.426478771496203990e+01 -1.880215792912212791e+01 2.393959221453592434e+01 -1.880215792912212791e+01 6.934655776929521664e+01
5.576639358597832796e+01 5.707278189791916034e+00 2.333025316642210001e+01 5.707278189791916034e+00 3.361758850965784973e+01 -1.836609339259391405e+01 2.333025316642210001e+01 -1.836609339259391405e+01 6.733985022043671620e+01
5.469293976341791819e+01 5.693534084145209562e+00 2.269088827164762634e+01 5.693534084145209562e+00 3.287406134705778982e+01 -1.789584741860233663e+01 2.269088827164762634e+01 -1.789584741860233663e+01 6.508602126769507379e+01
5.352922105866725389e+01 5.670661303620393667e+00 2.203006417846566123e+01 5.670661303620393667e+00 3.204052476891516932e+01 -1.739721058449543989e+01 2.203006417846566123e+01 -1.739721058449543989e+01 6.261117960246604497e+01
1.429577448268874917e+01 -1.386661363484376741e+00 -1.204064240812095044e+01 -1.386661363484376741e+00 4.319111615028037932e+01 -1.454240945951061192e+01 -1.204064240812095044e+01 -1.454240945951061192e+01 5.731400980226000996e+01
1.430778299234093964e+01 -1.326358138458173741e+00 -1.179136590674462326e+01 -1.326358138458173741e+00 4.324107919695195079e+01 -1.439484903193208609e+01 -1.179136590674462326e+01 -1.439484903193208609e+01 5.736936016874658861e+01
1.425663821100027384e+01 -1.267775380082574177e+00 -1.150788861376842043e+01 -1.267775380082574177e+00 4.316621282997417097e+01 -1.420738768082037140e+01 -1.150788861376842043e+01 -1.420738768082037140e+01 5.717124582716193970e+01
1.414171451443016103e+01 -1.211503955692128986e+00 -1.119062761201673339e+01 -1.211503955692128986e+00 4.296637802173891885e+01 -1.398089432872627746e+01 -1.119062761201673339e+01 -1.398089432872627746e+01 5.671931920848574293e+01
1.396233414304098019e+01 -1.158134732621388663e+00 -1.084027803953020452e+01 -1.158134732621388663e+00 4.264221777493380472e+01 -1.371688090088821532e+01 -1.084027803953020452e+01 -1.371688090088821532e+01 5.601533553627063355e+01
1.371778458034105697e+01 -1.108345470459984661e+00 -1.045777833266371282e+01 -1.108345470459984661e+00 4.219522663634620585e+01 -1.341720689156491808e+01 -1.045777833266371282e+01 -1.341720689156491808e+01 5.506264885156272015e+01
1.340742282364279880e+01 -1.062727036542467918e+00 -1.004418857692924405e+01 -1.062727036542467918e+00 4.162787234602042474e+01 -1.308402722868239287e+01 -1.004418857692924405e+01 -1.308402722868239287e+01 5.386642055431382659e+01
1.303081441167079824e+01 -1.021748649046275936e+00 -9.600690506995901430e+00 -1.021748649046275936e+00 4.094380437866986711e+01 -1.271982703073595466e+01 -9.600690506995901430e+00 -1.271982703073595466e+01 5.243381056634262904e+01
1.258788983062098943e+01 -9.858969045998617897e-01 -9.128830805004124471e+00 -9.858969045998617897e-01 4.014809724199126606e+01 -1.232750849904531165e+01 -9.128830805004124471e+00 -1.232750849904531165e+01 5.077420325119786071e+01
1.207804083470780654e+01 -9.555019937725335311e-01 -8.630938183390085783e+00 -9.555019937725335311e-01 3.924613825579963589e+01 -1.191054732381370229e+01 -8.630938183390085783e+00 -1.191054732381370229e+01 4.889778238117502696e+01