 vasp.6.1.1 19Jun20 (build Dec 21 2021 08:45:49) complex                        
  
 executed on             LinuxIFC date 2023.10.05  19:38:56
 running on   40 total cores
 distrk:  each k-point on   40 cores,    1 groups
 distr:  one band on NCORE=   1 cores,   40 groups


--------------------------------------------------------------------------------------------------------


 INCAR:
 POTCAR:   PAW_PBE Te 08Apr2002                   
 POTCAR:   PAW_PBE Mo 08Apr2002                   
 -----------------------------------------------------------------------------
|                                                                             |
|           W    W    AA    RRRRR   N    N  II  N    N   GGGG   !!!           |
|           W    W   A  A   R    R  NN   N  II  NN   N  G    G  !!!           |
|           W    W  A    A  R    R  N N  N  II  N N  N  G       !!!           |
|           W WW W  AAAAAA  RRRRR   N  N N  II  N  N N  G  GGG   !            |
|           WW  WW  A    A  R   R   N   NN  II  N   NN  G    G                |
|           W    W  A    A  R    R  N    N  II  N    N   GGGG   !!!           |
|                                                                             |
|     For optimal performance we recommend to set                             |
|       NCORE = 4 - approx SQRT(number of cores).                             |
|     NCORE specifies how many cores store one orbital (NPAR=cpu/NCORE).      |
|     This setting can greatly improve the performance of VASP for DFT.       |
|     The default, NCORE=1 might be grossly inefficient on modern             |
|     multi-core architectures or massively parallel machines. Do your        |
|     own testing!!!!                                                         |
|     Unfortunately you need to use the default for GW and RPA                |
|     calculations (for HF NCORE is supported but not extensively tested      |
|     yet).                                                                   |
|                                                                             |
 -----------------------------------------------------------------------------

 POTCAR:   PAW_PBE Te 08Apr2002                   
   VRHFIN =Te: s2p4                                                                                 
   LEXCH  = PE                                                                                      
   EATOM  =   223.2721 eV,   16.4100 Ry                                                             
                                                                                                    
   TITEL  = PAW_PBE Te 08Apr2002                                                                    
   LULTRA =        F    use ultrasoft PP ?                                                          
   IUNSCR =        1    unscreen: 0-lin 1-nonlin 2-no                                               
   RPACOR =    2.200    partial core radius                                                         
   POMASS =  127.600; ZVAL   =    6.000    mass and valenz                                          
   RCORE  =    2.300    outmost cutoff radius                                                       
   RWIGS  =    2.900; RWIGS  =    1.535    wigner-seitz radius (au A)                               
   ENMAX  =  174.982; ENMIN  =  131.236 eV                                                          
   ICORE  =        3    local potential                                                             
   LCOR   =        T    correct aug charges                                                         
   LPAW   =        T    paw PP                                                                      
   EAUG   =  368.792                                                                                
   DEXC   =    -.169                                                                                
   RMAX   =    3.486    core radius for proj-oper                                                   
   RAUG   =    1.300    factor for augmentation sphere                                              
   RDEP   =    2.397    radius for radial grids                                                     
   QCUT   =   -3.586; QGAM   =    7.172    optimization parameters                                  
                                                                                                    
   Description                                                                                      
     l     E      TYP  RCUT    TYP  RCUT                                                            
     0   .000     23  2.300                                                                         
     0   .000     23  2.300                                                                         
     1   .000     23  2.300                                                                         
     1   .000     23  2.300                                                                         
     2   .000     23  2.300                                                                         
     3  -.100     23  2.300                                                                         
  local pseudopotential read in
  partial core-charges read in
  atomic valenz-charges read in
  non local Contribution for L=           0  read in
    real space projection operators read in
  non local Contribution for L=           0  read in
    real space projection operators read in
  non local Contribution for L=           1  read in
    real space projection operators read in
  non local Contribution for L=           1  read in
    real space projection operators read in
  non local Contribution for L=           2  read in
    real space projection operators read in
    PAW grid and wavefunctions read in
 
   number of l-projection  operators is LMAX  =           5
   number of lm-projection operators is LMMAX =          13
 
 POTCAR:   PAW_PBE Mo 08Apr2002                   
   VRHFIN =Mo: 4p5s4d                                                                               
   LEXCH  = PE                                                                                      
   EATOM  =   217.5180 eV,   15.9871 Ry                                                             
                                                                                                    
   TITEL  = PAW_PBE Mo 08Apr2002                                                                    
   LULTRA =        F    use ultrasoft PP ?                                                          
   IUNSCR =        1    unscreen: 0-lin 1-nonlin 2-no                                               
   RPACOR =    2.200    partial core radius                                                         
   POMASS =   95.940; ZVAL   =    6.000    mass and valenz                                          
   RCORE  =    2.750    outmost cutoff radius                                                       
   RWIGS  =    2.750; RWIGS  =    1.455    wigner-seitz radius (au A)                               
   ENMAX  =  224.584; ENMIN  =  168.438 eV                                                          
   RCLOC  =    2.111    cutoff for local pot                                                        
   LCOR   =        T    correct aug charges                                                         
   LPAW   =        T    paw PP                                                                      
   EAUG   =  345.278                                                                                
   DEXC   =    -.088                                                                                
   RMAX   =    3.077    core radius for proj-oper                                                   
   RAUG   =    1.300    factor for augmentation sphere                                              
   RDEP   =    2.815    radius for radial grids                                                     
   QCUT   =   -4.063; QGAM   =    8.126    optimization parameters                                  
                                                                                                    
   Description                                                                                      
     l     E      TYP  RCUT    TYP  RCUT                                                            
     2   .000     23  2.500                                                                         
     2   .000     23  2.500                                                                         
     0   .000     23  2.600                                                                         
     0  1.000     23  2.600                                                                         
     1   .400     23  2.750                                                                         
     1  2.000     23  2.750                                                                         
     3   .000      7   .000                                                                         
  local pseudopotential read in
  partial core-charges read in
  atomic valenz-charges read in
  non local Contribution for L=           2  read in
    real space projection operators read in
  non local Contribution for L=           2  read in
    real space projection operators read in
  non local Contribution for L=           0  read in
    real space projection operators read in
  non local Contribution for L=           0  read in
    real space projection operators read in
  non local Contribution for L=           1  read in
    real space projection operators read in
  non local Contribution for L=           1  read in
    real space projection operators read in
    PAW grid and wavefunctions read in
 
   number of l-projection  operators is LMAX  =           6
   number of lm-projection operators is LMMAX =          18
 
 -----------------------------------------------------------------------------
|                                                                             |
|               ----> ADVICE to this user running VASP <----                  |
|                                                                             |
|     You have a (more or less) 'large supercell' and for larger cells it     |
|     might be more efficient to use real-space projection operators.         |
|     Therefore, try LREAL= Auto in the INCAR file.                           |
|     Mind: If you want to do very accurate calculations, keep the            |
|     reciprocal projection scheme (i.e. LREAL=.FALSE.).                      |
|                                                                             |
 -----------------------------------------------------------------------------

 PAW_PBE Te 08Apr2002                   :
 energy of atom  1       EATOM= -223.2721
 kinetic energy error for atom=    0.0006 (will be added to EATOM!!)
 PAW_PBE Mo 08Apr2002                   :
 energy of atom  2       EATOM= -217.5180
 kinetic energy error for atom=    0.0009 (will be added to EATOM!!)
 
 
 POSCAR: Te Mo
  positions in cartesian coordinates
  No initial velocities read in
 exchange correlation table for  LEXCH =        8
   RHO(1)=    0.500       N(1)  =     2000
   RHO(2)=  100.500       N(2)  =     4000
 


--------------------------------------------------------------------------------------------------------


 ion  position               nearest neighbor table
   1  0.222  0.110  0.683-  40 2.69  41 2.72  37 2.74   3 3.41   2 3.43   4 3.48   9 3.49   7 3.49
                             5 3.50  19 3.67
   2  0.223  0.445  0.683-  42 2.70  41 2.70  38 2.75   3 3.41   1 3.43   5 3.48   6 3.48   8 3.49
                             7 3.50  20 3.68
   3  0.222  0.778  0.683-  42 2.70  40 2.71  39 2.74   1 3.41   2 3.41   9 3.48   6 3.48   8 3.49
                             4 3.49  21 3.67
   4  0.556  0.111  0.683-  43 2.70  44 2.70  40 2.74   6 3.42   5 3.42   1 3.48   7 3.48   8 3.48
                             3 3.49  22 3.67
   5  0.556  0.445  0.683-  45 2.69  44 2.70  41 2.74   6 3.41   4 3.42   2 3.48   9 3.48   8 3.48
                             1 3.50  23 3.67
   6  0.556  0.778  0.683-  45 2.70  43 2.71  42 2.75   5 3.41   4 3.42   9 3.48   2 3.48   7 3.48
                             3 3.48  24 3.68
   7  0.889  0.111  0.683-  37 2.70  38 2.71  43 2.73   9 3.41   8 3.42   4 3.48   6 3.48   1 3.49
                             2 3.50  25 3.67
   8  0.889  0.444  0.683-  38 2.70  39 2.71  44 2.74   9 3.42   7 3.42   5 3.48   4 3.48   2 3.49
                             3 3.49  26 3.67
   9  0.889  0.777  0.683-  39 2.69  37 2.70  45 2.74   7 3.41   8 3.42   5 3.48   6 3.48   3 3.48
                             1 3.49  27 3.68
  10  0.222  0.000  0.438-  51 2.70  49 2.70  48 2.74  11 3.42  12 3.42  13 3.48  16 3.48  14 3.48
                            18 3.49  28 3.68
  11  0.222  0.333  0.438-  49 2.70  50 2.70  46 2.74  12 3.41  10 3.42  17 3.48  16 3.48  14 3.49
                            15 3.49  29 3.67
  12  0.223  0.667  0.438-  50 2.69  51 2.70  47 2.75  11 3.41  10 3.42  15 3.48  13 3.48  18 3.49
                            17 3.49  30 3.67
  13  0.556  1.000  0.438-  54 2.70  52 2.70  51 2.74  14 3.41  15 3.42  16 3.48  10 3.48  12 3.48
                            17 3.49  31 3.68
  14  0.556  0.333  0.438-  52 2.69  53 2.71  49 2.74  13 3.41  15 3.42  17 3.48  18 3.48  10 3.48
                            11 3.49  32 3.67
  15  0.556  0.667  0.438-  53 2.69  54 2.71  50 2.74  13 3.42  14 3.42  12 3.48  18 3.48  11 3.49
                            16 3.49  33 3.67
  16  0.889  0.001  0.438-  46 2.70  48 2.70  54 2.74  17 3.41  18 3.43  13 3.48  11 3.48  10 3.48
                            15 3.49  34 3.67
  17  0.889  0.333  0.438-  46 2.70  47 2.71  52 2.74  18 3.41  16 3.41  11 3.48  14 3.48  13 3.49
                            12 3.49  35 3.68
  18  0.888  0.666  0.438-  47 2.70  48 2.72  53 2.73  17 3.41  16 3.43  15 3.48  14 3.48  12 3.49
                            10 3.49  36 3.67
  19  0.223  0.112  0.562-  41 2.70  40 2.71  37 2.73  20 3.41  21 3.42  22 3.47  23 3.48  25 3.48
                            27 3.49   1 3.67
  20  0.222  0.444  0.562-  42 2.70  41 2.70  38 2.73  19 3.41  21 3.42  26 3.48  23 3.48  25 3.48
                            24 3.49   2 3.68
  21  0.223  0.778  0.562-  42 2.70  40 2.71  39 2.73  20 3.42  19 3.42  22 3.48  27 3.48  24 3.48
                            26 3.49   3 3.67
  22  0.555  0.111  0.562-  44 2.71  43 2.71  40 2.72  23 3.41  24 3.42  19 3.47  21 3.48  25 3.49
                            26 3.50   4 3.67
  23  0.555  0.444  0.562-  45 2.71  44 2.71  41 2.72  22 3.41  24 3.42  19 3.48  20 3.48  26 3.49
                            27 3.50   5 3.67
  24  0.556  0.778  0.562-  45 2.71  43 2.71  42 2.74  23 3.42  22 3.42  27 3.48  25 3.48  21 3.48
                            20 3.49   6 3.68
  25  0.889  0.111  0.562-  37 2.70  38 2.71  43 2.73  26 3.42  27 3.42  19 3.48  20 3.48  24 3.48
                            22 3.49   7 3.67
  26  0.889  0.445  0.562-  38 2.70  39 2.71  44 2.73  27 3.42  25 3.42  20 3.48  21 3.49  23 3.49
                            22 3.50   8 3.67
  27  0.890  0.778  0.562-  37 2.70  39 2.71  45 2.74  26 3.42  25 3.42  21 3.48  24 3.48  19 3.49
                            23 3.50   9 3.68
  28  0.222  0.999  0.317-  51 2.71  49 2.71  48 2.72  30 3.41  29 3.42  36 3.49  31 3.49  34 3.49
                            32 3.49  10 3.68
  29  0.222  0.333  0.317-  49 2.70  50 2.71  46 2.73  28 3.42  30 3.42  32 3.48  35 3.48  34 3.49
                            33 3.50  11 3.67
  30  0.222  0.667  0.317-  50 2.71  51 2.71  47 2.73  28 3.41  29 3.42  36 3.48  33 3.48  35 3.49
                            31 3.50  12 3.67
  31  0.556  0.000  0.317-  54 2.71  52 2.71  51 2.74  33 3.41  32 3.42  35 3.47  34 3.47  28 3.49
                            30 3.50  13 3.68
  32  0.556  0.333  0.317-  52 2.71  53 2.71  49 2.73  31 3.42  33 3.42  29 3.48  35 3.48  36 3.48
                            28 3.49  14 3.67
  33  0.556  0.668  0.317-  54 2.70  53 2.71  50 2.73  31 3.41  32 3.42  34 3.48  36 3.48  30 3.48
                            29 3.50  15 3.67
  34  0.889  1.000  0.317-  48 2.70  46 2.71  54 2.72  35 3.41  36 3.42  31 3.47  33 3.48  29 3.49
                            28 3.49  16 3.67
  35  0.889  0.332  0.317-  46 2.71  47 2.71  52 2.73  34 3.41  36 3.42  31 3.47  29 3.48  32 3.48
                            30 3.49  17 3.68
  36  0.889  0.666  0.317-  47 2.70  48 2.71  53 2.73  34 3.42  35 3.42  30 3.48  33 3.48  32 3.48
                            28 3.49  18 3.67
  37  1.000  1.000  0.622-   7 2.70  27 2.70   9 2.70  25 2.70  19 2.73   1 2.74  39 3.41  38 3.42
                            43 3.48  40 3.49  45 3.49
  38  0.000  0.333  0.622-   8 2.70  26 2.70  25 2.71   7 2.71  20 2.73   2 2.75  37 3.42  39 3.42
                            42 3.48  44 3.48  41 3.48  43 3.49
  39  0.000  0.668  0.622-   9 2.69  27 2.71   8 2.71  26 2.71  21 2.73   3 2.74  37 3.41  38 3.42
                            45 3.48  42 3.48  40 3.49
  40  0.334  0.001  0.622-   1 2.69  19 2.71  21 2.71   3 2.71  22 2.72   4 2.74  41 3.41  42 3.43
                            44 3.48  43 3.48  37 3.49  39 3.49
  41  0.334  0.334  0.622-  19 2.70  20 2.70   2 2.70   1 2.72  23 2.72   5 2.74  42 3.41  40 3.41
                            45 3.48  44 3.48  38 3.48
  42  0.333  0.666  0.622-   2 2.70   3 2.70  20 2.70  21 2.70  24 2.74   6 2.75  41 3.41  40 3.43
                            38 3.48  39 3.48  45 3.48
  43  0.667  0.000  0.622-   4 2.70   6 2.71  24 2.71  22 2.71  25 2.73   7 2.73  44 3.42  45 3.42
                            37 3.48  40 3.48  38 3.49
  44  0.667  0.333  0.622-   5 2.70   4 2.70  22 2.71  23 2.71  26 2.73   8 2.74  45 3.41  43 3.42
                            40 3.48  41 3.48  38 3.48
  45  0.666  0.666  0.622-   5 2.69   6 2.70  23 2.71  24 2.71   9 2.74  27 2.74  44 3.41  43 3.42
                            41 3.48  39 3.48  42 3.48  37 3.49
  46  0.000  0.222  0.378-  16 2.70  17 2.70  34 2.71  35 2.71  29 2.73  11 2.74  48 3.41  47 3.42
                            49 3.48  54 3.48  52 3.49  50 3.49
  47  0.999  0.555  0.378-  18 2.70  36 2.70  17 2.71  35 2.71  30 2.73  12 2.75  46 3.42  48 3.42
                            53 3.48  52 3.48  50 3.49  51 3.49
  48  0.000  0.890  0.377-  34 2.70  16 2.70  36 2.71  18 2.72  28 2.72  10 2.74  46 3.41  47 3.42
                            51 3.48  54 3.48  49 3.48  53 3.49
  49  0.333  0.222  0.378-  11 2.70  29 2.70  10 2.70  28 2.71  32 2.73  14 2.74  51 3.41  50 3.42
                            52 3.48  48 3.48  46 3.48  53 3.49
  50  0.333  0.556  0.378-  12 2.69  11 2.70  29 2.71  30 2.71  33 2.73  15 2.74  51 3.42  49 3.42
                            53 3.48  47 3.49  46 3.49  54 3.49
  51  0.333  0.889  0.378-  10 2.70  12 2.70  28 2.71  30 2.71  13 2.74  31 2.74  49 3.41  50 3.42
                            48 3.48  54 3.48  52 3.49  47 3.49
  52  0.667  0.223  0.378-  14 2.69  13 2.70  32 2.71  31 2.71  35 2.73  17 2.74  53 3.41  54 3.42
                            49 3.48  47 3.48  46 3.49  51 3.49
  53  0.667  0.556  0.378-  15 2.69  14 2.71  33 2.71  32 2.71  36 2.73  18 2.73  52 3.41  54 3.41
                            47 3.48  50 3.48  49 3.49  48 3.49
  54  0.667  0.889  0.378-  13 2.70  33 2.70  15 2.71  31 2.71  34 2.72  16 2.74  53 3.41  52 3.42
                            48 3.48  51 3.48  46 3.48  50 3.49
 

IMPORTANT INFORMATION: All symmetrisations will be switched off!
NOSYMM: (Re-)initialisation of all symmetry stuff for point group C_1.


----------------------------------------------------------------------------------------

                                     Primitive cell                                     

  volume of cell :    2837.4085

  direct lattice vectors                    reciprocal lattice vectors
    10.445689307  0.000000000  0.000000000     0.095733271  0.053687297 -0.000442223
    -5.012405034  8.937941581  0.000000000     0.000000000  0.111882584 -0.000104286
     0.124500306  0.028327683 30.391158336     0.000000000  0.000000000  0.032904307

  length of vectors
    10.445689307 10.247487688 30.391426551     0.109760560  0.111882633  0.032904307

  position of ions in fractional coordinates (direct lattice)
     0.222215534  0.110199972  0.682742239
     0.223107162  0.445165779  0.682838891
     0.222222840  0.777779758  0.682785652
     0.555721493  0.111201967  0.682789288
     0.555991814  0.445116547  0.682561393
     0.555723115  0.777802652  0.682833803
     0.888804349  0.110796358  0.682720522
     0.888985368  0.444268597  0.682682586
     0.888593278  0.777442932  0.682696234
     0.222235545  0.000021533  0.438103029
     0.221953824  0.333248026  0.438083788
     0.222858397  0.666760027  0.437957771
     0.555504898  0.999987119  0.438094067
     0.555551945  0.332923229  0.438115700
     0.555566523  0.666599528  0.438085829
     0.889011525  0.000571592  0.438005433
     0.888893847  0.333355315  0.438117062
     0.888247015  0.665755725  0.438130416
     0.222737082  0.111772554  0.561857522
     0.222211914  0.444452408  0.561889510
     0.222717306  0.778017384  0.562048813
     0.554796311  0.110943441  0.561980231
     0.555292510  0.444098727  0.561875772
     0.556287119  0.777907623  0.561682531
     0.889169542  0.111273324  0.561929862
     0.889401008  0.444728312  0.562017159
     0.889617190  0.778129786  0.561731259
     0.222213238  0.999278892  0.317115646
     0.222130553  0.332824941  0.317304951
     0.221729374  0.666609695  0.317041052
     0.556442009  0.000416344  0.317081978
     0.555616687  0.333288070  0.317239024
     0.555810188  0.667565738  0.317311439
     0.888732248  0.999864267  0.317315684
     0.888586788  0.332441619  0.317105496
     0.888706089  0.666349203  0.317231856
     0.999680062  0.999644955  0.622248857
     0.000033030  0.333469634  0.622302368
     0.000170327  0.667579934  0.622453450
     0.334030762  0.001094460  0.622372072
     0.333753711  0.333878072  0.622082924
     0.332633255  0.665966623  0.622290408
     0.667006266  0.000075946  0.622379411
     0.666654762  0.333305228  0.622369253
     0.666339466  0.666259832  0.622337279
     0.000001162  0.222219527  0.377649871
     0.999366827  0.555413144  0.377560024
     0.000376564  0.889645169  0.377453746
     0.333480216  0.222287496  0.377657334
     0.333199741  0.555614453  0.377676099
     0.333264749  0.888999566  0.377737214
     0.666596020  0.222799688  0.377836287
     0.666674633  0.555888640  0.377787088
     0.666813048  0.889080528  0.377694381

  ion indices of the primitive-cell ions
   primitive index   ion index
                 1           1
                 2           2
                 3           3
                 4           4
                 5           5
                 6           6
                 7           7
                 8           8
                 9           9
                10          10
                11          11
                12          12
                13          13
                14          14
                15          15
                16          16
                17          17
                18          18
                19          19
                20          20
                21          21
                22          22
                23          23
                24          24
                25          25
                26          26
                27          27
                28          28
                29          29
                30          30
                31          31
                32          32
                33          33
                34          34
                35          35
                36          36
                37          37
                38          38
                39          39
                40          40
                41          41
                42          42
                43          43
                44          44
                45          45
                46          46
                47          47
                48          48
                49          49
                50          50
                51          51
                52          52
                53          53
                54          54

----------------------------------------------------------------------------------------

 
 

Automatic generation of k-mesh.
 generate k-points for:    3    3    1
Space group operators:
 irot       det(A)        alpha          n_x          n_y          n_z        tau_x        tau_y        tau_z
    1     1.000000     0.000000     1.000000     0.000000     0.000000     0.000000     0.000000     0.000000
 
 Subroutine IBZKPT returns following result:
 ===========================================
 
 Found      5 irreducible k-points:
 
 Following reciprocal coordinates:
            Coordinates               Weight
  0.000000  0.000000  0.000000      1.000000
  0.333333 -0.000000  0.000000      2.000000
  0.000000  0.333333 -0.000000      2.000000
  0.333333  0.333333  0.000000      2.000000
 -0.333333  0.333333 -0.000000      2.000000
 
 Following cartesian coordinates:
            Coordinates               Weight
  0.000000  0.000000  0.000000      1.000000
  0.031911  0.017896 -0.000147      2.000000
  0.000000  0.037294 -0.000035      2.000000
  0.031911  0.055190 -0.000182      2.000000
 -0.031911  0.019398  0.000113      2.000000
 


--------------------------------------------------------------------------------------------------------




 Dimension of arrays:
   k-points           NKPTS =      5   k-points in BZ     NKDIM =      5   number of bands    NBANDS=    200
   number of dos      NEDOS =    301   number of ions     NIONS =     54
   non local maximal  LDIM  =      6   non local SUM 2l+1 LMDIM =     18
   total plane-waves  NPLWV = ******
   max r-space proj   IRMAX =      1   max aug-charges    IRDMAX=  34952
   dimension x,y,z NGX =    80 NGY =   80 NGZ =  240
   dimension x,y,z NGXF=   160 NGYF=  160 NGZF=  480
   support grid    NGXF=   160 NGYF=  160 NGZF=  480
   ions per type =              36  18
   NGX,Y,Z   is equivalent  to a cutoff of  12.73, 12.98, 13.13 a.u.
   NGXF,Y,Z  is equivalent  to a cutoff of  25.46, 25.96, 26.26 a.u.

 SYSTEM =  dpgen_md                                
 POSCAR =  Te Mo                                   

 Startparameter for this run:
   NWRITE =      2    write-flag & timer
   PREC   = a         normal or accurate (medium, high low for compatibility)
   ISTART =      0    job   : 0-new  1-cont  2-samecut
   ICHARG =      2    charge: 1-file 2-atom 10-const
   ISPIN  =      1    spin polarized calculation?
   LNONCOLLINEAR =      F non collinear calculations
   LSORBIT =      F    spin-orbit coupling
   INIWAV =      1    electr: 0-lowe 1-rand  2-diag
   LASPH  =      F    aspherical Exc in radial PAW
   METAGGA=      F    non-selfconsistent MetaGGA calc.

 Electronic Relaxation 1
   ENCUT  =  550.0 eV  40.42 Ry    6.36 a.u.  19.97 19.60 58.12*2*pi/ulx,y,z
   ENINI  =  550.0     initial cutoff
   ENAUG  =  368.8 eV  augmentation charge cutoff
   NELM   =    100;   NELMIN=  6; NELMDL= -5     # of ELM steps 
   EDIFF  = 0.1E-05   stopping-criterion for ELM
   LREAL  =      F    real-space projection
   NLSPLINE    = F    spline interpolate recip. space projectors
   LCOMPAT=      F    compatible to vasp.4.4
   GGA_COMPAT  = T    GGA compatible to vasp.4.4-vasp.4.6
   LMAXPAW     = -100 max onsite density
   LMAXMIX     =    2 max onsite mixed and CHGCAR
   VOSKOWN=      0    Vosko Wilk Nusair interpolation
   ROPT   =    0.00000   0.00000
 Ionic relaxation
   EDIFFG = 0.1E-04   stopping-criterion for IOM
   NSW    =     10    number of steps for IOM
   NBLOCK =      1;   KBLOCK =      1    inner block; outer block 
   IBRION =      0    ionic relax: 0-MD 1-quasi-New 2-CG
   NFREE  =      0    steps in history (QN), initial steepest desc. (CG)
   ISIF   =      2    stress and relaxation
   IWAVPR =     11    prediction:  0-non 1-charg 2-wave 3-comb
   ISYM   =      0    0-nonsym 1-usesym 2-fastsym
   LCORR  =      T    Harris-Foulkes like correction to forces

   POTIM  = 2.0000    time-step for ionic-motion
   TEIN   =  100.0    initial temperature
   TEBEG  =  100.0;   TEEND  = 100.0 temperature during run
   SMASS  =   0.04    Nose mass-parameter (am)
   estimated Nose-frequenzy (Omega)   =  0.79E+14 period in steps = 0.40E+02 mass=   0.327E-28a.u.
   SCALEE = 1.0000    scale energy and forces
   NPACO  =    256;   APACO  = 16.0  distance and # of slots for P.C.
   PSTRESS=    0.0 pullay stress

  Mass of Ions in am
   POMASS = 127.60 95.94
  Ionic Valenz
   ZVAL   =   6.00  6.00
  Atomic Wigner-Seitz radii
   RWIGS  =  -1.00 -1.00
  virtual crystal weights 
   VCA    =   1.00  1.00
   NELECT =     324.0000    total number of electrons
   NUPDOWN=      -1.0000    fix difference up-down

 DOS related values:
   EMIN   =  10.00;   EMAX   =-10.00  energy-range for DOS
   EFERMI =   0.00
   ISMEAR =     0;   SIGMA  =   0.10  broadening in eV -4-tet -1-fermi 0-gaus

 Electronic relaxation 2 (details)
   IALGO  =     68    algorithm
   LDIAG  =      T    sub-space diagonalisation (order eigenvalues)
   LSUBROT=      F    optimize rotation matrix (better conditioning)
   TURBO    =      0    0=normal 1=particle mesh
   IRESTART =      0    0=no restart 2=restart with 2 vectors
   NREBOOT  =      0    no. of reboots
   NMIN     =      0    reboot dimension
   EREF     =   0.00    reference energy to select bands
   IMIX   =      4    mixing-type and parameters
     AMIX     =   0.40;   BMIX     =  1.00
     AMIX_MAG =   1.60;   BMIX_MAG =  1.00
     AMIN     =   0.10
     WC   =   100.;   INIMIX=   1;  MIXPRE=   1;  MAXMIX= -45

 Intra band minimization:
   WEIMIN = 0.0010     energy-eigenvalue tresh-hold
   EBREAK =  0.13E-08  absolut break condition
   DEPER  =   0.30     relativ break condition  

   TIME   =   0.40     timestep for ELM

  volume/ion in A,a.u.               =      52.54       354.59
  Fermi-wavevector in a.u.,A,eV,Ry     =   0.794235  1.500887  8.582688  0.630810
  Thomas-Fermi vector in A             =   1.900328
 
 Write flags
   LWAVE        =      F    write WAVECAR
   LDOWNSAMPLE  =      F    k-point downsampling of WAVECAR
   LCHARG       =      F    write CHGCAR
   LVTOT        =      F    write LOCPOT, total local potential
   LVHAR        =      F    write LOCPOT, Hartree potential only
   LELF         =      F    write electronic localiz. function (ELF)
   LORBIT       =      0    0 simple, 1 ext, 2 COOP (PROOUT), +10 PAW based schemes


 Dipole corrections
   LMONO  =      F    monopole corrections only (constant potential shift)
   LDIPOL =      F    correct potential (dipole corrections)
   IDIPOL =      0    1-x, 2-y, 3-z, 4-all directions 
   EPSILON=  1.0000000 bulk dielectric constant

 Exchange correlation treatment:
   GGA     =    --    GGA type
   LEXCH   =     8    internal setting for exchange type
   VOSKOWN=      0    Vosko Wilk Nusair interpolation
   LHFCALC =     F    Hartree Fock is set to
   LHFONE  =     F    Hartree Fock one center treatment
   AEXX    =    0.0000 exact exchange contribution

 Linear response parameters
   LEPSILON=     F    determine dielectric tensor
   LRPA    =     F    only Hartree local field effects (RPA)
   LNABLA  =     F    use nabla operator in PAW spheres
   LVEL    =     F    velocity operator in full k-point grid
   LINTERFAST=   F  fast interpolation
   KINTER  =     0    interpolate to denser k-point grid
   CSHIFT  =0.1000    complex shift for real part using Kramers Kronig
   OMEGAMAX=  -1.0    maximum frequency
   DEG_THRESHOLD= 0.2000000E-02 threshold for treating states as degnerate
   RTIME   =   -0.100 relaxation time in fs
  (WPLASMAI=    0.000 imaginary part of plasma frequency in eV, 0.658/RTIME)
   DFIELD  = 0.0000000 0.0000000 0.0000000 field for delta impulse in time
 
 Orbital magnetization related:
   ORBITALMAG=     F  switch on orbital magnetization
   LCHIMAG   =     F  perturbation theory with respect to B field
   DQ        =  0.001000  dq finite difference perturbation B field
   LLRAUG    =     F  two centre corrections for induced B field



--------------------------------------------------------------------------------------------------------


 molecular dynamics for ions
   using nose mass (canonical ensemble)
 charge density and potential will be updated during run
 non-spin polarized calculation
 RMM-DIIS sequential band-by-band and
  variant of blocked Davidson during initial phase
 perform sub-space diagonalisation
    before iterative eigenvector-optimisation
 modified Broyden-mixing scheme, WC =      100.0
 initial mixing is a Kerker type mixing with AMIX =  0.4000 and BMIX =      1.0000
 Hartree-type preconditioning will be used
 using additional bands           38
 reciprocal scheme for non local part
 use partial core corrections
 calculate Harris-corrections to forces 
   (improved forces if not selfconsistent)
 use gradient corrections 
 use of overlap-Matrix (Vanderbilt PP)
 Gauss-broadening in eV      SIGMA  =   0.10


--------------------------------------------------------------------------------------------------------


  energy-cutoff  :      550.00
  volume of cell :     2837.41
      direct lattice vectors                 reciprocal lattice vectors
    10.445689307  0.000000000  0.000000000     0.095733271  0.053687297 -0.000442223
    -5.012405034  8.937941581  0.000000000     0.000000000  0.111882584 -0.000104286
     0.124500306  0.028327683 30.391158336     0.000000000  0.000000000  0.032904307

  length of vectors
    10.445689307 10.247487688 30.391426551     0.109760560  0.111882633  0.032904307


 
 k-points in units of 2pi/SCALE and weight: read from INCAR                         
   0.00000000  0.00000000  0.00000000       0.111
   0.03191109  0.01789577 -0.00014741       0.222
   0.00000000  0.03729419 -0.00003476       0.222
   0.03191109  0.05518996 -0.00018217       0.222
  -0.03191109  0.01939843  0.00011265       0.222
 
 k-points in reciprocal lattice and weights: read from INCAR                         
   0.00000000  0.00000000  0.00000000       0.111
   0.33333333 -0.00000000  0.00000000       0.222
   0.00000000  0.33333333 -0.00000000       0.222
   0.33333333  0.33333333  0.00000000       0.222
  -0.33333333  0.33333333 -0.00000000       0.222
 
 position of ions in fractional coordinates (direct lattice) 
   0.22221553  0.11019997  0.68274224
   0.22310716  0.44516578  0.68283889
   0.22222284  0.77777976  0.68278565
   0.55572149  0.11120197  0.68278929
   0.55599181  0.44511655  0.68256139
   0.55572312  0.77780265  0.68283380
   0.88880435  0.11079636  0.68272052
   0.88898537  0.44426860  0.68268259
   0.88859328  0.77744293  0.68269623
   0.22223554  0.00002153  0.43810303
   0.22195382  0.33324803  0.43808379
   0.22285840  0.66676003  0.43795777
   0.55550490  0.99998712  0.43809407
   0.55555195  0.33292323  0.43811570
   0.55556652  0.66659953  0.43808583
   0.88901153  0.00057159  0.43800543
   0.88889385  0.33335532  0.43811706
   0.88824702  0.66575573  0.43813042
   0.22273708  0.11177255  0.56185752
   0.22221191  0.44445241  0.56188951
   0.22271731  0.77801738  0.56204881
   0.55479631  0.11094344  0.56198023
   0.55529251  0.44409873  0.56187577
   0.55628712  0.77790762  0.56168253
   0.88916954  0.11127332  0.56192986
   0.88940101  0.44472831  0.56201716
   0.88961719  0.77812979  0.56173126
   0.22221324  0.99927889  0.31711565
   0.22213055  0.33282494  0.31730495
   0.22172937  0.66660969  0.31704105
   0.55644201  0.00041634  0.31708198
   0.55561669  0.33328807  0.31723902
   0.55581019  0.66756574  0.31731144
   0.88873225  0.99986427  0.31731568
   0.88858679  0.33244162  0.31710550
   0.88870609  0.66634920  0.31723186
   0.99968006  0.99964496  0.62224886
   0.00003303  0.33346963  0.62230237
   0.00017033  0.66757993  0.62245345
   0.33403076  0.00109446  0.62237207
   0.33375371  0.33387807  0.62208292
   0.33263325  0.66596662  0.62229041
   0.66700627  0.00007595  0.62237941
   0.66665476  0.33330523  0.62236925
   0.66633947  0.66625983  0.62233728
   0.00000116  0.22221953  0.37764987
   0.99936683  0.55541314  0.37756002
   0.00037656  0.88964517  0.37745375
   0.33348022  0.22228750  0.37765733
   0.33319974  0.55561445  0.37767610
   0.33326475  0.88899957  0.37773721
   0.66659602  0.22279969  0.37783629
   0.66667463  0.55588864  0.37778709
   0.66681305  0.88908053  0.37769438
 
 position of ions in cartesian coordinates  (Angst):
   1.85382915  1.00430142 20.74932747
   0.18417056  3.99820897 20.75226485
  -1.49226941  6.97109177 20.75064685
   5.33251224  1.01325852 20.75075737
   3.66159243  3.99776107 20.74383137
   1.99126209  6.97129776 20.75211024
   8.81381678  1.00963126 20.74866749
   7.14420499  3.99018558 20.74751456
   5.47010632  6.96807871 20.74792933
   2.37583948  0.01260290 13.31445852
   0.70262817  2.99096128 13.31387378
  -0.95963586  5.97186850 13.31004396
   0.84483395  8.95023664 13.31418616
   4.18892248  2.98805918 13.31484360
   2.51655028  5.97043759 13.31393581
   9.33800494  0.01751653 13.31149248
   7.66874280  2.99192118 13.31488499
   5.99586237  5.96289700 13.31529084
   1.83634448  1.01493268 17.07550092
   0.16333654  3.98840668 17.07647307
  -1.50332722  6.96979547 17.08131448
   5.30910315  1.00752559 17.07923017
   3.64436405  3.98524511 17.07605555
   1.98154397  6.96880406 17.07018275
   8.80020225  1.01047264 17.07769940
   7.13121948  3.99087632 17.08035247
   5.46229883  6.97079111 17.07166363
  -2.64813911  8.94047951  9.63751180
   0.69155789  2.98375839  9.64326501
  -0.98572993  5.96709955  9.63524480
   5.84981026  0.01270346  9.63648860
   4.17272084  2.98789595  9.64126140
   2.49921604  5.97565226  9.64346219
   4.31120215  8.94571723  9.64359118
   7.65504920  2.98032663  9.63720333
   5.98263106  5.96477669  9.64104357
   5.50919210  8.95239508 18.91086353
  -1.59366302  2.99816049 18.91248980
  -3.26690620  5.98442312 18.91708135
   3.56118120  0.02741258 18.91460818
   1.89020495  3.00180487 18.90582065
   0.21396452  5.96999882 18.91212631
   7.04444598  0.01830937 18.91483122
   5.37049288  2.99669293 18.91452252
   3.69829208  5.97262083 18.91355079
  -1.06682461  1.99688310 11.47721703
   7.70212607  4.97494564 11.47448647
  -4.40833535  7.96228894 11.47125655
   2.41625422  1.99749081 11.47744382
   0.74255709  4.97674821 11.47801414
  -0.92781748  7.95652660 11.47987147
   5.89333338  2.00207382 11.48288242
   4.22457168  4.97920202 11.48138720
   2.55591328  7.95724903 11.47856974
 


--------------------------------------------------------------------------------------------------------


 k-point   1 :   0.0000 0.0000 0.0000  plane waves:   83027
 k-point   2 :   0.3333-0.0000 0.0000  plane waves:   83165
 k-point   3 :   0.0000 0.3333-0.0000  plane waves:   83080
 k-point   4 :   0.3333 0.3333 0.0000  plane waves:   83091
 k-point   5 :  -0.3333 0.3333-0.0000  plane waves:   83079

 maximum and minimum number of plane-waves per node :     83165    83027

 maximum number of plane-waves:     83165
 maximum index in each direction: 
   IXMAX=   20   IYMAX=   19   IZMAX=   58
   IXMIN=  -20   IYMIN=  -19   IZMIN=  -58


 serial   3D FFT for wavefunctions
 parallel 3D FFT for charge:
    minimum data exchange during FFTs selected (reduces bandwidth)


 total amount of memory used by VASP MPI-rank0   351460. kBytes
=======================================================================

   base      :      30000. kBytes
   nonl-proj :     191692. kBytes
   fftplans  :      16533. kBytes
   grid      :      78796. kBytes
   one-center:        839. kBytes
   wavefun   :      33600. kBytes
 
     INWAV:  cpu time    0.0001: real time    0.0001
 Broyden mixing: mesh for mixing (old mesh)
   NGX = 39   NGY = 39   NGZ =117
  (NGX  =160   NGY  =160   NGZ  =480)
  gives a total of 177957 points

 initial charge density was supplied:
 charge density of overlapping atoms calculated
 number of electron     324.0000000 magnetization 
 keeping initial charge density in first step


--------------------------------------------------------------------------------------------------------


 Maximum index for augmentation-charges         1173 (set IRDMAX)


--------------------------------------------------------------------------------------------------------


 First call to EWALD:  gamma=   0.125
 Maximum number of real-space cells 4x 4x 2
 Maximum number of reciprocal cells 2x 2x 5

    FEWALD:  cpu time    0.0021: real time    0.0021


--------------------------------------- Iteration      1(   1)  ---------------------------------------


    POTLOK:  cpu time    0.2759: real time    0.2773
    SETDIJ:  cpu time    0.0103: real time    0.0106
     EDDAV:  cpu time   47.5610: real time   47.6997
       DOS:  cpu time    0.0010: real time    0.0011
    --------------------------------------------
      LOOP:  cpu time   47.8482: real time   47.9887

 eigenvalue-minimisations  :  2000
 total energy-change (2. order) : 0.2133515E+04  (-0.1159019E+05)
 number of electron     324.0000000 magnetization 
 augmentation part      324.0000000 magnetization 

 Free energy of the ion-electron system (eV)
  ---------------------------------------------------
  alpha Z        PSCENC =       252.93015530
  Ewald energy   TEWEN  =     63453.24191294
  -Hartree energ DENC   =    -75163.11206467
  -exchange      EXHF   =         0.00000000
  -V(xc)+E(xc)   XCENC  =     -2097.58177702
  PAW double counting   =      7476.04436201    -4809.59211051
  entropy T*S    EENTRO =        -0.13164399
  eigenvalues    EBANDS =      1068.63319939
  atomic energy  EATOM  =     11953.08265402
  Solvation  Ediel_sol  =         0.00000000
  ---------------------------------------------------
  free energy    TOTEN  =      2133.51468747 eV

  energy without entropy =     2133.64633146  energy(sigma->0) =     2133.58050947


--------------------------------------------------------------------------------------------------------




--------------------------------------- Iteration      1(   2)  ---------------------------------------


     EDDAV:  cpu time   68.3027: real time   68.4834
       DOS:  cpu time    0.0005: real time    0.0005
    --------------------------------------------
      LOOP:  cpu time   68.3032: real time   68.4839

 eigenvalue-minimisations  :  3120
 total energy-change (2. order) :-0.2237687E+04  (-0.2166985E+04)
 number of electron     324.0000000 magnetization 
 augmentation part      324.0000000 magnetization 

 Free energy of the ion-electron system (eV)
  ---------------------------------------------------
  alpha Z        PSCENC =       252.93015530
  Ewald energy   TEWEN  =     63453.24191294
  -Hartree energ DENC   =    -75163.11206467
  -exchange      EXHF   =         0.00000000
  -V(xc)+E(xc)   XCENC  =     -2097.58177702
  PAW double counting   =      7476.04436201    -4809.59211051
  entropy T*S    EENTRO =        -0.00030178
  eigenvalues    EBANDS =     -1169.18529154
  atomic energy  EATOM  =     11953.08265402
  Solvation  Ediel_sol  =         0.00000000
  ---------------------------------------------------
  free energy    TOTEN  =      -104.17246124 eV

  energy without entropy =     -104.17215946  energy(sigma->0) =     -104.17231035


--------------------------------------------------------------------------------------------------------




--------------------------------------- Iteration      1(   3)  ---------------------------------------


     EDDAV:  cpu time   55.7119: real time   55.8643
       DOS:  cpu time    0.0004: real time    0.0004
    --------------------------------------------
      LOOP:  cpu time   55.7123: real time   55.8647

 eigenvalue-minimisations  :  2440
 total energy-change (2. order) :-0.2192549E+03  (-0.2160152E+03)
 number of electron     324.0000000 magnetization 
 augmentation part      324.0000000 magnetization 

 Free energy of the ion-electron system (eV)
  ---------------------------------------------------
  alpha Z        PSCENC =       252.93015530
  Ewald energy   TEWEN  =     63453.24191294
  -Hartree energ DENC   =    -75163.11206467
  -exchange      EXHF   =         0.00000000
  -V(xc)+E(xc)   XCENC  =     -2097.58177702
  PAW double counting   =      7476.04436201    -4809.59211051
  entropy T*S    EENTRO =        -0.00000000
  eigenvalues    EBANDS =     -1388.44052249
  atomic energy  EATOM  =     11953.08265402
  Solvation  Ediel_sol  =         0.00000000
  ---------------------------------------------------
  free energy    TOTEN  =      -323.42739042 eV

  energy without entropy =     -323.42739042  energy(sigma->0) =     -323.42739042


--------------------------------------------------------------------------------------------------------




--------------------------------------- Iteration      1(   4)  ---------------------------------------


     EDDAV:  cpu time   65.9183: real time   66.1258
       DOS:  cpu time    0.0004: real time    0.0004
    --------------------------------------------
      LOOP:  cpu time   65.9187: real time   66.1262

 eigenvalue-minimisations  :  3000
 total energy-change (2. order) :-0.1190060E+02  (-0.1182277E+02)
 number of electron     324.0000000 magnetization 
 augmentation part      324.0000000 magnetization 

 Free energy of the ion-electron system (eV)
  ---------------------------------------------------
  alpha Z        PSCENC =       252.93015530
  Ewald energy   TEWEN  =     63453.24191294
  -Hartree energ DENC   =    -75163.11206467
  -exchange      EXHF   =         0.00000000
  -V(xc)+E(xc)   XCENC  =     -2097.58177702
  PAW double counting   =      7476.04436201    -4809.59211051
  entropy T*S    EENTRO =        -0.00000000
  eigenvalues    EBANDS =     -1400.34112328
  atomic energy  EATOM  =     11953.08265402
  Solvation  Ediel_sol  =         0.00000000
  ---------------------------------------------------
  free energy    TOTEN  =      -335.32799121 eV

  energy without entropy =     -335.32799121  energy(sigma->0) =     -335.32799121


--------------------------------------------------------------------------------------------------------




--------------------------------------- Iteration      1(   5)  ---------------------------------------


     EDDAV:  cpu time   66.7070: real time   66.8946
       DOS:  cpu time    0.0004: real time    0.0004
    CHARGE:  cpu time    1.1230: real time    1.1245
    MIXING:  cpu time    0.0072: real time    0.0075
    --------------------------------------------
      LOOP:  cpu time   67.8376: real time   68.0270

 eigenvalue-minimisations  :  3040
 total energy-change (2. order) :-0.3675876E+00  (-0.3669516E+00)
 number of electron     323.9999995 magnetization 
 augmentation part      -25.1126529 magnetization 

 Broyden mixing:
  rms(total) = 0.18474E+01    rms(broyden)= 0.18474E+01
  rms(prec ) = 0.19511E+01
  weight for this iteration     100.00

 Free energy of the ion-electron system (eV)
  ---------------------------------------------------
  alpha Z        PSCENC =       252.93015530
  Ewald energy   TEWEN  =     63453.24191294
  -Hartree energ DENC   =    -75163.11206467
  -exchange      EXHF   =         0.00000000
  -V(xc)+E(xc)   XCENC  =     -2097.58177702
  PAW double counting   =      7476.04436201    -4809.59211051
  entropy T*S    EENTRO =        -0.00000000
  eigenvalues    EBANDS =     -1400.70871093
  atomic energy  EATOM  =     11953.08265402
  Solvation  Ediel_sol  =         0.00000000
  ---------------------------------------------------
  free energy    TOTEN  =      -335.69557886 eV

  energy without entropy =     -335.69557886  energy(sigma->0) =     -335.69557886


--------------------------------------------------------------------------------------------------------




--------------------------------------- Iteration      1(   6)  ---------------------------------------


    POTLOK:  cpu time    0.2456: real time    0.2459
    SETDIJ:  cpu time    0.0106: real time    0.0106
    EDDIAG:  cpu time    2.4468: real time    2.4498
  RMM-DIIS:  cpu time   39.9490: real time   40.0509
    ORTHCH:  cpu time    0.2107: real time    0.2109
       DOS:  cpu time    0.0005: real time    0.0004
    CHARGE:  cpu time    1.1297: real time    1.1310
    MIXING:  cpu time    0.0094: real time    0.0096
    --------------------------------------------
      LOOP:  cpu time   44.0022: real time   44.1090

 eigenvalue-minimisations  :  2110
 total energy-change (2. order) : 0.9211151E+01  (-0.4128098E+01)
 number of electron     323.9999996 magnetization 
 augmentation part      -20.4491098 magnetization 

 Broyden mixing:
  rms(total) = 0.69242E+00    rms(broyden)= 0.69242E+00
  rms(prec ) = 0.79114E+00
  weight for this iteration     100.00

 eigenvalues of (default mixing * dielectric matrix)
  average eigenvalue GAMMA=   1.1529
  1.1529

 Free energy of the ion-electron system (eV)
  ---------------------------------------------------
  alpha Z        PSCENC =       252.93015530
  Ewald energy   TEWEN  =     63453.24191294
  -Hartree energ DENC   =    -75158.41200783
  -exchange      EXHF   =         0.00000000
  -V(xc)+E(xc)   XCENC  =     -2091.28514812
  PAW double counting   =      7722.59726692    -5067.82358773
  entropy T*S    EENTRO =        -0.00000000
  eigenvalues    EBANDS =     -1390.81567373
  atomic energy  EATOM  =     11953.08265402
  Solvation  Ediel_sol  =         0.00000000
  ---------------------------------------------------
  free energy    TOTEN  =      -326.48442824 eV

  energy without entropy =     -326.48442824  energy(sigma->0) =     -326.48442824


--------------------------------------------------------------------------------------------------------




--------------------------------------- Iteration      1(   7)  ---------------------------------------


    POTLOK:  cpu time    0.2454: real time    0.2457
    SETDIJ:  cpu time    0.0112: real time    0.0112
    EDDIAG:  cpu time    2.4455: real time    2.4486
  RMM-DIIS:  cpu time   38.1332: real time   38.2272
    ORTHCH:  cpu time    0.2079: real time    0.2081
       DOS:  cpu time    0.0004: real time    0.0004
    CHARGE:  cpu time    1.1194: real time    1.1206
    MIXING:  cpu time    0.0066: real time    0.0066
    --------------------------------------------
      LOOP:  cpu time   42.1696: real time   42.2683

 eigenvalue-minimisations  :  2013
 total energy-change (2. order) : 0.2950259E+01  (-0.1027458E+01)
 number of electron     323.9999996 magnetization 
 augmentation part      -21.8875273 magnetization 

 Broyden mixing:
  rms(total) = 0.44452E+00    rms(broyden)= 0.44452E+00
  rms(prec ) = 0.46961E+00
  weight for this iteration     100.00

 eigenvalues of (default mixing * dielectric matrix)
  average eigenvalue GAMMA=   1.4599
  0.7523  2.1676

 Free energy of the ion-electron system (eV)
  ---------------------------------------------------
  alpha Z        PSCENC =       252.93015530
  Ewald energy   TEWEN  =     63453.24191294
  -Hartree energ DENC   =    -75246.80962641
  -exchange      EXHF   =         0.00000000
  -V(xc)+E(xc)   XCENC  =     -2089.38776215
  PAW double counting   =      8038.64991530    -5389.89163124
  entropy T*S    EENTRO =        -0.00000000
  eigenvalues    EBANDS =     -1295.34978664
  atomic energy  EATOM  =     11953.08265402
  Solvation  Ediel_sol  =         0.00000000
  ---------------------------------------------------
  free energy    TOTEN  =      -323.53416888 eV

  energy without entropy =     -323.53416888  energy(sigma->0) =     -323.53416888


--------------------------------------------------------------------------------------------------------




--------------------------------------- Iteration      1(   8)  ---------------------------------------


    POTLOK:  cpu time    0.2403: real time    0.2410
    SETDIJ:  cpu time    0.0106: real time    0.0106
    EDDIAG:  cpu time    2.4655: real time    2.4683
  RMM-DIIS:  cpu time   37.6164: real time   37.7248
    ORTHCH:  cpu time    0.2086: real time    0.2088
       DOS:  cpu time    0.0004: real time    0.0004
    CHARGE:  cpu time    1.1198: real time    1.1292
    MIXING:  cpu time    0.0068: real time    0.0068
    --------------------------------------------
      LOOP:  cpu time   41.6685: real time   41.7899

 eigenvalue-minimisations  :  2001
 total energy-change (2. order) : 0.4237745E+00  (-0.6154650E+00)
 number of electron     323.9999996 magnetization 
 augmentation part      -21.4190721 magnetization 

 Broyden mixing:
  rms(total) = 0.10438E+00    rms(broyden)= 0.10438E+00
  rms(prec ) = 0.11784E+00
  weight for this iteration     100.00

 eigenvalues of (default mixing * dielectric matrix)
  average eigenvalue GAMMA=   1.3442
  2.0973  1.1612  0.7740

 Free energy of the ion-electron system (eV)
  ---------------------------------------------------
  alpha Z        PSCENC =       252.93015530
  Ewald energy   TEWEN  =     63453.24191294
  -Hartree energ DENC   =    -75297.53908729
  -exchange      EXHF   =         0.00000000
  -V(xc)+E(xc)   XCENC  =     -2085.72256991
  PAW double counting   =      8322.82026316    -5680.00282238
  entropy T*S    EENTRO =        -0.00000000
  eigenvalues    EBANDS =     -1241.92090024
  atomic energy  EATOM  =     11953.08265402
  Solvation  Ediel_sol  =         0.00000000
  ---------------------------------------------------
  free energy    TOTEN  =      -323.11039438 eV

  energy without entropy =     -323.11039438  energy(sigma->0) =     -323.11039438


--------------------------------------------------------------------------------------------------------




--------------------------------------- Iteration      1(   9)  ---------------------------------------


    POTLOK:  cpu time    0.2479: real time    0.2481
    SETDIJ:  cpu time    0.0105: real time    0.0105
    EDDIAG:  cpu time    2.4554: real time    2.4665
  RMM-DIIS:  cpu time   43.8453: real time   43.9604
    ORTHCH:  cpu time    0.2114: real time    0.2157
       DOS:  cpu time    0.0005: real time    0.0005
    CHARGE:  cpu time    1.1288: real time    1.1300
    MIXING:  cpu time    0.0067: real time    0.0067
    --------------------------------------------
      LOOP:  cpu time   47.9065: real time   48.0385

 eigenvalue-minimisations  :  2259
 total energy-change (2. order) :-0.8724105E-01  (-0.1363353E+00)
 number of electron     323.9999996 magnetization 
 augmentation part      -21.0542036 magnetization 

 Broyden mixing:
  rms(total) = 0.10710E+00    rms(broyden)= 0.10710E+00
  rms(prec ) = 0.11883E+00
  weight for this iteration     100.00

 eigenvalues of (default mixing * dielectric matrix)
  average eigenvalue GAMMA=   1.2637
  1.9395  1.9395  0.7323  0.4434

 Free energy of the ion-electron system (eV)
  ---------------------------------------------------
  alpha Z        PSCENC =       252.93015530
  Ewald energy   TEWEN  =     63453.24191294
  -Hartree energ DENC   =    -75300.33107502
  -exchange      EXHF   =         0.00000000
  -V(xc)+E(xc)   XCENC  =     -2085.31492290
  PAW double counting   =      8338.15293950    -5695.62823146
  entropy T*S    EENTRO =        -0.00000000
  eigenvalues    EBANDS =     -1239.33106781
  atomic energy  EATOM  =     11953.08265402
  Solvation  Ediel_sol  =         0.00000000
  ---------------------------------------------------
  free energy    TOTEN  =      -323.19763543 eV

  energy without entropy =     -323.19763543  energy(sigma->0) =     -323.19763543


--------------------------------------------------------------------------------------------------------




--------------------------------------- Iteration      1(  10)  ---------------------------------------


    POTLOK:  cpu time    0.2407: real time    0.2410
    SETDIJ:  cpu time    0.0106: real time    0.0106
    EDDIAG:  cpu time    2.4386: real time    2.4457
  RMM-DIIS:  cpu time   43.9796: real time   44.0864
    ORTHCH:  cpu time    0.2103: real time    0.2105
       DOS:  cpu time    0.0004: real time    0.0004
    CHARGE:  cpu time    1.1275: real time    1.1330
    MIXING:  cpu time    0.0070: real time    0.0070
    --------------------------------------------
      LOOP:  cpu time   48.0146: real time   48.1346

 eigenvalue-minimisations  :  2312
 total energy-change (2. order) : 0.1092802E-01  (-0.2863215E-01)
 number of electron     323.9999996 magnetization 
 augmentation part      -21.0057942 magnetization 

 Broyden mixing:
  rms(total) = 0.63573E-01    rms(broyden)= 0.63573E-01
  rms(prec ) = 0.72490E-01
  weight for this iteration     100.00

 eigenvalues of (default mixing * dielectric matrix)
  average eigenvalue GAMMA=   1.3225
  2.2181  2.2181  0.8935  0.8935  0.3891

 Free energy of the ion-electron system (eV)
  ---------------------------------------------------
  alpha Z        PSCENC =       252.93015530
  Ewald energy   TEWEN  =     63453.24191294
  -Hartree energ DENC   =    -75307.07458364
  -exchange      EXHF   =         0.00000000
  -V(xc)+E(xc)   XCENC  =     -2085.10301515
  PAW double counting   =      8360.86563907    -5718.40802088
  entropy T*S    EENTRO =        -0.00000000
  eigenvalues    EBANDS =     -1232.72144908
  atomic energy  EATOM  =     11953.08265402
  Solvation  Ediel_sol  =         0.00000000
  ---------------------------------------------------
  free energy    TOTEN  =      -323.18670741 eV

  energy without entropy =     -323.18670741  energy(sigma->0) =     -323.18670741


--------------------------------------------------------------------------------------------------------




--------------------------------------- Iteration      1(  11)  ---------------------------------------


    POTLOK:  cpu time    0.2365: real time    0.2367
    SETDIJ:  cpu time    0.0106: real time    0.0106
    EDDIAG:  cpu time    2.4521: real time    2.4547
  RMM-DIIS:  cpu time   40.6093: real time   40.7344
    ORTHCH:  cpu time    0.2083: real time    0.2085
       DOS:  cpu time    0.0005: real time    0.0005
    CHARGE:  cpu time    1.1322: real time    1.1335
    MIXING:  cpu time    0.0094: real time    0.0094
    --------------------------------------------
      LOOP:  cpu time   44.6588: real time   44.7883

 eigenvalue-minimisations  :  2132
 total energy-change (2. order) : 0.9757481E-02  (-0.1544203E-01)
 number of electron     323.9999996 magnetization 
 augmentation part      -21.2916424 magnetization 

 Broyden mixing:
  rms(total) = 0.30043E-01    rms(broyden)= 0.30043E-01
  rms(prec ) = 0.34274E-01
  weight for this iteration     100.00

 eigenvalues of (default mixing * dielectric matrix)
  average eigenvalue GAMMA=   1.2699
  2.5041  1.7485  1.5098  0.7352  0.7352  0.3868

 Free energy of the ion-electron system (eV)
  ---------------------------------------------------
  alpha Z        PSCENC =       252.93015530
  Ewald energy   TEWEN  =     63453.24191294
  -Hartree energ DENC   =    -75323.49756986
  -exchange      EXHF   =         0.00000000
  -V(xc)+E(xc)   XCENC  =     -2084.90968308
  PAW double counting   =      8401.80623239    -5759.46601751
  entropy T*S    EENTRO =        -0.00000000
  eigenvalues    EBANDS =     -1216.36463414
  atomic energy  EATOM  =     11953.08265402
  Solvation  Ediel_sol  =         0.00000000
  ---------------------------------------------------
  free energy    TOTEN  =      -323.17694993 eV

  energy without entropy =     -323.17694993  energy(sigma->0) =     -323.17694993


--------------------------------------------------------------------------------------------------------




--------------------------------------- Iteration      1(  12)  ---------------------------------------


    POTLOK:  cpu time    0.2458: real time    0.2461
    SETDIJ:  cpu time    0.0128: real time    0.0128
    EDDIAG:  cpu time    2.4570: real time    2.4640
  RMM-DIIS:  cpu time   44.6866: real time   44.8026
    ORTHCH:  cpu time    0.2103: real time    0.2105
       DOS:  cpu time    0.0005: real time    0.0005
    CHARGE:  cpu time    1.1320: real time    1.1333
    MIXING:  cpu time    0.0073: real time    0.0073
    --------------------------------------------
      LOOP:  cpu time   48.7523: real time   48.8772

 eigenvalue-minimisations  :  2355
 total energy-change (2. order) : 0.7859408E-03  (-0.2714295E-02)
 number of electron     323.9999996 magnetization 
 augmentation part      -21.2647281 magnetization 

 Broyden mixing:
  rms(total) = 0.19596E-01    rms(broyden)= 0.19596E-01
  rms(prec ) = 0.23112E-01
  weight for this iteration     100.00

 eigenvalues of (default mixing * dielectric matrix)
  average eigenvalue GAMMA=   1.2605
  2.5258  1.9439  1.9439  0.8050  0.8050  0.3832  0.4166

 Free energy of the ion-electron system (eV)
  ---------------------------------------------------
  alpha Z        PSCENC =       252.93015530
  Ewald energy   TEWEN  =     63453.24191294
  -Hartree energ DENC   =    -75326.94115886
  -exchange      EXHF   =         0.00000000
  -V(xc)+E(xc)   XCENC  =     -2084.80826004
  PAW double counting   =      8404.19226440    -5761.86245951
  entropy T*S    EENTRO =        -0.00000000
  eigenvalues    EBANDS =     -1213.01127225
  atomic energy  EATOM  =     11953.08265402
  Solvation  Ediel_sol  =         0.00000000
  ---------------------------------------------------
  free energy    TOTEN  =      -323.17616399 eV

  energy without entropy =     -323.17616399  energy(sigma->0) =     -323.17616399


--------------------------------------------------------------------------------------------------------




--------------------------------------- Iteration      1(  13)  ---------------------------------------


    POTLOK:  cpu time    0.2474: real time    0.2476
    SETDIJ:  cpu time    0.0107: real time    0.0107
    EDDIAG:  cpu time    2.4514: real time    2.4583
  RMM-DIIS:  cpu time   45.2608: real time   45.4155
    ORTHCH:  cpu time    0.2121: real time    0.2123
       DOS:  cpu time    0.0004: real time    0.0004
    CHARGE:  cpu time    1.1254: real time    1.1298
    MIXING:  cpu time    0.0083: real time    0.0083
    --------------------------------------------
      LOOP:  cpu time   49.3166: real time   49.4829

 eigenvalue-minimisations  :  2355
 total energy-change (2. order) :-0.5109778E-04  (-0.1692683E-02)
 number of electron     323.9999996 magnetization 
 augmentation part      -21.1801817 magnetization 

 Broyden mixing:
  rms(total) = 0.11879E-01    rms(broyden)= 0.11879E-01
  rms(prec ) = 0.14567E-01
  weight for this iteration     100.00

 eigenvalues of (default mixing * dielectric matrix)
  average eigenvalue GAMMA=   1.3612
  2.7391  2.7391  1.7379  1.2686  0.8000  0.8000  0.3816  0.4236

 Free energy of the ion-electron system (eV)
  ---------------------------------------------------
  alpha Z        PSCENC =       252.93015530
  Ewald energy   TEWEN  =     63453.24191294
  -Hartree energ DENC   =    -75330.02309197
  -exchange      EXHF   =         0.00000000
  -V(xc)+E(xc)   XCENC  =     -2084.73438487
  PAW double counting   =      8401.60905124    -5759.24351483
  entropy T*S    EENTRO =        -0.00000000
  eigenvalues    EBANDS =     -1210.03899693
  atomic energy  EATOM  =     11953.08265402
  Solvation  Ediel_sol  =         0.00000000
  ---------------------------------------------------
  free energy    TOTEN  =      -323.17621509 eV

  energy without entropy =     -323.17621509  energy(sigma->0) =     -323.17621509


--------------------------------------------------------------------------------------------------------




--------------------------------------- Iteration      1(  14)  ---------------------------------------


    POTLOK:  cpu time    0.2432: real time    0.2473
    SETDIJ:  cpu time    0.0106: real time    0.0106
    EDDIAG:  cpu time    2.4623: real time    2.4656
  RMM-DIIS:  cpu time   40.3251: real time   40.4611
    ORTHCH:  cpu time    0.2075: real time    0.2077
       DOS:  cpu time    0.0004: real time    0.0004
    CHARGE:  cpu time    1.1338: real time    1.1350
    MIXING:  cpu time    0.0073: real time    0.0073
    --------------------------------------------
      LOOP:  cpu time   44.3901: real time   44.5350

 eigenvalue-minimisations  :  2085
 total energy-change (2. order) :-0.5058893E-03  (-0.4131450E-03)
 number of electron     323.9999996 magnetization 
 augmentation part      -21.2073128 magnetization 

 Broyden mixing:
  rms(total) = 0.50037E-02    rms(broyden)= 0.50037E-02
  rms(prec ) = 0.67624E-02
  weight for this iteration     100.00

 eigenvalues of (default mixing * dielectric matrix)
  average eigenvalue GAMMA=   1.3485
  3.1934  2.5798  1.6479  1.6479  0.7941  0.7941  0.6738  0.3820  0.4233

 Free energy of the ion-electron system (eV)
  ---------------------------------------------------
  alpha Z        PSCENC =       252.93015530
  Ewald energy   TEWEN  =     63453.24191294
  -Hartree energ DENC   =    -75338.14458590
  -exchange      EXHF   =         0.00000000
  -V(xc)+E(xc)   XCENC  =     -2084.72599710
  PAW double counting   =      8400.65218507    -5758.15808335
  entropy T*S    EENTRO =        -0.00000000
  eigenvalues    EBANDS =     -1202.05496196
  atomic energy  EATOM  =     11953.08265402
  Solvation  Ediel_sol  =         0.00000000
  ---------------------------------------------------
  free energy    TOTEN  =      -323.17672098 eV

  energy without entropy =     -323.17672098  energy(sigma->0) =     -323.17672098


--------------------------------------------------------------------------------------------------------




--------------------------------------- Iteration      1(  15)  ---------------------------------------


    POTLOK:  cpu time    0.2470: real time    0.2473
    SETDIJ:  cpu time    0.0130: real time    0.0130
    EDDIAG:  cpu time    2.4499: real time    2.4613
  RMM-DIIS:  cpu time   50.3823: real time   50.5075
    ORTHCH:  cpu time    0.2072: real time    0.2074
       DOS:  cpu time    0.0004: real time    0.0004
    CHARGE:  cpu time    1.1249: real time    1.1263
    MIXING:  cpu time    0.0076: real time    0.0076
    --------------------------------------------
      LOOP:  cpu time   54.4323: real time   54.5709

 eigenvalue-minimisations  :  2613
 total energy-change (2. order) :-0.9674225E-03  (-0.2065694E-03)
 number of electron     323.9999996 magnetization 
 augmentation part      -21.2167609 magnetization 

 Broyden mixing:
  rms(total) = 0.56697E-02    rms(broyden)= 0.56697E-02
  rms(prec ) = 0.67799E-02
  weight for this iteration     100.00

 eigenvalues of (default mixing * dielectric matrix)
  average eigenvalue GAMMA=   1.3034
  3.3076  2.5076  1.7919  1.7919  0.7803  0.7803  0.7816  0.3826  0.4155  0.4947

 Free energy of the ion-electron system (eV)
  ---------------------------------------------------
  alpha Z        PSCENC =       252.93015530
  Ewald energy   TEWEN  =     63453.24191294
  -Hartree energ DENC   =    -75340.67017834
  -exchange      EXHF   =         0.00000000
  -V(xc)+E(xc)   XCENC  =     -2084.71326626
  PAW double counting   =      8400.65882323    -5758.17237058
  entropy T*S    EENTRO =        -0.00000000
  eigenvalues    EBANDS =     -1199.53541872
  atomic energy  EATOM  =     11953.08265402
  Solvation  Ediel_sol  =         0.00000000
  ---------------------------------------------------
  free energy    TOTEN  =      -323.17768840 eV

  energy without entropy =     -323.17768840  energy(sigma->0) =     -323.17768840


--------------------------------------------------------------------------------------------------------




--------------------------------------- Iteration      1(  16)  ---------------------------------------


    POTLOK:  cpu time    0.2445: real time    0.2447
    SETDIJ:  cpu time    0.0107: real time    0.0107
    EDDIAG:  cpu time    2.4643: real time    2.4671
  RMM-DIIS:  cpu time   43.9136: real time   44.0370
    ORTHCH:  cpu time    0.2133: real time    0.2135
       DOS:  cpu time    0.0004: real time    0.0004
    CHARGE:  cpu time    1.1266: real time    1.1278
    MIXING:  cpu time    0.0099: real time    0.0099
    --------------------------------------------
      LOOP:  cpu time   47.9832: real time   48.1110

 eigenvalue-minimisations  :  2267
 total energy-change (2. order) :-0.9288701E-03  (-0.5381725E-04)
 number of electron     323.9999996 magnetization 
 augmentation part      -21.2106385 magnetization 

 Broyden mixing:
  rms(total) = 0.34820E-02    rms(broyden)= 0.34820E-02
  rms(prec ) = 0.45046E-02
  weight for this iteration     100.00

 eigenvalues of (default mixing * dielectric matrix)
  average eigenvalue GAMMA=   1.4055
  4.0338  2.4588  2.4588  1.7857  1.1661  0.7961  0.7961  0.7727  0.4239  0.3817
  0.3871

 Free energy of the ion-electron system (eV)
  ---------------------------------------------------
  alpha Z        PSCENC =       252.93015530
  Ewald energy   TEWEN  =     63453.24191294
  -Hartree energ DENC   =    -75342.39207267
  -exchange      EXHF   =         0.00000000
  -V(xc)+E(xc)   XCENC  =     -2084.69860244
  PAW double counting   =      8399.99837949    -5757.53245146
  entropy T*S    EENTRO =        -0.00000000
  eigenvalues    EBANDS =     -1197.80859245
  atomic energy  EATOM  =     11953.08265402
  Solvation  Ediel_sol  =         0.00000000
  ---------------------------------------------------
  free energy    TOTEN  =      -323.17861727 eV

  energy without entropy =     -323.17861727  energy(sigma->0) =     -323.17861727


--------------------------------------------------------------------------------------------------------




--------------------------------------- Iteration      1(  17)  ---------------------------------------


    POTLOK:  cpu time    0.2578: real time    0.2581
    SETDIJ:  cpu time    0.0105: real time    0.0105
    EDDIAG:  cpu time    2.4753: real time    2.4864
  RMM-DIIS:  cpu time   41.9175: real time   42.0646
    ORTHCH:  cpu time    0.2136: real time    0.2138
       DOS:  cpu time    0.0004: real time    0.0004
    CHARGE:  cpu time    1.1272: real time    1.1285
    MIXING:  cpu time    0.0104: real time    0.0104
    --------------------------------------------
      LOOP:  cpu time   46.0128: real time   46.1727

 eigenvalue-minimisations  :  2178
 total energy-change (2. order) :-0.2049428E-02  (-0.7679523E-04)
 number of electron     323.9999996 magnetization 
 augmentation part      -21.1981263 magnetization 

 Broyden mixing:
  rms(total) = 0.27165E-02    rms(broyden)= 0.27165E-02
  rms(prec ) = 0.31353E-02
  weight for this iteration     100.00

 eigenvalues of (default mixing * dielectric matrix)
  average eigenvalue GAMMA=   1.4166
  4.4534  2.5896  2.2503  1.6242  1.6242  0.9384  0.7876  0.7876  0.7618  0.4223
  0.3829  0.3766

 Free energy of the ion-electron system (eV)
  ---------------------------------------------------
  alpha Z        PSCENC =       252.93015530
  Ewald energy   TEWEN  =     63453.24191294
  -Hartree energ DENC   =    -75346.47800294
  -exchange      EXHF   =         0.00000000
  -V(xc)+E(xc)   XCENC  =     -2084.67175562
  PAW double counting   =      8398.21406066    -5755.77222302
  entropy T*S    EENTRO =        -0.00000000
  eigenvalues    EBANDS =     -1193.72746804
  atomic energy  EATOM  =     11953.08265402
  Solvation  Ediel_sol  =         0.00000000
  ---------------------------------------------------
  free energy    TOTEN  =      -323.18066670 eV

  energy without entropy =     -323.18066670  energy(sigma->0) =     -323.18066670


--------------------------------------------------------------------------------------------------------




--------------------------------------- Iteration      1(  18)  ---------------------------------------


    POTLOK:  cpu time    0.2474: real time    0.2476
    SETDIJ:  cpu time    0.0104: real time    0.0105
    EDDIAG:  cpu time    2.4424: real time    2.4497
  RMM-DIIS:  cpu time   41.2013: real time   41.2971
    ORTHCH:  cpu time    0.2042: real time    0.2045
       DOS:  cpu time    0.0004: real time    0.0004
    CHARGE:  cpu time    1.1282: real time    1.1293
    MIXING:  cpu time    0.0079: real time    0.0079
    --------------------------------------------
      LOOP:  cpu time   45.2423: real time   45.3470

 eigenvalue-minimisations  :  2156
 total energy-change (2. order) :-0.4606940E-03  (-0.1239657E-04)
 number of electron     323.9999996 magnetization 
 augmentation part      -21.2015330 magnetization 

 Broyden mixing:
  rms(total) = 0.13955E-02    rms(broyden)= 0.13955E-02
  rms(prec ) = 0.16974E-02
  weight for this iteration     100.00

 eigenvalues of (default mixing * dielectric matrix)
  average eigenvalue GAMMA=   1.4326
  4.9160  2.6960  2.1145  1.8778  1.8778  0.9489  0.7900  0.7900  0.7750  0.6556
  0.4226  0.3823  0.3767

 Free energy of the ion-electron system (eV)
  ---------------------------------------------------
  alpha Z        PSCENC =       252.93015530
  Ewald energy   TEWEN  =     63453.24191294
  -Hartree energ DENC   =    -75347.38551745
  -exchange      EXHF   =         0.00000000
  -V(xc)+E(xc)   XCENC  =     -2084.67401602
  PAW double counting   =      8398.30588010    -5755.84967234
  entropy T*S    EENTRO =        -0.00000000
  eigenvalues    EBANDS =     -1192.83252395
  atomic energy  EATOM  =     11953.08265402
  Solvation  Ediel_sol  =         0.00000000
  ---------------------------------------------------
  free energy    TOTEN  =      -323.18112739 eV

  energy without entropy =     -323.18112739  energy(sigma->0) =     -323.18112739


--------------------------------------------------------------------------------------------------------




--------------------------------------- Iteration      1(  19)  ---------------------------------------


    POTLOK:  cpu time    0.2439: real time    0.2453
    SETDIJ:  cpu time    0.0128: real time    0.0128
    EDDIAG:  cpu time    2.4583: real time    2.4611
  RMM-DIIS:  cpu time   43.2588: real time   43.3770
    ORTHCH:  cpu time    0.2029: real time    0.2031
       DOS:  cpu time    0.0004: real time    0.0004
    CHARGE:  cpu time    1.1229: real time    1.1281
    MIXING:  cpu time    0.0080: real time    0.0080
    --------------------------------------------
      LOOP:  cpu time   47.3081: real time   47.4359

 eigenvalue-minimisations  :  2237
 total energy-change (2. order) :-0.5351482E-03  (-0.7453560E-05)
 number of electron     323.9999996 magnetization 
 augmentation part      -21.2037712 magnetization 

 Broyden mixing:
  rms(total) = 0.99132E-03    rms(broyden)= 0.99132E-03
  rms(prec ) = 0.12196E-02
  weight for this iteration     100.00

 eigenvalues of (default mixing * dielectric matrix)
  average eigenvalue GAMMA=   1.5890
  6.8786  3.0210  2.4246  1.9686  1.9686  1.0144  1.0144  0.7988  0.7988  0.7658
  0.3824  0.3753  0.4236  0.4107

 Free energy of the ion-electron system (eV)
  ---------------------------------------------------
  alpha Z        PSCENC =       252.93015530
  Ewald energy   TEWEN  =     63453.24191294
  -Hartree energ DENC   =    -75348.08460997
  -exchange      EXHF   =         0.00000000
  -V(xc)+E(xc)   XCENC  =     -2084.67421891
  PAW double counting   =      8398.55969217    -5756.09773458
  entropy T*S    EENTRO =        -0.00000000
  eigenvalues    EBANDS =     -1192.13951351
  atomic energy  EATOM  =     11953.08265402
  Solvation  Ediel_sol  =         0.00000000
  ---------------------------------------------------
  free energy    TOTEN  =      -323.18166254 eV

  energy without entropy =     -323.18166254  energy(sigma->0) =     -323.18166254


--------------------------------------------------------------------------------------------------------




--------------------------------------- Iteration      1(  20)  ---------------------------------------


    POTLOK:  cpu time    0.2534: real time    0.2536
    SETDIJ:  cpu time    0.0105: real time    0.0105
    EDDIAG:  cpu time    2.4424: real time    2.4485
  RMM-DIIS:  cpu time   40.8070: real time   40.8937
    ORTHCH:  cpu time    0.2097: real time    0.2099
       DOS:  cpu time    0.0031: real time    0.0031
    CHARGE:  cpu time    1.1220: real time    1.1232
    MIXING:  cpu time    0.0121: real time    0.0121
    --------------------------------------------
      LOOP:  cpu time   44.8602: real time   44.9546

 eigenvalue-minimisations  :  2134
 total energy-change (2. order) :-0.4978349E-03  (-0.5295814E-05)
 number of electron     323.9999996 magnetization 
 augmentation part      -21.2039875 magnetization 

 Broyden mixing:
  rms(total) = 0.35596E-03    rms(broyden)= 0.35596E-03
  rms(prec ) = 0.44512E-03
  weight for this iteration     100.00

 eigenvalues of (default mixing * dielectric matrix)
  average eigenvalue GAMMA=   1.6373
  6.9498  3.4650  2.5066  2.0687  2.0687  1.3680  1.2744  0.7932  0.7932  0.8415
  0.8415  0.4226  0.3824  0.3747  0.4092

 Free energy of the ion-electron system (eV)
  ---------------------------------------------------
  alpha Z        PSCENC =       252.93015530
  Ewald energy   TEWEN  =     63453.24191294
  -Hartree energ DENC   =    -75348.94013493
  -exchange      EXHF   =         0.00000000
  -V(xc)+E(xc)   XCENC  =     -2084.67188716
  PAW double counting   =      8398.79421643    -5756.33272967
  entropy T*S    EENTRO =        -0.00000000
  eigenvalues    EBANDS =     -1191.28634731
  atomic energy  EATOM  =     11953.08265402
  Solvation  Ediel_sol  =         0.00000000
  ---------------------------------------------------
  free energy    TOTEN  =      -323.18216038 eV

  energy without entropy =     -323.18216038  energy(sigma->0) =     -323.18216038


--------------------------------------------------------------------------------------------------------




--------------------------------------- Iteration      1(  21)  ---------------------------------------


    POTLOK:  cpu time    0.2418: real time    0.2420
    SETDIJ:  cpu time    0.0104: real time    0.0104
    EDDIAG:  cpu time    2.4469: real time    2.4536
  RMM-DIIS:  cpu time   40.8093: real time   40.9123
    ORTHCH:  cpu time    0.2117: real time    0.2119
       DOS:  cpu time    0.0005: real time    0.0005
    CHARGE:  cpu time    1.1259: real time    1.1272
    MIXING:  cpu time    0.0083: real time    0.0083
    --------------------------------------------
      LOOP:  cpu time   44.8547: real time   44.9661

 eigenvalue-minimisations  :  2015
 total energy-change (2. order) :-0.1903876E-03  (-0.1565866E-05)
 number of electron     323.9999996 magnetization 
 augmentation part      -21.2035108 magnetization 

 Broyden mixing:
  rms(total) = 0.46026E-03    rms(broyden)= 0.46026E-03
  rms(prec ) = 0.52906E-03
  weight for this iteration     100.00

 eigenvalues of (default mixing * dielectric matrix)
  average eigenvalue GAMMA=   1.6397
  7.2917  3.6530  2.5633  2.1850  2.1850  1.8116  0.9535  0.9535  0.7989  0.7989
  0.8411  0.6092  0.4227  0.3823  0.3748  0.4108

 Free energy of the ion-electron system (eV)
  ---------------------------------------------------
  alpha Z        PSCENC =       252.93015530
  Ewald energy   TEWEN  =     63453.24191294
  -Hartree energ DENC   =    -75349.13121571
  -exchange      EXHF   =         0.00000000
  -V(xc)+E(xc)   XCENC  =     -2084.67209934
  PAW double counting   =      8398.89272308    -5756.43333280
  entropy T*S    EENTRO =        -0.00000000
  eigenvalues    EBANDS =     -1191.09314826
  atomic energy  EATOM  =     11953.08265402
  Solvation  Ediel_sol  =         0.00000000
  ---------------------------------------------------
  free energy    TOTEN  =      -323.18235077 eV

[...]
  0.000   0.000   0.000  -0.000   0.000   0.011   0.000  -0.000
 -0.000   0.000  -0.000   0.000   0.000   0.000   0.011  -0.000
 -0.000  -0.000   0.000   0.000   0.000  -0.000  -0.000   0.011
 -0.001  -0.000   0.001   0.000   0.000  -0.000  -0.000   0.000
  0.000   0.000  -0.014  -0.000   0.000  -0.000   0.000  -0.000
 -0.010  -0.000   0.000  -0.019  -0.000   0.000  -0.000   0.000
 -0.000  -0.000   0.000   0.001  -0.015  -0.000  -0.000  -0.000
 -0.000  -0.000   0.001  -0.000   0.001   0.000   0.000  -0.000
 total augmentation occupancy for first ion, spin component:           1
  1.933   0.216  -0.003   0.198   0.002  -0.001   0.043  -0.008   0.001   0.000   0.008  -0.002   0.001
  0.216   1.413   0.007  -0.933   0.015   0.005   0.368  -0.015  -0.009  -0.002  -0.028  -0.002  -0.003
 -0.003   0.007   1.336   0.004  -0.001  -0.481   0.002   0.005   0.003  -0.115  -0.001   0.002  -0.045
  0.198  -0.933   0.004   1.505  -0.012   0.002  -0.551   0.010   0.002  -0.000  -0.039   0.005  -0.002
  0.002   0.015  -0.001  -0.012   1.342   0.005   0.010  -0.487  -0.042   0.002   0.001  -0.118   0.001
 -0.001   0.005  -0.481   0.002   0.005   0.327  -0.002  -0.009  -0.002   0.037  -0.001   0.001   0.007
  0.043   0.368   0.002  -0.551   0.010  -0.002   0.292  -0.003   0.000   0.000   0.045  -0.003   0.000
 -0.008  -0.015   0.005   0.010  -0.487  -0.009  -0.003   0.322   0.009   0.001   0.001   0.038  -0.001
  0.001  -0.009   0.003   0.002  -0.042  -0.002   0.000   0.009   0.022  -0.000   0.001  -0.000   0.001
  0.000  -0.002  -0.115  -0.000   0.002   0.037   0.000   0.001  -0.000   0.019   0.000  -0.001  -0.000
  0.008  -0.028  -0.001  -0.039   0.001  -0.001   0.045   0.001   0.001   0.000   0.020  -0.001   0.000
 -0.002  -0.002   0.002   0.005  -0.118   0.001  -0.003   0.038  -0.000  -0.001  -0.001   0.019  -0.000
  0.001  -0.003  -0.045  -0.002   0.001   0.007   0.000  -0.001   0.001  -0.000   0.000  -0.000   0.022


------------------------ aborting loop because EDIFF is reached ----------------------------------------


    CHARGE:  cpu time    1.1372: real time    1.1413
    FORLOC:  cpu time    0.0739: real time    0.0740
    FORNL :  cpu time   13.1335: real time   13.1691
    STRESS:  cpu time   69.6492: real time   69.8754
    FORCOR:  cpu time    0.2797: real time    0.2800
    FORHAR:  cpu time    0.1154: real time    0.1155
    MIXING:  cpu time    0.0070: real time    0.0070
    OFIELD:  cpu time    0.0000: real time    0.0000

  Number of pair interactions contributing to vdW energy:  278469
  Edisp (eV):  -19.37514
    FORVDW:  cpu time    0.0303: real time    0.0303

  FORCE on cell =-STRESS in cart. coord.  units (eV):
  Direction    XX          YY          ZZ          XY          YZ          ZX
  --------------------------------------------------------------------------------------
  Alpha Z   252.93016   252.93016   252.93016
  Ewald   72656.33838 72678.61242-81914.28193   -52.38842     9.55439   -12.23654
  Hartree 74963.31485 74972.69347-74619.66112   -14.03971     3.29890    -2.50899
  E(xc)   -1359.36681 -1359.48134 -1378.90737     0.70717     0.11991     0.22729
  Local  ************************151464.23715    64.06707   -11.95531    14.12306
  n-local  3566.52955  3561.37269  3754.16473    -0.13671    -1.16235    -1.46534
  augment  -760.71958  -759.12160  -802.33544    -0.92365     0.37599     0.14327
  Kinetic  3306.51420  3320.66196  3252.70523   -10.32359     2.27689    -2.33482
  Fock        0.00000     0.00000     0.00000     0.00000     0.00000     0.00000
  vdW       -12.43997   -12.24792   -10.59730    -0.21724     0.58957    -0.21922
  -------------------------------------------------------------------------------------
  Total      18.42346    29.39693    -1.74589   -13.25507     3.09799    -4.27128
  in kB      10.40303    16.59934    -0.98584    -7.48463     1.74932    -2.41183
  external pressure =        8.67 kB  Pullay stress =        0.00 kB

  kinetic pressure (ideal gas correction) =      0.21 kB
  total pressure  =      8.88 kB
  Total+kin.    10.645      16.845      -0.837      -7.479       1.745      -2.450

 VOLUME and BASIS-vectors are now :
 -----------------------------------------------------------------------------
  energy-cutoff  :      550.00
  volume of cell :     2837.41
      direct lattice vectors                 reciprocal lattice vectors
    10.445689307  0.000000000  0.000000000     0.095733271  0.053687297 -0.000442223
    -5.012405034  8.937941581  0.000000000     0.000000000  0.111882584 -0.000104286
     0.124500306  0.028327683 30.391158336     0.000000000  0.000000000  0.032904307

  length of vectors
    10.445689307 10.247487688 30.391426551     0.109760560  0.111882633  0.032904307


 FORCES acting on ions
    electron-ion (+dipol)            ewald-force                    non-local-force                 convergence-correction
 -----------------------------------------------------------------------------------------------
   0.192E+01 -.675E+00 -.856E+03   -.185E+01 0.685E+00 0.862E+03   -.407E+00 0.158E+00 -.522E+01   0.276E-03 -.143E-02 0.203E-03
   0.422E+01 0.123E+01 -.861E+03   -.409E+01 -.125E+01 0.866E+03   -.672E+00 -.144E-01 -.505E+01   -.207E-02 0.318E-03 0.203E-04
   0.262E+01 0.215E+01 -.862E+03   -.258E+01 -.219E+01 0.867E+03   -.131E+00 0.287E-01 -.526E+01   -.239E-04 0.791E-04 -.934E-03
   0.396E+01 -.244E+01 -.859E+03   -.391E+01 0.247E+01 0.864E+03   -.319E+00 0.236E+00 -.500E+01   0.507E-03 -.880E-03 -.845E-03
   0.287E+00 0.862E+00 -.855E+03   -.229E+00 -.871E+00 0.861E+03   -.152E+00 0.113E+00 -.508E+01   0.859E-03 -.414E-03 0.155E-02
   0.243E+01 0.379E+01 -.860E+03   -.231E+01 -.383E+01 0.865E+03   -.352E+00 -.175E+00 -.496E+01   -.116E-02 0.144E-02 0.603E-04
   -.126E+01 -.349E+01 -.861E+03   0.141E+01 0.353E+01 0.866E+03   -.275E+00 0.169E+00 -.495E+01   -.744E-03 0.735E-03 -.127E-02
   -.475E+00 -.258E+01 -.859E+03   0.529E+00 0.254E+01 0.864E+03   0.255E-01 0.316E+00 -.518E+01   0.125E-02 -.260E-03 -.957E-03
   -.198E+01 0.271E+01 -.858E+03   0.203E+01 -.272E+01 0.863E+03   -.245E-01 -.248E-01 -.494E+01   0.118E-02 0.463E-03 0.256E-03
   0.382E-01 0.246E+01 0.105E+03   0.299E-01 -.255E+01 -.993E+02   -.982E-01 -.132E+00 -.506E+01   -.237E-03 -.939E-03 -.197E-03
   0.246E+00 -.196E+01 0.103E+03   -.198E+00 0.201E+01 -.978E+02   -.492E-01 0.110E+00 -.505E+01   0.546E-03 0.825E-03 0.842E-03
   -.132E+01 0.524E+00 0.105E+03   0.138E+01 -.523E+00 -.100E+03   0.208E-01 -.184E+00 -.533E+01   -.577E-04 0.271E-03 -.338E-03
   -.212E+00 0.206E+01 0.104E+03   0.280E+00 -.211E+01 -.991E+02   -.609E-01 -.520E-02 -.545E+01   0.130E-03 -.734E-03 -.335E-04
   0.167E+01 -.801E+00 0.103E+03   -.161E+01 0.813E+00 -.977E+02   -.217E+00 0.143E+00 -.529E+01   0.107E-03 -.513E-04 0.537E-03
   0.179E+01 0.923E+00 0.103E+03   -.178E+01 -.975E+00 -.982E+02   -.156E-01 -.760E-01 -.533E+01   -.419E-03 0.622E-03 -.495E-03
   0.264E+01 0.133E+01 0.104E+03   -.262E+01 -.142E+01 -.986E+02   -.200E+00 0.802E-01 -.535E+01   0.120E-03 -.162E-02 0.158E-03
   0.112E+01 0.166E+01 0.102E+03   -.107E+01 -.168E+01 -.966E+02   -.189E+00 -.714E-01 -.531E+01   -.650E-03 0.767E-03 0.113E-02
   0.180E+01 -.495E+00 0.101E+03   -.179E+01 0.458E+00 -.962E+02   -.117E+00 0.480E-01 -.515E+01   0.444E-03 0.773E-03 -.394E-03
   0.937E+00 0.350E+01 -.106E+03   -.960E+00 -.347E+01 0.100E+03   -.899E-01 -.360E+00 0.553E+01   0.174E-03 -.144E-02 -.530E-03
   -.480E+00 -.251E+01 -.104E+03   0.513E+00 0.257E+01 0.985E+02   0.641E-01 0.259E+00 0.516E+01   -.209E-02 0.284E-03 -.176E-03
   0.344E+01 0.257E+00 -.104E+03   -.346E+01 -.230E+00 0.985E+02   -.224E+00 0.430E-01 0.512E+01   -.599E-04 0.110E-03 0.710E-03
   -.383E+00 -.772E+00 -.102E+03   0.393E+00 0.764E+00 0.967E+02   0.262E+00 0.198E+00 0.542E+01   0.484E-03 -.897E-03 0.602E-03
   -.672E+00 -.302E+01 -.104E+03   0.678E+00 0.310E+01 0.989E+02   -.171E-01 0.323E+00 0.539E+01   0.833E-03 -.322E-03 -.190E-02
   0.133E+01 0.772E+00 -.103E+03   -.128E+01 -.814E+00 0.979E+02   -.193E+00 0.285E+00 0.504E+01   -.111E-02 0.137E-02 -.397E-03
   0.136E+01 0.757E+00 -.101E+03   -.142E+01 -.787E+00 0.956E+02   -.433E-01 0.795E-01 0.521E+01   -.733E-03 0.640E-03 0.102E-02
   0.443E+01 -.332E+01 -.104E+03   -.448E+01 0.337E+01 0.986E+02   -.278E+00 0.248E+00 0.514E+01   0.122E-02 -.177E-03 0.671E-03
   -.700E+00 0.389E+01 -.101E+03   0.725E+00 -.386E+01 0.957E+02   -.108E+00 -.288E+00 0.526E+01   0.113E-02 0.460E-03 -.691E-03
   -.117E+01 -.521E+00 0.858E+03   0.121E+01 0.501E+00 -.863E+03   0.139E+00 0.145E+00 0.532E+01   -.289E-03 -.829E-03 0.460E-03
   -.305E+00 0.140E+01 0.861E+03   0.386E+00 -.140E+01 -.866E+03   -.125E+00 -.241E-01 0.494E+01   0.679E-03 0.793E-03 -.763E-03
   -.369E-01 -.274E+01 0.858E+03   0.108E+00 0.276E+01 -.863E+03   -.194E+00 0.223E+00 0.537E+01   0.491E-04 0.251E-03 0.600E-03
   0.227E+01 0.285E+01 0.858E+03   -.230E+01 -.286E+01 -.863E+03   -.819E-02 -.106E+00 0.542E+01   0.815E-04 -.667E-03 0.292E-03
   0.450E+01 0.132E+01 0.859E+03   -.451E+01 -.129E+01 -.864E+03   -.304E+00 -.108E-02 0.498E+01   0.104E-04 -.185E-04 -.519E-03
   0.152E+01 0.934E+00 0.858E+03   -.144E+01 -.895E+00 -.863E+03   -.148E+00 -.240E+00 0.513E+01   -.328E-03 0.517E-03 0.511E-03
   -.401E+00 0.964E+00 0.855E+03   0.411E+00 -.983E+00 -.860E+03   0.178E+00 -.220E-01 0.503E+01   0.152E-03 -.164E-02 0.107E-03
   -.999E+00 0.984E+00 0.859E+03   0.107E+01 -.993E+00 -.864E+03   0.303E-01 0.114E+00 0.492E+01   -.693E-03 0.709E-03 -.833E-03
   0.302E+01 -.231E+01 0.861E+03   -.297E+01 0.234E+01 -.866E+03   -.375E+00 0.118E+00 0.519E+01   0.356E-03 0.775E-03 0.595E-03
   -.703E+01 -.278E+01 -.481E+03   0.717E+01 0.286E+01 0.481E+03   0.462E+00 0.276E+00 -.164E+00   -.211E-03 0.303E-03 -.255E-03
   -.308E+01 -.231E+01 -.484E+03   0.321E+01 0.223E+01 0.484E+03   0.270E+00 -.376E-01 0.265E+00   -.909E-03 -.135E-04 -.183E-03
   -.109E+01 0.457E+00 -.480E+03   0.116E+01 -.484E+00 0.480E+03   -.329E-01 -.181E+00 0.369E-01   0.132E-02 -.188E-03 -.252E-03
   0.155E+01 -.103E+01 -.482E+03   -.151E+01 0.977E+00 0.482E+03   -.664E-01 -.248E-01 -.102E+00   0.604E-03 -.112E-02 -.245E-03
   -.281E+01 0.876E+00 -.483E+03   0.291E+01 -.895E+00 0.483E+03   0.227E+00 -.244E+00 -.115E+00   -.938E-03 -.813E-03 -.235E-03
   -.545E+00 0.706E+00 -.484E+03   0.628E+00 -.747E+00 0.484E+03   0.119E+00 -.166E-02 0.304E-02   -.159E-02 0.847E-03 -.284E-03
   -.844E-01 -.192E+01 -.479E+03   0.187E+00 0.197E+01 0.479E+03   -.119E+00 -.912E-01 -.296E+00   -.393E-03 0.879E-03 -.277E-03
   -.381E+00 -.197E+01 -.478E+03   0.480E+00 0.184E+01 0.478E+03   -.128E+00 -.149E+00 -.733E-01   0.185E-02 -.109E-02 -.198E-03
   -.450E+01 0.405E+01 -.476E+03   0.467E+01 -.412E+01 0.476E+03   0.280E+00 -.410E+00 -.581E-01   0.199E-03 0.107E-02 -.283E-03
   -.100E+01 0.934E+00 0.481E+03   0.103E+01 -.894E+00 -.481E+03   0.510E-01 -.299E+00 0.126E+00   0.971E-05 -.387E-03 0.162E-03
   -.426E+01 -.238E+01 0.480E+03   0.437E+01 0.239E+01 -.480E+03   0.313E+00 -.362E-01 -.413E-01   -.910E-04 0.135E-02 0.242E-03
   -.104E+01 0.148E+00 0.480E+03   0.110E+01 -.265E+00 -.480E+03   -.364E-01 -.118E-02 -.119E+00   0.202E-03 -.834E-03 0.104E-03
   -.372E+01 -.366E+00 0.481E+03   0.386E+01 0.430E+00 -.482E+03   0.160E+00 -.278E+00 -.226E+00   0.282E-03 -.401E-03 0.845E-04
   -.225E+01 -.471E+01 0.484E+03   0.234E+01 0.479E+01 -.484E+03   0.373E-01 0.145E+00 0.250E+00   0.883E-04 0.121E-02 0.252E-03
   -.384E+01 -.271E-01 0.481E+03   0.391E+01 0.311E-01 -.481E+03   0.110E+00 -.307E-01 -.356E+00   -.119E-03 -.644E-03 0.183E-03
   -.163E+01 0.342E+01 0.482E+03   0.172E+01 -.349E+01 -.482E+03   0.145E+00 -.252E+00 0.283E+00   -.304E-03 -.374E-03 0.225E-03
   0.457E+00 -.215E+01 0.482E+03   -.375E+00 0.221E+01 -.482E+03   0.180E-01 0.235E-01 0.922E-01   -.452E-04 0.958E-03 0.201E-03
   0.115E+01 -.943E+00 0.477E+03   -.119E+01 0.980E+00 -.477E+03   -.197E+00 0.199E+00 -.336E-01   -.146E-03 -.726E-03 0.186E-03
 -----------------------------------------------------------------------------------------------
   0.306E+01 -.320E+00 -.926E-01   0.355E-13 0.104E-13 0.369E-11   -.306E+01 0.320E+00 0.956E-01   -.272E-03 -.857E-04 -.152E-02
 
 
 POSITION                                       TOTAL-FORCE (eV/Angst)
 -----------------------------------------------------------------------------------
      1.86240      0.99514     20.74168        -0.327143      0.153446     -0.031891
      0.21028      3.99693     20.75950        -0.528785     -0.027436      0.063552
     -1.49496      6.97366     20.77912        -0.095572     -0.015730     -0.166635
      5.34960      0.99687     20.74711        -0.253612      0.248705      0.100790
      3.66285      3.99645     20.72357        -0.095934      0.104166      0.115197
      2.00184      7.00093     20.74362        -0.235405     -0.192639      0.166660
      8.81560      1.00159     20.75180        -0.129241      0.201336      0.127502
      7.12365      3.97139     20.75105         0.071125      0.263708     -0.058796
      5.45354      6.96901     20.73549         0.005294     -0.033665      0.172780
      2.36799      0.03499     13.29981        -0.026061     -0.229882      0.226967
      0.68638      2.97956     13.30584        -0.000406      0.140655      0.164516
     -0.98843      5.97054     13.30721         0.081841     -0.200872     -0.065750
      0.84374      8.94394     13.32549         0.016241     -0.078779     -0.186724
      4.20150      2.96803     13.31870        -0.141024      0.124491     -0.067871
      2.50609      5.94925     13.31731        -0.003238     -0.150338     -0.093373
      4.34221      8.94919     13.31805        -0.153739     -0.035425     -0.055018
      7.66418      2.99055     13.32592        -0.125599     -0.106616     -0.112679
      5.98960      5.95834     13.31891        -0.091407     -0.012277      0.029185
      1.83338      1.05590     17.07308        -0.123912     -0.297857      0.243883
      0.13653      3.97223     17.08606         0.068234      0.314543     -0.075762
     -1.48064      6.97732     17.08759        -0.236598      0.086459     -0.085619
      5.28738      0.99648     17.06226         0.243608      0.199239      0.159169
      3.64084      3.96844     17.07668        -0.025351      0.396775      0.065809
      1.96781      6.95814     17.09755        -0.157445      0.254440     -0.220084
      8.78987      1.00917     17.06674        -0.110316      0.064986      0.017657
      7.15224      3.98396     17.08180        -0.326768      0.298577     -0.090413
      5.46663      7.00575     17.06329        -0.093199     -0.218998      0.030643
     -2.66888      8.93880      9.63704         0.165547      0.119973      0.183929
      0.69683      2.98160      9.63857        -0.046166     -0.024783     -0.163612
     -0.97665      5.94027      9.62389        -0.126378      0.228215      0.256415
      0.83510      8.93953      9.62278        -0.036055     -0.114639      0.327679
      4.19797      2.98409      9.64370        -0.304882      0.021738     -0.100253
      2.52113      5.98209      9.63545        -0.064127     -0.191483      0.038936
      9.30810      0.01243      9.67005         0.173575     -0.039394     -0.131088
      7.64065      2.97843      9.64620         0.085782      0.104564     -0.167005
      6.01802      5.95808      9.61756        -0.307770      0.135795      0.144624
      5.48054      8.95248     18.91759         0.657221      0.388899     -0.215859
      8.84146      2.99944     18.90569         0.409800     -0.091362      0.485084
     -3.25465      6.00340     18.91294         0.030090     -0.220662      0.031158
      3.57473      0.02650     18.92261        -0.045234     -0.049706     -0.135937
      1.87314      3.02473     18.92087         0.355399     -0.290574     -0.105332
      0.21161      5.98520     18.92804         0.207947     -0.027939      0.049632
      7.04869      0.03833     18.92583        -0.040455     -0.047338     -0.524443
      5.38395      3.00738     18.90846        -0.058453     -0.240341     -0.132719
      3.69034      6.01453     18.90558         0.462773     -0.520209     -0.139544
     -1.06809      2.02250     11.47300         0.082431     -0.299065      0.141943
      7.68639      4.97290     11.47767         0.460300     -0.012620     -0.036364
     -4.39686      7.95198     11.48432         0.007460     -0.083458     -0.176023
      2.41011      2.01892     11.48785         0.319753     -0.245219     -0.372386
      0.74674      4.96185     11.45386         0.120828      0.271320      0.344136
     -0.92886      7.95928     11.49191         0.200360     -0.028056     -0.517084
      5.90067      1.99987     11.46065         0.246176     -0.341123      0.407447
      4.24257      4.97200     11.46828         0.082673      0.083872      0.108779
      2.57226      7.93955     11.48935        -0.243420      0.262012      0.025658
 -----------------------------------------------------------------------------------
    total drift:                                0.000763     -0.000573      0.001466


--------------------------------------------------------------------------------------------------------



  FREE ENERGIE OF THE ION-ELECTRON SYSTEM (eV)
  ---------------------------------------------------
  free  energy   TOTEN  =      -342.40177082 eV

  energy  without entropy=     -342.40177082  energy(sigma->0) =     -342.40177082
 
 d Force =-0.2824362E-01[-0.300E-01,-0.265E-01]  d Energy =-0.2822497E-01-0.186E-04
 d Force = 0.3320104E+01[ 0.331E+01, 0.333E+01]  d Ewald  = 0.3320104E+01-0.211E-06


--------------------------------------------------------------------------------------------------------


    POTLOK:  cpu time    0.2564: real time    0.2566


--------------------------------------------------------------------------------------------------------


           RANDOM_SEED =         200336671              324                0
   IONSTEP:  cpu time    0.0001: real time    0.0001

  ENERGY OF THE ELECTRON-ION-THERMOSTAT SYSTEM (eV)
  ---------------------------------------------------
% ion-electron   TOTEN  =      -342.401771  see above
  kinetic energy EKIN   =         0.553414
  kin. lattice  EKIN_LAT=         0.000000  (temperature   80.78 K)
  nose potential ES     =        -0.026875
  nose kinetic   EPS    =         0.003745
  ---------------------------------------------------
  total energy   ETOTAL =      -341.871487 eV

  maximum distance moved by ions :      0.52E-03


 mean value of Nose-termostat <S>:     0.971 mean value of <T> :    80.781
 mean temperature <T/S>/<1/S>  :    80.781

    WAVPRE:  cpu time    0.0931: real time    0.0960
    FEWALD:  cpu time    0.0009: real time    0.0009
    ORTHCH:  cpu time    7.7917: real time    7.8043
    POTLOK:  cpu time    0.2589: real time    0.2592
    EDDIAG:  cpu time    2.4567: real time    2.4626
     LOOP+:  cpu time  458.4483: real time  459.7298
    4ORBIT:  cpu time    0.0000: real time    0.0000

 total amount of memory used by VASP MPI-rank0   351460. kBytes
=======================================================================

   base      :      30000. kBytes
   nonl-proj :     191692. kBytes
   fftplans  :      16533. kBytes
   grid      :      78796. kBytes
   one-center:        839. kBytes
   wavefun   :      33600. kBytes
 
  
  
 General timing and accounting informations for this job:
 ========================================================
  
                  Total CPU time used (sec):     5524.025
                            User time (sec):     5511.154
                          System time (sec):       12.871
                         Elapsed time (sec):     5539.574
  
                   Maximum memory used (kb):      779996.
                   Average memory used (kb):           0.
  
                          Minor page faults:       428582
                          Major page faults:            0
                 Voluntary context switches:          753
