-3.384094705499999804e+02
-3.384060634100000016e+02
-3.383967997299999979e+02
-3.383819376700000134e+02
-3.383618822899999827e+02
-3.383371667200000275e+02
-3.383084223600000087e+02
-3.382763558600000238e+02
-3.382417178100000115e+02
-3.382052749499999891e+02
-3.365583397199999922e+02
-3.365534791399999790e+02
-3.365497585200000117e+02
-3.365473578699999848e+02
-3.365465209299999856e+02
-3.365475344100000257e+02
-3.365507053900000187e+02
-3.365563456300000098e+02
-3.365647435899999778e+02
-3.365761437500000284e+02
-3.378987315100000046e+02
-3.378970681600000034e+02
-3.378919448299999999e+02
-3.378834046700000044e+02
-3.378716127299999812e+02
-3.378568422899999746e+02
-3.378394677800000068e+02
-3.378199495200000229e+02
-3.377988171700000066e+02
-3.377766496500000244e+02
-3.376224511600000255e+02
-3.376219234700000129e+02
-3.376183164299999930e+02
-3.376117889299999888e+02
-3.376026542600000084e+02
-3.375913529800000106e+02
-3.375784313899999916e+02
-3.375645132399999966e+02
-3.375502656900000034e+02
-3.375363709000000085e+02
-3.380048911299999759e+02
-3.380002635700000155e+02
-3.379904732300000205e+02
-3.379758152200000154e+02
-3.379567174499999851e+02
-3.379337208399999781e+02
-3.379074523300000124e+02
-3.378786049099999786e+02
-3.378479073500000140e+02
-3.378160966199999962e+02
-3.371548835899999972e+02
-3.371580625099999793e+02
-3.371602966599999718e+02
-3.371615631099999746e+02
-3.371618856299999720e+02
-3.371613379199999940e+02
-3.371600416599999903e+02
-3.371581548899999916e+02
-3.371558794000000034e+02
-3.371534414199999787e+02
-3.375229485199999999e+02
-3.375219888899999887e+02
-3.375198650099999895e+02
-3.375167471299999988e+02
-3.375128653599999780e+02
-3.375085076999999956e+02
-3.375040087699999845e+02
-3.374997389999999768e+02
-3.374960865200000057e+02
-3.374934531800000173e+02
-3.378538883599999849e+02
-3.378571859099999983e+02
-3.378569512000000259e+02
-3.378534347199999957e+02
-3.378470037499999989e+02
-3.378381279399999926e+02
-3.378273609099999817e+02
-3.378153159400000050e+02
-3.378026395800000046e+02
-3.377899955099999829e+02
-3.376922035900000196e+02
-3.376956150799999818e+02
-3.376954855299999849e+02
-3.376918871199999899e+02
-3.376849812899999961e+02
-3.376750299899999845e+02
-3.376623760900000093e+02
-3.376474302899999884e+02
-3.376306588799999986e+02
-3.376125577000000249e+02
-3.377738246200000276e+02
-3.377617191400000252e+02
-3.377454250800000182e+02
-3.377253350099999807e+02
-3.377019327799999928e+02
-3.376757763300000192e+02
-3.376474800699999719e+02
-3.376176932199999783e+02
-3.375870797900000184e+02
-3.375563043700000208e+02
-3.358403907200000162e+02
-3.358494029299999966e+02
-3.358644049499999937e+02
-3.358852336699999910e+02
-3.359116520000000037e+02
-3.359433483600000159e+02
-3.359799424700000259e+02
-3.360209792599999901e+02
-3.360659414900000002e+02
-3.361142582699999934e+02
-3.369730786800000146e+02
-3.369690409500000214e+02
-3.369653911099999846e+02
-3.369622133899999881e+02
-3.369596150200000011e+02
-3.369577199999999948e+02
-3.369566656900000226e+02
-3.369566039100000125e+02
-3.369576923000000193e+02
-3.369600964900000122e+02
-3.374075259599999868e+02
-3.374149343600000179e+02
-3.374200280599999928e+02
-3.374228650399999765e+02
-3.374236109000000283e+02
-3.374225244799999928e+02
-3.374199510700000246e+02
-3.374163115100000141e+02
-3.374120856900000263e+02
-3.374077894499999957e+02
-3.371853980899999783e+02
-3.371894091400000093e+02
-3.371925840900000253e+02
-3.371949269599999752e+02
-3.371964717399999927e+02
-3.371972852299999772e+02
-3.371974663400000054e+02
-3.371971425799999906e+02
-3.371964578299999857e+02
-3.371955802300000187e+02
-3.370441885700000171e+02
-3.370479036099999917e+02
-3.370520370500000240e+02
-3.370566434200000003e+02
-3.370618172299999742e+02
-3.370676861399999780e+02
-3.370744083800000226e+02
-3.370821413699999880e+02
-3.370910468000000151e+02
-3.371012607499999945e+02
-3.381856876400000260e+02
-3.381826834400000052e+02
-3.381759413400000085e+02
-3.381656456900000194e+02
-3.381520642799999905e+02
-3.381355378299999757e+02
-3.381164579699999990e+02
-3.380952597500000252e+02
-3.380724025100000176e+02
-3.380483555199999728e+02
-3.376180901999999833e+02
-3.376182043900000167e+02
-3.376157306499999891e+02
-3.376107554800000230e+02
-3.376034582099999852e+02
-3.375941076999999950e+02
-3.375830488299999956e+02
-3.375706894900000066e+02
-3.375574854000000187e+02
-3.375439149399999792e+02
-3.375655777599999965e+02
-3.375677685800000063e+02
-3.375690473399999973e+02
-3.375694455400000038e+02
-3.375690733499999965e+02
-3.375681101900000272e+02
-3.375667875699999740e+02
-3.375653802699999915e+02
-3.375641882300000134e+02
-3.375635167500000193e+02
-3.366313010499999905e+02
-3.366410299199999940e+02
-3.366530758000000105e+02
-3.366672684299999787e+02
-3.366834414799999990e+02
-3.367014390300000173e+02
-3.367211151199999790e+02
-3.367423399499999732e+02
-3.367649995799999942e+02
-3.367889904499999716e+02
-3.376424012100000027e+02
-3.376379231299999901e+02
-3.376294313199999806e+02
-3.376171135399999912e+02
-3.376012421500000187e+02
-3.375821543600000041e+02
-3.375602466199999867e+02
-3.375359554699999762e+02
-3.375097435299999802e+02
-3.374820836999999756e+02
-3.380262076899999784e+02
-3.380295559900000057e+02
-3.380295303899999908e+02
-3.380261904800000252e+02
-3.380196919800000046e+02
-3.380102774100000147e+02
-3.379982765799999811e+02
-3.379840842500000235e+02
-3.379681536699999924e+02
-3.379509756200000083e+02
-3.378022016599999802e+02
-3.378053404999999998e+02
-3.378056322599999817e+02
-3.378031746099999850e+02
-3.377981568800000218e+02
-3.377908624400000122e+02
-3.377816525299999739e+02
-3.377709487700000182e+02
-3.377592242299999725e+02
-3.377469778899999824e+02
-3.373865799899999729e+02
-3.373907783299999892e+02
-3.373904341400000249e+02
-3.373857915400000138e+02
-3.373772523499999920e+02
-3.373653522800000246e+02
-3.373507425999999896e+02
-3.373341595499999812e+02
-3.373163991499999952e+02
-3.372982768800000031e+02
-3.370518791800000145e+02
-3.370563850300000013e+02
-3.370630913499999792e+02
-3.370719494200000099e+02
-3.370829432300000121e+02
-3.370960965300000112e+02
-3.371114473800000155e+02
-3.371290374700000143e+02
-3.371488853100000256e+02
-3.371709768800000120e+02
-3.373850928900000099e+02
-3.373830634000000259e+02
-3.373788898700000232e+02
-3.373726669999999785e+02
-3.373645664000000011e+02
-3.373548242300000197e+02
-3.373437384800000132e+02
-3.373316513999999984e+02
-3.373189447600000221e+02
-3.373060191399999894e+02
-3.375600694600000224e+02
-3.375561683099999755e+02
-3.375503311900000085e+02
-3.375428575199999841e+02
-3.375341385199999991e+02
-3.375246306799999729e+02
-3.375148378800000160e+02
-3.375052927799999907e+02
-3.374965267499999868e+02
-3.374890486599999804e+02
-3.374759896599999820e+02
-3.374775407100000280e+02
-3.374761728700000276e+02
-3.374719083900000101e+02
-3.374648672199999737e+02
-3.374552540099999760e+02
-3.374433639999999741e+02
-3.374295583699999952e+02
-3.374142541699999924e+02
-3.373979149400000210e+02
-3.380910647599999947e+02
-3.380862344999999891e+02
-3.380773352300000170e+02
-3.380645421799999895e+02
-3.380481366500000036e+02
-3.380284905199999912e+02
-3.380060458799999878e+02
-3.379813076300000034e+02
-3.379548227700000211e+02
-3.379271635200000219e+02
-3.375630205599999840e+02
-3.375628082999999720e+02
-3.375585060500000054e+02
-3.375501787000000036e+02
-3.375380147100000272e+02
-3.375223179299999856e+02
-3.375034871199999884e+02
-3.374820015000000240e+02
-3.374583965400000238e+02
-3.374332441299999914e+02
-3.377475540699999783e+02
-3.377467658400000232e+02
-3.377431214399999817e+02
-3.377368792500000154e+02
-3.377284042200000158e+02
-3.377181476299999758e+02
-3.377066299800000024e+02
-3.376944121700000210e+02
-3.376820711999999958e+02
-3.376701817699999992e+02
-3.378445435699999848e+02
-3.378438712799999735e+02
-3.378386107399999787e+02
-3.378288918800000147e+02
-3.378149524599999722e+02
-3.377971296000000052e+02
-3.377758433500000024e+02
-3.377515801700000111e+02
-3.377248613900000009e+02
-3.376962347799999975e+02
-3.371417945200000190e+02
-3.371402254700000185e+02
-3.371349018899999805e+02
-3.371260720999999876e+02
-3.371141175800000269e+02
-3.370995224499999949e+02
-3.370828579600000126e+02
-3.370647588499999756e+02
-3.370458869500000105e+02
-3.370269188299999996e+02
-3.378541685499999971e+02
-3.378469597299999805e+02
-3.378368057299999805e+02
-3.378240010299999767e+02
-3.378089210100000059e+02
-3.377920068399999991e+02
-3.377737569799999733e+02
-3.377546931399999721e+02
-3.377353616600000237e+02
-3.377163020300000085e+02
-3.367080761899999857e+02
-3.367089358200000220e+02
-3.367108226199999876e+02
-3.367137586499999884e+02
-3.367177749200000108e+02
-3.367229197500000168e+02
-3.367292529200000217e+02
-3.367368361299999719e+02
-3.367457382200000211e+02
-3.367560243899999932e+02
-3.374362317999999732e+02
-3.374344839699999739e+02
-3.374288361499999951e+02
-3.374195128499999896e+02
-3.374068477700000130e+02
-3.373912735000000112e+02
-3.373732990600000221e+02
-3.373534929099999999e+02
-3.373324538200000120e+02
-3.373108016300000145e+02
-3.380082263599999806e+02
-3.380049975800000084e+02
-3.379971772700000088e+02
-3.379849796899999888e+02
-3.379687418500000149e+02
-3.379489087599999948e+02
-3.379260259499999961e+02
-3.379007031599999777e+02
-3.378736029699999790e+02
-3.378454055099999778e+02
-3.380245453499999826e+02
-3.380275075399999878e+02
-3.380257114099999853e+02
-3.380192528300000276e+02
-3.380083629299999757e+02
-3.379934081100000185e+02
-3.379748606699999982e+02
-3.379532867099999862e+02
-3.379293107400000054e+02
-3.379035962199999972e+02
-3.375804017400000134e+02
-3.375724017300000241e+02
-3.375644998399999963e+02
-3.375568991100000176e+02
-3.375498730400000227e+02
-3.375437550999999985e+02
-3.375389140400000088e+02
-3.375357387700000231e+02
-3.375346134100000199e+02
-3.375358981300000210e+02
-3.372227998500000012e+02
-3.372193116500000087e+02
-3.372122762399999942e+02
-3.372018788999999970e+02
-3.371884360600000150e+02
-3.371723823199999970e+02
-3.371542410800000198e+02
-3.371346024000000057e+02
-3.371140926900000068e+02
-3.370933452699999862e+02
-3.379537361299999816e+02
-3.379492111800000202e+02
-3.379401098100000240e+02
-3.379266331200000195e+02
-3.379091029900000080e+02
-3.378879410000000121e+02
-3.378636553200000208e+02
-3.378368115100000182e+02
-3.378080150700000104e+02
-3.377778889900000081e+02
-3.371551773099999991e+02
-3.371558656199999859e+02
-3.371570457099999771e+02
-3.371588052800000241e+02
-3.371612552199999868e+02
-3.371645256300000142e+02
-3.371687649500000248e+02
-3.371741314000000216e+02
-3.371807887100000016e+02
-3.371888990300000160e+02
-3.373188501999999858e+02
-3.373211961599999995e+02
-3.373226021199999991e+02
-3.373231230399999845e+02
-3.373229370000000245e+02
-3.373223241700000017e+02
-3.373216552900000238e+02
-3.373213668099999722e+02
-3.373219279599999822e+02
-3.373238099899999725e+02
-3.369186862000000247e+02
-3.369208501400000273e+02
-3.369256730899999752e+02
-3.369331470999999851e+02
-3.369432552100000180e+02
-3.369559624199999917e+02
-3.369712257499999737e+02
-3.369889830700000175e+02
-3.370091580499999964e+02
-3.370316568299999744e+02
-3.373304285300000060e+02
-3.373425999899999965e+02
-3.373539605700000266e+02
-3.373643646300000114e+02
-3.373737267700000189e+02
-3.373820226899999852e+02
-3.373892808499999774e+02
-3.373955894100000137e+02
-3.374010831400000257e+02
-3.374059373299999720e+02
-3.368674764400000186e+02
-3.368745681400000080e+02
-3.368811493300000279e+02
-3.368871685799999796e+02
-3.368926609100000178e+02
-3.368977505700000279e+02
-3.369026378899999941e+02
-3.369075761400000033e+02
-3.369128576400000270e+02
-3.369187814499999831e+02
-3.380655745199999842e+02
-3.380652644599999803e+02
-3.380611011699999722e+02
-3.380532082799999785e+02
-3.380417961200000150e+02
-3.380271523100000195e+02
-3.380096314699999880e+02
-3.379896381400000109e+02
-3.379676133899999968e+02
-3.379440197800000192e+02
-3.378825789100000065e+02
-3.378843303099999957e+02
-3.378812685199999919e+02
-3.378735229100000197e+02
-3.378613485999999853e+02
-3.378451154300000212e+02
-3.378252906700000153e+02
-3.378024143299999764e+02
-3.377770779599999855e+02
-3.377499061799999822e+02
-3.378939786799999752e+02
-3.378901672399999825e+02
-3.378812650599999756e+02
-3.378675226099999804e+02
-3.378493298999999865e+02
-3.378271981500000152e+02
-3.378017292200000270e+02
-3.377735949500000174e+02
-3.377434985699999856e+02
-3.377121640799999795e+02
-3.381668109400000048e+02
-3.381673856799999953e+02
-3.381641023000000246e+02
-3.381570955600000161e+02
-3.381466226200000165e+02
-3.381330557900000144e+02
-3.381168622199999731e+02
-3.380985785199999896e+02
-3.380787889100000143e+02
-3.380581005700000219e+02
-3.372610369399999968e+02
-3.372633191400000214e+02
-3.372663446700000236e+02
-3.372701447499999858e+02
-3.372748260299999856e+02
-3.372805636200000095e+02
-3.372875799199999847e+02
-3.372961226400000214e+02
-3.373064452500000243e+02
-3.373187760800000206e+02
-3.377731028100000117e+02
-3.377686176700000260e+02
-3.377614568000000190e+02
-3.377518907300000137e+02
-3.377403223000000025e+02
-3.377272510299999908e+02
-3.377132492399999819e+02
-3.376989441299999726e+02
-3.376849793700000077e+02
-3.376719883800000162e+02
-3.375391791000000126e+02
-3.375374446499999976e+02
-3.375360924199999886e+02
-3.375352557900000079e+02
-3.375351182599999902e+02
-3.375359014699999989e+02
-3.375378415100000211e+02
-3.375411773999999809e+02
-3.375461278700000207e+02
-3.375528751900000088e+02
-3.372150797200000056e+02
-3.372103713500000026e+02
-3.372022141400000237e+02
-3.371908168100000012e+02
-3.371764706899999737e+02
-3.371595391100000256e+02
-3.371404414400000178e+02
-3.371196338699999728e+02
-3.370975977499999772e+02
-3.370748192699999777e+02
-3.360751292100000001e+02
-3.360738158600000247e+02
-3.360782595599999922e+02
-3.360884386199999767e+02
-3.361042644899999914e+02
-3.361255869500000131e+02
-3.361521873899999946e+02
-3.361837742199999752e+02
-3.362199940900000001e+02
-3.362604250599999887e+02
-3.378602728100000263e+02
-3.378653007899999920e+02
-3.378644369500000266e+02
-3.378578270699999848e+02
-3.378458128899999906e+02
-3.378289041200000042e+02
-3.378077561900000205e+02
-3.377831388700000161e+02
-3.377559058900000082e+02
-3.377269542799999726e+02
-3.376006713400000194e+02
-3.375908598299999994e+02
-3.375767078499999911e+02
-3.375586506399999962e+02
-3.375372571899999912e+02
-3.375132016900000167e+02
-3.374872400900000002e+02
-3.374601667000000020e+02
-3.374327843099999882e+02
-3.374058777000000191e+02
-3.376862877699999785e+02
-3.376851337300000182e+02
-3.376817374199999904e+02
-3.376762246900000264e+02
-3.376688084499999718e+02
-3.376597755299999903e+02
-3.376494827099999725e+02
-3.376383367899999826e+02
-3.376267861900000185e+02
-3.376153055899999913e+02
-3.367611511599999972e+02
-3.367699017499999741e+02
-3.367803551700000071e+02
-3.367923999500000036e+02
-3.368059259899999915e+02
-3.368208272800000032e+02
-3.368369992799999864e+02
-3.368543497800000068e+02
-3.368727846099999965e+02
-3.368922166899999979e+02
-3.377477920399999789e+02
-3.377485975100000246e+02
-3.377462800399999878e+02
-3.377409249400000135e+02
-3.377326891800000226e+02
-3.377217998500000249e+02
-3.377085415399999988e+02
-3.376932463900000130e+02
-3.376762818600000173e+02
-3.376580425799999716e+02
-3.373503542400000015e+02
-3.373631656200000180e+02
-3.373762402300000076e+02
-3.373893606099999829e+02
-3.374023690199999805e+02
-3.374151565899999810e+02
-3.374276661700000091e+02
-3.374398909799999728e+02
-3.374518631700000242e+02
-3.374636358100000280e+02
-3.380400471099999891e+02
-3.380360564800000134e+02
-3.380285090300000093e+02
-3.380175982599999998e+02
-3.380035818999999719e+02
-3.379867746400000215e+02
-3.379675348200000258e+02
-3.379462493999999992e+02
-3.379233257500000036e+02
-3.378991749200000072e+02
-3.380062949100000083e+02
-3.380046122900000114e+02
-3.379980361600000265e+02
-3.379867851299999870e+02
-3.379712036099999750e+02
-3.379517447200000220e+02
-3.379289449400000080e+02
-3.379033991800000081e+02
-3.378757395499999916e+02
-3.378465985700000260e+02
-3.359143800300000180e+02
-3.359220307499999763e+02
-3.359352220000000102e+02
-3.359537938600000189e+02
-3.359775194499999884e+02
-3.360061158199999909e+02
-3.360392404400000146e+02
-3.360764904700000102e+02
-3.361174171100000194e+02
-3.361615274900000259e+02
-3.368599367699999902e+02
-3.368765488099999743e+02
-3.368942646599999762e+02
-3.369128106900000148e+02
-3.369319183200000225e+02
-3.369513234300000022e+02
-3.369707842299999925e+02
-3.369900794600000040e+02
-3.370090213799999788e+02
-3.370274546200000145e+02
-3.375032655599999885e+02
-3.374996007500000132e+02
-3.374925303699999972e+02
-3.374822546199999920e+02
-3.374690727299999935e+02
-3.374533774999999878e+02
-3.374356331700000169e+02
-3.374163631299999793e+02
-3.373961236399999848e+02
-3.373754967899999997e+02
-3.375806820799999741e+02
-3.375752674799999795e+02
-3.375670913299999825e+02
-3.375563759099999857e+02
-3.375434451899999999e+02
-3.375287111800000162e+02
-3.375126504400000158e+02
-3.374957889300000033e+02
-3.374786713999999961e+02
-3.374618451399999799e+02
-3.381211255900000197e+02
-3.381212864899999886e+02
-3.381152994500000091e+02
-3.381033627499999739e+02
-3.380858605399999988e+02
-3.380633406200000195e+02
-3.380364920299999767e+02
-3.380061106399999744e+02
-3.379730603599999768e+02
-3.379382396299999982e+02
-3.369819531800000050e+02
-3.369789983800000073e+02
-3.369772169799999801e+02
-3.369767080899999883e+02
-3.369775786299999822e+02
-3.369799359500000264e+02
-3.369838886900000148e+02
-3.369895447100000183e+02
-3.369969960000000242e+02
-3.370063285200000109e+02
-3.371610431500000118e+02
-3.371600331399999959e+02
-3.371587485599999923e+02
-3.371573129999999878e+02
-3.371559007299999848e+02
-3.371547385100000156e+02
-3.371540864099999908e+02
-3.371542440200000215e+02
-3.371555266299999971e+02
-3.371582582699999762e+02
-3.378172002700000007e+02
-3.378116000800000052e+02
-3.378019283599999767e+02
-3.377884677800000190e+02
-3.377716051200000038e+02
-3.377518104200000266e+02
-3.377296288200000163e+02
-3.377056502699999783e+02
-3.376804977400000212e+02
-3.376548052399999733e+02
-3.380840159300000209e+02
-3.380822992500000055e+02
-3.380759593600000130e+02
-3.380651727200000209e+02
-3.380502350200000024e+02
-3.380315464299999917e+02
-3.380095892400000253e+02
-3.379849071699999854e+02
-3.379580842600000210e+02
-3.379297238300000004e+02
-3.378917101900000262e+02
-3.378891843999999764e+02
-3.378843623800000273e+02
-3.378774825899999996e+02
-3.378688606299999719e+02
-3.378588837699999772e+02
-3.378479991199999972e+02
-3.378366773299999863e+02
-3.378254131799999982e+02
-3.378146883300000241e+02
-3.376067663100000118e+02
-3.376028453399999876e+02
-3.375954014299999812e+02
-3.375845441299999834e+02
-3.375704666999999972e+02
-3.375534410700000194e+02
-3.375337993100000062e+02
-3.375119308700000147e+02
-3.374882606900000042e+02
-3.374632373900000175e+02
-3.373222349000000122e+02
-3.373232954599999971e+02
-3.373214309599999865e+02
-3.373167128700000035e+02
-3.373093011999999931e+02
-3.372994371899999919e+02
-3.372874267000000259e+02
-3.372736275600000226e+02
-3.372584298500000273e+02
-3.372422499400000220e+02
-3.378188855399999966e+02
-3.378146178700000064e+02
-3.378080972700000189e+02
-3.377994672899999955e+02
-3.377889274300000011e+02
-3.377767234199999962e+02
-3.377631524000000240e+02
-3.377485432600000195e+02
-3.377332524600000170e+02
-3.377176481199999785e+02
-3.367152737100000195e+02
-3.367075807599999848e+02
-3.367018262299999947e+02
-3.366981480700000020e+02
-3.366966869400000064e+02
-3.366975817499999835e+02
-3.367009718599999815e+02
-3.367069875600000159e+02
-3.367157479800000033e+02
-3.367273565400000166e+02
-3.372440070100000185e+02
-3.372447952399999735e+02
-3.372437640699999974e+02
-3.372409954199999902e+02
-3.372366701600000169e+02
-3.372310497199999872e+02
-3.372244800799999780e+02
-3.372173510599999986e+02
-3.372101010000000088e+02
-3.372031771499999877e+02
-3.373013420500000166e+02
-3.373059678999999846e+02
-3.373102606200000082e+02
-3.373141885699999989e+02
-3.373177786800000035e+02
-3.373211118500000225e+02
-3.373243163800000275e+02
-3.373275705799999855e+02
-3.373310903700000267e+02
-3.373351212700000019e+02
-3.377888752800000134e+02
-3.377923945499999832e+02
-3.377931013200000052e+02
-3.377910711399999855e+02
-3.377864891400000147e+02
-3.377796470499999941e+02
-3.377709195699999896e+02
-3.377607471700000019e+02
-3.377496082999999771e+02
-3.377379951300000016e+02
-3.373258118900000113e+02
-3.373308731299999863e+02
-3.373367210299999783e+02
-3.373433281299999749e+02
-3.373506728199999998e+02
-3.373587405700000090e+02
-3.373675308900000118e+02
-3.373770487699999876e+02
-3.373873095600000056e+02
-3.373983297600000242e+02
-3.378836058900000126e+02
-3.378811553900000035e+02
-3.378750844599999823e+02
-3.378656464300000266e+02
-3.378531905099999904e+02
-3.378381437400000209e+02
-3.378209942299999966e+02
-3.378022644600000035e+02
-3.377824845399999845e+02
-3.377621778299999846e+02
-3.374356847500000072e+02
-3.374403045899999825e+02
-3.374427384599999868e+02
-3.374429463100000248e+02
-3.374409615899999721e+02
-3.374368922400000201e+02
-3.374309134299999755e+02
-3.374232672900000125e+02
-3.374142467600000259e+02
-3.374041869199999724e+02
-3.380365895200000068e+02
-3.380345681700000000e+02
-3.380279571600000281e+02
-3.380169266300000004e+02
-3.380017639700000132e+02
-3.379828636699999720e+02
-3.379607037700000092e+02
-3.379358348100000171e+02
-3.379088553500000103e+02
-3.378803895199999943e+02
-3.372248649100000080e+02
-3.372210390299999858e+02
-3.372181103799999846e+02
-3.372161638700000026e+02
-3.372152921900000138e+02
-3.372155876599999829e+02
-3.372171425600000134e+02
-3.372200500199999738e+02
-3.372243967499999826e+02
-3.372302609399999938e+02
-3.374012584100000254e+02
-3.374009321600000249e+02
-3.374008820799999739e+02
-3.374012228999999934e+02
-3.374021458400000029e+02
-3.374039074699999787e+02
-3.374068006300000206e+02
-3.374111390200000073e+02
-3.374172255899999868e+02
-3.374253278400000227e+02
-3.377186206299999753e+02
-3.377167144499999836e+02
-3.377110685000000103e+02
-3.377018743500000255e+02
-3.376894078799999761e+02
-3.376740302100000122e+02
-3.376561612799999921e+02
-3.376362661800000069e+02
-3.376148400999999808e+02
-3.375923946799999840e+02
-3.380508074900000111e+02
-3.380481965700000160e+02
-3.380408639300000004e+02
-3.380290580000000205e+02
-3.380131654799999978e+02
-3.379936784700000203e+02
-3.379711682600000131e+02
-3.379462732900000219e+02
-3.379196556599999894e+02
-3.378919856200000140e+02
-3.379086545999999771e+02
-3.378977401399999962e+02
-3.378835207700000183e+02
-3.378663750800000116e+02
-3.378467834400000243e+02
-3.378252994200000217e+02
-3.378025280499999781e+02
-3.377791087699999935e+02
-3.377556904599999825e+02
-3.377329085000000077e+02
-3.373216858700000103e+02
-3.373178437099999769e+02
-3.373110498199999938e+02
-3.373014888299999825e+02
-3.372894460499999809e+02
-3.372752874799999745e+02
-3.372594469699999991e+02
-3.372424086799999827e+02
-3.372246906400000057e+02
-3.372068277700000181e+02
-3.369239928000000077e+02
-3.369290059900000074e+02
-3.369357416299999954e+02
-3.369440853199999992e+02
-3.369539254300000266e+02
-3.369651574100000175e+02
-3.369776849200000015e+02
-3.369914184200000022e+02
-3.370062829899999883e+02
-3.370222142399999825e+02
-3.375439955100000020e+02
-3.375495935700000132e+02
-3.375546623600000089e+02
-3.375591752500000098e+02
-3.375631444499999816e+02
-3.375666156500000170e+02
-3.375696630400000231e+02
-3.375723954299999718e+02
-3.375749414300000240e+02
-3.375774509099999818e+02
-3.372190180000000055e+02
-3.372170761799999923e+02
-3.372148024900000109e+02
-3.372122500899999977e+02
-3.372095417200000043e+02
-3.372068613700000128e+02
-3.372044489500000282e+02
-3.372025933099999975e+02
-3.372016250099999866e+02
-3.372019013099999825e+02
-3.375181233199999724e+02
-3.375152248399999735e+02
-3.375074376200000188e+02
-3.374950177000000053e+02
-3.374783663000000047e+02
-3.374580130100000019e+02
-3.374345827399999962e+02
-3.374087705700000015e+02
-3.373813209599999823e+02
-3.373529852699999765e+02
-3.376351967900000091e+02
-3.376320627599999966e+02
-3.376242959499999756e+02
-3.376122333499999968e+02
-3.375963398999999754e+02
-3.375771868599999834e+02
-3.375554111499999976e+02
-3.375317004999999995e+02
-3.375067461400000184e+02
-3.374812246100000266e+02
-3.374892110800000182e+02
-3.374818918299999950e+02
-3.374714366200000200e+02
-3.374580542499999751e+02
-3.374420584299999746e+02
-3.374238444399999821e+02
-3.374038815200000272e+02
-3.373826831599999991e+02
-3.373607998699999939e+02
-3.373387870299999918e+02
-3.376544580400000086e+02
-3.376537407899999721e+02
-3.376516792799999962e+02
-3.376484037000000171e+02
-3.376441106799999829e+02
-3.376390531900000269e+02
-3.376335340399999723e+02
-3.376278967399999829e+02
-3.376225112199999785e+02
-3.376177673000000254e+02
-3.378309117100000094e+02
-3.378286839900000018e+02
-3.378228012100000228e+02
-3.378134518400000275e+02
-3.378009243000000197e+02
-3.377855861099999970e+02
-3.377678786899999750e+02
-3.377482937799999831e+02
-3.377273626699999909e+02
-3.377056293399999731e+02
-3.378445669000000180e+02
-3.378447837800000002e+02
-3.378392868399999998e+02
-3.378282622599999740e+02
-3.378120580799999857e+02
-3.377911551500000087e+02
-3.377661528799999928e+02
-3.377377346499999931e+02
-3.377066405799999984e+02
-3.376736415099999817e+02
-3.370987363400000163e+02
-3.371087627100000077e+02
-3.371181955900000276e+02
-3.371270190500000012e+02
-3.371353322100000014e+02
-3.371433387600000060e+02
-3.371513230200000066e+02
-3.371596277300000111e+02
-3.371686176100000125e+02
-3.371786590699999806e+02
-3.376212845200000174e+02
-3.376197405699999763e+02
-3.376139830999999845e+02
-3.376041357299999959e+02
-3.375904263900000046e+02
-3.375731838899999957e+02
-3.375528218000000038e+02
-3.375298150300000088e+02
-3.375046935299999973e+02
-3.374780150500000104e+02
-3.377287479500000131e+02
-3.377356262600000036e+02
-3.377393395099999793e+02
-3.377399699299999725e+02
-3.377377110099999982e+02
-3.377328734800000234e+02
-3.377258608199999799e+02
-3.377171536600000081e+02
-3.377072926299999835e+02
-3.376968478699999991e+02
-3.358312887800000226e+02
-3.358400969099999998e+02
-3.358552697800000146e+02
-3.358767300599999999e+02
-3.359044122299999913e+02
-3.359382431500000052e+02
-3.359781018300000142e+02
-3.360237809700000184e+02
-3.360749641699999870e+02
-3.361311784200000261e+02
-3.377970169399999918e+02
-3.377941229900000053e+02
-3.377872313899999881e+02
-3.377765123899999935e+02
-3.377622259899999904e+02
-3.377447083100000214e+02
-3.377243575400000282e+02
-3.377016189099999792e+02
-3.376769712000000254e+02
-3.376509100200000262e+02
-3.376863908999999921e+02
-3.376815324699999792e+02
-3.376753597700000000e+02
-3.376680800500000146e+02
-3.376599931499999911e+02
-3.376514752400000248e+02
-3.376429561200000080e+02
-3.376349046700000258e+02
-3.376277990199999977e+02
-3.376220986199999743e+02
-3.378563257299999805e+02
-3.378536264499999788e+02
-3.378466296600000192e+02
-3.378354953200000068e+02
-3.378204975400000194e+02
-3.378020181499999808e+02
-3.377805225399999927e+02
-3.377565423699999769e+02
-3.377306519900000126e+02
-3.377034422300000074e+02
-3.373452694800000131e+02
-3.373404661100000226e+02
-3.373318443800000068e+02
-3.373197226699999760e+02
-3.373045756099999721e+02
-3.372870050000000219e+02
-3.372677113400000053e+02
-3.372474590400000238e+02
-3.372270374600000196e+02
-3.372072312999999895e+02
-3.380680539400000271e+02
-3.380678404500000056e+02
-3.380633960999999772e+02
-3.380548804900000164e+02
-3.380425792099999853e+02
-3.380268917299999885e+02
-3.380083177399999954e+02
-3.379874304599999846e+02
-3.379648565699999949e+02
-3.379412572599999862e+02
-3.376014263600000049e+02
-3.376201269700000012e+02
-3.376373274399999787e+02
-3.376527712199999769e+02
-3.376662771800000087e+02
-3.376777435600000103e+02
-3.376871575299999790e+02
-3.376945895000000064e+02
-3.377001986899999793e+02
-3.377042122099999801e+02
-3.375766549200000100e+02
-3.375845224899999835e+02
-3.375902184799999759e+02
-3.375936706900000104e+02
-3.375949218700000074e+02
-3.375941285100000187e+02
-3.375915450900000110e+02
-3.375875072700000032e+02
-3.375824033499999928e+02
-3.375766538299999979e+02
-3.374289806400000202e+02
-3.374310726799999998e+02
-3.374326123999999822e+02
-3.374336085099999991e+02
-3.374340991099999769e+02
-3.374341551300000219e+02
-3.374338791100000208e+02
-3.374333966799999871e+02
-3.374328560199999743e+02
-3.374324182899999869e+02
-3.379550529599999891e+02
-3.379558581399999753e+02
-3.379516778000000272e+02
-3.379426511099999857e+02
-3.379290378700000019e+02
-3.379112047500000244e+02
-3.378896000799999797e+02
-3.378647495999999819e+02
-3.378372158500000069e+02
-3.378075829800000065e+02
-3.375128495299999827e+02
-3.375117234800000006e+02
-3.375071496900000056e+02
-3.374991913100000147e+02
-3.374880288599999858e+02
-3.374739373500000283e+02
-3.374572808099999861e+02
-3.374384920100000045e+02
-3.374180558699999892e+02
-3.373964812400000142e+02
-3.376691291800000272e+02
-3.376680852599999980e+02
-3.376628460900000164e+02
-3.376535919300000046e+02
-3.376406078800000046e+02
-3.376242817599999739e+02
-3.376050780900000063e+02
-3.375835274600000275e+02
-3.375601967000000059e+02
-3.375356821500000137e+02
-3.368590720700000247e+02
-3.368620977699999912e+02
-3.368664461199999778e+02
-3.368720675499999970e+02
-3.368789213499999846e+02
-3.368869710399999917e+02
-3.368961876500000017e+02
-3.369065519700000095e+02
-3.369180475300000239e+02
-3.369306578599999966e+02
-3.358698216000000230e+02
-3.358667121400000042e+02
-3.358765643699999828e+02
-3.358993144799999868e+02
-3.359347334999999930e+02
-3.359824000899999987e+02
-3.360416646900000046e+02
-3.361116252900000063e+02
-3.361910972599999923e+02
-3.362786100899999724e+02
-3.367116129699999760e+02
-3.367241924200000085e+02
-3.367396014999999920e+02