-3.388525130599999784e+02
-3.388500713999999903e+02
-3.388428229900000019e+02
-3.388309389099999862e+02
-3.388146965700000237e+02
-3.387944642200000089e+02
-3.387706883399999924e+02
-3.387438757900000041e+02
-3.387145682500000134e+02
-3.386833260500000051e+02
-3.383036280900000179e+02
-3.383040356600000109e+02
-3.383007897300000195e+02
-3.382940022199999817e+02
-3.382838774599999851e+02
-3.382707018199999993e+02
-3.382548359499999719e+02
-3.382366944899999908e+02
-3.382167348799999900e+02
-3.381954373099999884e+02
-3.374453562499999748e+02
-3.374407972399999949e+02
-3.374389493599999810e+02
-3.374399959799999920e+02
-3.374441363099999762e+02
-3.374515808900000025e+02
-3.374625222600000143e+02
-3.374771149100000116e+02
-3.374954538599999978e+02
-3.375175487800000269e+02
-3.383093629599999872e+02
-3.383086590099999853e+02
-3.383049738799999773e+02
-3.382984275800000091e+02
-3.382892189400000120e+02
-3.382776177100000154e+02
-3.382639584600000262e+02
-3.382486278100000163e+02
-3.382320468199999937e+02
-3.382146625199999903e+02
-3.384787564000000089e+02
-3.384702079799999979e+02
-3.384566589500000191e+02
-3.384384937699999796e+02
-3.384162120199999890e+02
-3.383904037199999948e+02
-3.383617241000000035e+02
-3.383308713299999795e+02
-3.382985608000000184e+02
-3.382654989399999863e+02
-3.370825524900000119e+02
-3.370794128000000001e+02
-3.370752352299999757e+02
-3.370702312799999731e+02
-3.370646920099999875e+02
-3.370589846699999725e+02
-3.370535168000000112e+02
-3.370487171899999908e+02
-3.370450103399999762e+02
-3.370427859700000113e+02
-3.378203670999999986e+02
-3.378156115900000032e+02
-3.378099510499999951e+02
-3.378037893000000054e+02
-3.377976469299999849e+02
-3.377921296000000098e+02
-3.377878911500000072e+02
-3.377855933800000230e+02
-3.377858752600000116e+02
-3.377893086500000095e+02
-3.374466216700000132e+02
-3.374528166700000043e+02
-3.374611858800000164e+02
-3.374718596299999831e+02
-3.374850050499999838e+02
-3.375008080299999733e+02
-3.375194381399999770e+02
-3.375410219899999902e+02
-3.375656121999999755e+02
-3.375931607900000131e+02
-3.380689779400000248e+02
-3.380770159599999829e+02
-3.380826189699999986e+02
-3.380859142300000144e+02
-3.380871390600000268e+02
-3.380866383700000029e+02
-3.380848291300000028e+02
-3.380821706799999902e+02
-3.380791478599999778e+02
-3.380762305800000149e+02
-3.384173996600000009e+02
-3.384129142699999875e+02
-3.384041880500000161e+02
-3.383913670000000025e+02
-3.383746961499999770e+02
-3.383545110499999851e+02
-3.383312195699999734e+02
-3.383052832199999784e+02
-3.382772035500000243e+02
-3.382475031000000172e+02
-3.381449854599999867e+02
-3.381481109599999968e+02
-3.381494726099999752e+02
-3.381491922999999815e+02
-3.381474717199999986e+02
-3.381445901600000070e+02
-3.381408732699999860e+02
-3.381366851500000053e+02
-3.381323986799999943e+02
-3.381283804199999850e+02
-3.382386863199999993e+02
-3.382371189899999990e+02
-3.382297846999999820e+02
-3.382168732700000078e+02
-3.381987525100000198e+02
-3.381759364200000277e+02
-3.381490670000000023e+02
-3.381188798700000007e+02
-3.380861736400000268e+02
-3.380517794099999946e+02
-3.379751552600000082e+02
-3.379750597199999902e+02
-3.379699393399999963e+02
-3.379598924399999760e+02
-3.379451560200000131e+02
-3.379260861800000271e+02
-3.379031490200000007e+02
-3.378768947400000116e+02
-3.378479391100000271e+02
-3.378169387099999881e+02
-3.379357719800000268e+02
-3.379286099700000250e+02
-3.379197162400000138e+02
-3.379092575899999815e+02
-3.378974510599999803e+02
-3.378845622399999797e+02
-3.378708959300000174e+02
-3.378567871100000275e+02
-3.378425859500000001e+02
-3.378286515300000019e+02
-3.377460481699999946e+02
-3.377475041499999975e+02
-3.377501887500000066e+02
-3.377541977600000109e+02
-3.377596652600000198e+02
-3.377667516700000192e+02
-3.377756243900000186e+02
-3.377864417900000262e+02
-3.377993314400000031e+02
-3.378143706000000179e+02
-3.381037762600000178e+02
-3.381009849100000224e+02
-3.380945505700000240e+02
-3.380845836899999881e+02
-3.380712895799999842e+02
-3.380549627600000235e+02
-3.380359757100000024e+02
-3.380147640600000045e+02
-3.379918091000000118e+02
-3.379676232799999980e+02
-3.383168034600000169e+02
-3.383154118499999754e+02
-3.383089054399999895e+02
-3.382975232599999913e+02
-3.382816424299999767e+02
-3.382617573100000072e+02
-3.382384566999999720e+02
-3.382123937000000069e+02
-3.381842633800000044e+02
-3.381547670400000243e+02
-3.380465695600000231e+02
-3.380553372599999875e+02
-3.380611161100000004e+02
-3.380638476500000138e+02
-3.380635792200000083e+02
-3.380604722599999832e+02
-3.380547887199999764e+02
-3.380468787799999859e+02
-3.380371548900000107e+02
-3.380260806200000161e+02
-3.385661974299999883e+02
-3.385688279099999818e+02
-3.385677720599999816e+02
-3.385631497200000126e+02
-3.385551696200000151e+02
-3.385441316000000143e+02
-3.385304073500000186e+02
-3.385144264599999815e+02
-3.384966616799999883e+02
-3.384776107600000046e+02
-3.383787152799999944e+02
-3.383803917899999760e+02
-3.383787290800000278e+02
-3.383738753499999916e+02
-3.383660991899999999e+02
-3.383557764500000076e+02
-3.383433720400000198e+02
-3.383294096299999865e+02
-3.383144493899999929e+02
-3.382990617300000054e+02
-3.374048919900000101e+02
-3.374019953900000246e+02
-3.374017883099999722e+02
-3.374043007999999872e+02
-3.374095746200000008e+02
-3.374176500500000202e+02
-3.374285562800000093e+02
-3.374422987600000283e+02
-3.374588493300000209e+02
-3.374781324799999993e+02
-3.383476050599999780e+02
-3.383412372500000060e+02
-3.383306736700000101e+02
-3.383161408199999869e+02
-3.382979519599999776e+02
-3.382764887999999814e+02
-3.382521878300000253e+02
-3.382255161499999758e+02
-3.381969653900000026e+02
-3.381670336500000076e+02
-3.382773020999999858e+02
-3.382702100600000108e+02
-3.382588498999999729e+02
-3.382435029900000245e+02
-3.382245712499999968e+02
-3.382025623700000097e+02
-3.381780650900000182e+02
-3.381517247500000281e+02
-3.381242173399999729e+02
-3.380962318900000128e+02
-3.383090454499999851e+02
-3.383047308499999986e+02
-3.382959912399999780e+02
-3.382830519899999899e+02
-3.382662858099999994e+02
-3.382461910800000169e+02
-3.382233635800000116e+02
-3.381984761300000173e+02
-3.381722350200000164e+02
-3.381453590099999928e+02
-3.381141798300000119e+02
-3.381111074099999882e+02
-3.381067293599999743e+02
-3.381011635500000239e+02
-3.380945811500000104e+02
-3.380872013599999946e+02
-3.380792941899999846e+02
-3.380711628299999916e+02
-3.380631346499999950e+02
-3.380555561300000136e+02
-3.381683534000000009e+02
-3.381690922199999818e+02
-3.381658542399999874e+02
-3.381587728599999991e+02
-3.381480908199999931e+02
-3.381341540099999747e+02
-3.381173885900000187e+02
-3.380982889900000146e+02
-3.380773961099999951e+02
-3.380552816699999994e+02
-3.368712780199999770e+02
-3.368840087099999892e+02
-3.369015117000000146e+02
-3.369234118800000033e+02
-3.369493077899999776e+02
-3.369787848299999951e+02
-3.370114110499999924e+02
-3.370467405599999893e+02
-3.370843165100000078e+02
-3.371236590400000068e+02
-3.381748287600000253e+02
-3.381732889200000045e+02
-3.381688274800000045e+02
-3.381616510000000062e+02
-3.381520515999999930e+02
-3.381403986899999836e+02
-3.381271234899999740e+02
-3.381127090200000112e+02
-3.380976673100000198e+02
-3.380825308700000278e+02
-3.377488978999999745e+02
-3.377521567100000084e+02
-3.377515672700000096e+02
-3.377472601599999962e+02
-3.377394755000000259e+02
-3.377285447200000021e+02
-3.377148830900000007e+02
-3.376989719200000195e+02
-3.376813442999999779e+02
-3.376625557699999831e+02
-3.385313966599999844e+02
-3.385310691899999824e+02
-3.385255504500000256e+02
-3.385149861799999940e+02
-3.384996566799999869e+02
-3.384799737999999820e+02
-3.384564500100000259e+02
-3.384296827900000153e+02
-3.384003306800000246e+02
-3.383690800800000034e+02
-3.375054613600000266e+02
-3.375128408799999988e+02
-3.375194846800000050e+02
-3.375253232300000263e+02
-3.375303316999999765e+02
-3.375345199600000115e+02
-3.375379435799999897e+02
-3.375406936200000132e+02
-3.375428898100000197e+02
-3.375446786399999723e+02
-3.381694832700000006e+02
-3.381642711700000064e+02
-3.381555417399999897e+02
-3.381435777199999961e+02
-3.381287746400000174e+02
-3.381116163500000198e+02
-3.380926573799999915e+02
-3.380724941700000272e+02
-3.380517384300000003e+02
-3.380309946300000092e+02
-3.370063620099999753e+02
-3.370213259700000208e+02
-3.370420928099999855e+02
-3.370683046400000080e+02
-3.370995527000000038e+02
-3.371353757599999881e+02
-3.371752558599999929e+02
-3.372186290500000041e+02
-3.372648769599999810e+02
-3.373133417399999985e+02
-3.384961570799999890e+02
-3.384976160100000016e+02
-3.384945049199999971e+02
-3.384869452600000272e+02
-3.384751882200000068e+02
-3.384595982199999753e+02
-3.384406393099999946e+02
-3.384188479000000029e+02
-3.383948233400000163e+02
-3.383691836799999919e+02
-3.376670818900000199e+02
-3.376603690000000029e+02
-3.376521024599999805e+02
-3.376424627000000100e+02
-3.376316767600000048e+02
-3.376200036899999759e+02
-3.376077289799999903e+02
-3.375951561100000049e+02
-3.375825919200000271e+02
-3.375703382799999872e+02
-3.382705096000000253e+02
-3.382677781500000265e+02
-3.382616933099999983e+02
-3.382524581900000271e+02
-3.382403597399999740e+02
-3.382257610099999852e+02
-3.382090816799999970e+02
-3.381907880200000136e+02
-3.381713706699999875e+02
-3.381513280300000019e+02
-3.382000891100000217e+02
-3.382038018800000145e+02
-3.382045627800000034e+02
-3.382024793400000249e+02
-3.381977769599999988e+02
-3.381907766599999832e+02
-3.381818877399999792e+02
-3.381715750199999775e+02
-3.381603465900000174e+02
-3.381487211699999875e+02
-3.380026609600000143e+02
-3.379991459299999974e+02
-3.379926303400000052e+02
-3.379832742799999892e+02
-3.379713460300000065e+02
-3.379572135099999741e+02
-3.379413342899999861e+02
-3.379242210500000283e+02
-3.379064365500000235e+02
-3.378885609100000238e+02
-3.384335724100000107e+02
-3.384326870200000030e+02
-3.384282431199999905e+02
-3.384204414999999813e+02
-3.384096307199999956e+02
-3.383962866900000108e+02
-3.383809807499999920e+02
-3.383643572099999801e+02
-3.383470944200000190e+02
-3.383298740299999849e+02
-3.378175972399999978e+02
-3.378110142799999949e+02
-3.378027611100000058e+02
-3.377930160399999977e+02
-3.377820485999999960e+02
-3.377702125499999966e+02
-3.377579318800000010e+02
-3.377456767799999966e+02
-3.377339498200000207e+02
-3.377232621100000074e+02
-3.380438892399999986e+02
-3.380521773300000064e+02
-3.380599323299999810e+02
-3.380670516800000200e+02
-3.380734783699999753e+02
-3.380791987800000129e+02
-3.380842457499999796e+02
-3.380886974399999758e+02
-3.380926699699999745e+02
-3.380963222600000222e+02
-3.378393033899999978e+02
-3.378358514000000241e+02
-3.378299712099999965e+02
-3.378217536199999813e+02
-3.378113520499999822e+02
-3.377989699899999891e+02
-3.377848648400000116e+02
-3.377693269600000008e+02
-3.377526819500000101e+02
-3.377352705399999877e+02
-3.379922479100000032e+02
-3.379904741799999783e+02
-3.379862383199999840e+02
-3.379796682799999985e+02
-3.379709630400000151e+02
-3.379603879900000152e+02
-3.379482657400000107e+02
-3.379349702200000252e+02
-3.379209120500000267e+02
-3.379065281100000107e+02
-3.379781809599999747e+02
-3.379745040700000231e+02
-3.379688796500000194e+02
-3.379614941599999725e+02
-3.379525923100000000e+02
-3.379424572300000023e+02
-3.379314169099999958e+02
-3.379198170500000060e+02
-3.379080205899999783e+02
-3.378963918800000101e+02
-3.377578148200000214e+02
-3.377554854800000044e+02
-3.377524390199999971e+02
-3.377487014800000225e+02
-3.377443244500000219e+02
-3.377393842600000085e+02
-3.377339726499999983e+02
-3.377281978500000150e+02
-3.377221867499999917e+02
-3.377160638799999788e+02
-3.380148209600000087e+02
-3.380128034100000036e+02
-3.380068935300000135e+02
-3.379972028500000079e+02
-3.379839440599999989e+02
-3.379674359399999730e+02
-3.379480890799999884e+02
-3.379263899000000038e+02
-3.379028855899999826e+02
-3.378781662800000163e+02
-3.379952385099999788e+02
-3.379888082300000178e+02
-3.379790532000000098e+02
-3.379662289899999905e+02
-3.379506743100000108e+02
-3.379327956600000107e+02
-3.379130569199999741e+02
-3.378919572799999855e+02
-3.378700208100000282e+02
-3.378477715700000203e+02
-3.373631799999999998e+02
-3.373716895700000009e+02
-3.373809618299999897e+02
-3.373908820400000081e+02
-3.374013545399999998e+02
-3.374123093599999947e+02
-3.374236952599999881e+02
-3.374354954600000269e+02
-3.374477150700000152e+02
-3.374603858699999819e+02
-3.382221964899999875e+02
-3.382203338400000234e+02
-3.382136658499999839e+02
-3.382023579500000210e+02
-3.381866866400000049e+02
-3.381670320999999717e+02
-3.381438610000000153e+02
-3.381177038800000219e+02
-3.380891377899999952e+02
-3.380587615100000107e+02
-3.378791613700000198e+02
-3.378783333299999754e+02
-3.378767764899999975e+02
-3.378745949199999927e+02
-3.378719774499999744e+02
-3.378691926600000102e+02
-3.378665636499999891e+02
-3.378644522100000245e+02
-3.378632331000000022e+02
-3.378632726600000069e+02
-3.381253391999999849e+02
-3.381278417699999750e+02
-3.381263519299999984e+02
-3.381209388300000001e+02
-3.381117783999999915e+02
-3.380991461899999990e+02
-3.380834051100000011e+02
-3.380649917800000139e+02
-3.380443988100000183e+02
-3.380221580400000221e+02
-3.377229623999999717e+02
-3.377227068700000245e+02
-3.377225017499999922e+02
-3.377224022899999909e+02
-3.377224842900000112e+02
-3.377228428000000235e+02
-3.377235878000000184e+02
-3.377248415199999840e+02
-3.377267317600000069e+02
-3.377293832500000121e+02
-3.380838186999999948e+02
-3.380781408299999953e+02
-3.380708056600000191e+02
-3.380620294199999876e+02
-3.380520775100000037e+02
-3.380412641099999860e+02
-3.380299400900000251e+02
-3.380184774400000265e+02
-3.380072684099999947e+02
-3.379967042299999775e+02
-3.366409603100000254e+02
-3.366678824300000201e+02
-3.367028965200000243e+02
-3.367453494599999999e+02
-3.367945130599999857e+02
-3.368495664100000226e+02
-3.369096063299999742e+02
-3.369736535900000263e+02
-3.370406752700000084e+02
-3.371095911900000033e+02
-3.381425121199999921e+02
-3.381383334299999888e+02
-3.381307163999999830e+02
-3.381199252900000261e+02
-3.381063431300000275e+02
-3.380904550000000199e+02
-3.380728258099999834e+02
-3.380540660199999934e+02
-3.380348068199999716e+02
-3.380156767299999956e+02
-3.373718658099999743e+02
-3.373796652899999913e+02
-3.373866301499999736e+02
-3.373927165700000046e+02
-3.373979112600000008e+02
-3.374022502500000087e+02
-3.374058062199999881e+02
-3.374086947000000123e+02
-3.374110626699999784e+02
-3.374130830400000036e+02
-3.383866879099999778e+02
-3.383841520899999864e+02
-3.383782198200000266e+02
-3.383691111200000137e+02
-3.383571595099999740e+02
-3.383428026899999850e+02
-3.383265543800000046e+02
-3.383089823700000238e+02
-3.382906886999999756e+02
-3.382722759100000189e+02
-3.379715149799999949e+02
-3.379701542000000245e+02
-3.379656657699999869e+02
-3.379581473999999730e+02
-3.379477836400000115e+02
-3.379348461600000064e+02
-3.379196827000000098e+02
-3.379027000799999882e+02
-3.378843536599999879e+02
-3.378651309200000128e+02
-3.382362134300000207e+02
-3.382323914400000149e+02
-3.382245247000000177e+02
-3.382127696200000173e+02
-3.381974094899999841e+02
-3.381788482200000203e+02
-3.381575823300000252e+02
-3.381341861000000222e+02
-3.381092805399999861e+02
-3.380835135799999875e+02
-3.380243708500000253e+02
-3.380178258600000163e+02
-3.380081119700000158e+02
-3.379954688899999837e+02
-3.379802871599999889e+02
-3.379630746700000259e+02
-3.379444500600000083e+02
-3.379250944400000094e+02
-3.379057302200000095e+02
-3.378870811599999797e+02
-3.376495226399999865e+02
-3.376380160100000012e+02
-3.376271593100000246e+02
-3.376171789900000135e+02
-3.376083233699999937e+02
-3.376008422799999948e+02
-3.375949931399999855e+02
-3.375910093699999948e+02
-3.375891058600000179e+02
-3.375894534199999839e+02
-3.381633271300000274e+02
-3.381606366299999991e+02
-3.381552169500000105e+02
-3.381472683100000154e+02
-3.381370737299999973e+02
-3.381249850599999718e+02
-3.381114125299999955e+02
-3.380968102900000076e+02
-3.380816588600000046e+02
-3.380664534000000003e+02
-3.367683767600000238e+02
-3.367706016000000204e+02
-3.367747238499999867e+02
-3.367807466900000009e+02
-3.367886744400000225e+02
-3.367985201399999937e+02
-3.368102955800000018e+02
-3.368240163899999970e+02
-3.368396977300000117e+02
-3.368573529500000063e+02
-3.382139220999999907e+02
-3.382007225099999914e+02
-3.381850122499999998e+02
-3.381671012499999733e+02
-3.381473565699999995e+02
-3.381261890000000108e+02
-3.381040410699999939e+02
-3.380813710799999967e+02
-3.380586419399999727e+02
-3.380363117100000068e+02
-3.373948757399999749e+02
-3.373985210399999914e+02
-3.374024669099999869e+02
-3.374066656400000284e+02
-3.374110789999999724e+02
-3.374156830700000000e+02
-3.374204697999999780e+02
-3.374254374399999961e+02
-3.374305966599999920e+02
-3.374359698200000253e+02
-3.380891927900000269e+02
-3.380935540699999819e+02
-3.380957786100000249e+02
-3.380959392999999977e+02
-3.380941910500000063e+02
-3.380907555599999910e+02
-3.380859033099999920e+02
-3.380799486000000229e+02
-3.380732253300000139e+02
-3.380660711599999786e+02
-3.385315193900000281e+02
-3.385354158999999754e+02
-3.385349050099999886e+02
-3.385300594400000023e+02
-3.385210794700000179e+02
-3.385082770500000038e+02
-3.384920608699999889e+02
-3.384729227700000251e+02
-3.384514126000000260e+02
-3.384281126700000186e+02
-3.379640916800000241e+02
-3.379620793500000104e+02
-3.379577675400000203e+02
-3.379512832699999763e+02
-3.379428263899999934e+02
-3.379326587200000063e+02
-3.379210981400000264e+02
-3.379085037799999895e+02
-3.378952640699999961e+02
-3.378817827400000056e+02
-3.374803065899999979e+02
-3.374887525699999742e+02
-3.374987757800000168e+02
-3.375102737500000103e+02
-3.375231577900000275e+02
-3.375373477699999967e+02
-3.375527768000000037e+02
-3.375693950900000004e+02
-3.375871560900000077e+02
-3.376060272299999951e+02
-3.382578418900000088e+02
-3.382526461699999913e+02
-3.382431972499999802e+02
-3.382297002299999917e+02
-3.382124796900000092e+02
-3.381919670300000007e+02
-3.381686826800000176e+02
-3.381432163700000046e+02
-3.381162076100000036e+02
-3.380883288900000139e+02
-3.378062042799999745e+02
-3.378093282799999884e+02
-3.378106538499999942e+02
-3.378101380499999777e+02
-3.378078157499999747e+02
-3.378038007399999856e+02
-3.377982820899999865e+02
-3.377915153000000146e+02
-3.377838087999999743e+02
-3.377755305200000180e+02
-3.382094955700000014e+02
-3.382018738900000017e+02
-3.381899237499999913e+02
-3.381739181099999882e+02
-3.381542407399999774e+02
-3.381313794499999972e+02
-3.381058952399999953e+02
-3.380784034700000120e+02
-3.380495570400000247e+02
-3.380200151899999810e+02
-3.380856877400000258e+02
-3.380783455900000263e+02
-3.380663813599999798e+02
-3.380500577299999918e+02
-3.380297435900000096e+02
-3.380058875899999862e+02
-3.379790050999999949e+02
-3.379496577799999955e+02
-3.379184327899999971e+02
-3.378859275699999785e+02
-3.379444221599999878e+02
-3.379445041500000002e+02
-3.379407125800000244e+02
-3.379331859999999779e+02
-3.379221622700000012e+02
-3.379079712100000279e+02
-3.378910100300000181e+02
-3.378717430799999875e+02
-3.378506765600000108e+02
-3.378283333800000037e+02
-3.379976866299999756e+02
-3.380021864400000027e+02
-3.380046567800000048e+02
-3.380051042800000118e+02
-3.380036208899999792e+02
-3.380003904299999817e+02
-3.379956770100000085e+02
-3.379898123400000145e+02
-3.379831813100000204e+02
-3.379762130500000126e+02
-3.366599379200000044e+02
-3.366815424299999790e+02
-3.367116111500000102e+02
-3.367496571400000107e+02
-3.367951002199999948e+02
-3.368472577699999988e+02
-3.369053482599999825e+02
-3.369684876700000018e+02
-3.370356980500000077e+02
-3.371059274699999833e+02
-3.382759992599999919e+02
-3.382771099099999788e+02
-3.382740074299999833e+02
-3.382667935000000057e+02
-3.382557062100000280e+02
-3.382411019499999725e+02
-3.382234411599999930e+02
-3.382032624700000270e+02
-3.381811660299999858e+02
-3.381577846199999726e+02
-3.372076098200000160e+02
-3.372217141500000253e+02
-3.372368350799999916e+02
-3.372527807700000153e+02
-3.372693757399999868e+02
-3.372864651200000026e+02
-3.373039153099999794e+02
-3.373216226299999789e+02
-3.373395129799999950e+02
-3.373575364700000137e+02
-3.372306395400000270e+02
-3.372468375899999842e+02
-3.372656338799999958e+02
-3.372867440399999737e+02
-3.373098820199999750e+02
-3.373347550999999953e+02
-3.373610838399999921e+02
-3.373885964400000148e+02
-3.374170426700000007e+02
-3.374461953499999822e+02
-3.377839448700000275e+02
-3.377802211800000123e+02
-3.377739234300000248e+02
-3.377652159699999856e+02
-3.377543469600000208e+02
-3.377416458700000135e+02
-3.377275083800000175e+02
-3.377123827600000254e+02
-3.376967575200000056e+02
-3.376811446199999978e+02
-3.382116083799999728e+02
-3.382138906199999724e+02
-3.382122003399999812e+02
-3.382067028600000071e+02
-3.381976639200000250e+02
-3.381854465999999775e+02
-3.381704930099999729e+02
-3.381533056499999930e+02
-3.381344331999999895e+02
-3.381144414999999981e+02
-3.384135074700000132e+02
-3.384062814200000275e+02
-3.383960091899999725e+02
-3.383829842700000086e+02
-3.383676127599999859e+02
-3.383503915800000073e+02
-3.383318825499999889e+02
-3.383126938300000006e+02
-3.382934510100000125e+02
-3.382747714700000188e+02
-3.381812734100000171e+02
-3.381821456199999716e+02
-3.381791311100000144e+02
-3.381722432799999751e+02
-3.381615932500000099e+02
-3.381473808999999733e+02
-3.381298927299999946e+02
-3.381094826199999943e+02
-3.380865621600000281e+02
-3.380615845799999875e+02
-3.383211753900000076e+02
-3.383181265800000119e+02
-3.383105448000000024e+02
-3.382986082599999804e+02
-3.382825992799999995e+02
-3.382628937599999972e+02
-3.382399474499999883e+02
-3.382142710100000045e+02
-3.381864171899999860e+02
-3.381569595400000026e+02
-3.373857246100000111e+02
-3.373994164900000214e+02
-3.374112939799999822e+02
-3.374212537500000053e+02
-3.374292616899999757e+02
-3.374353588800000239e+02
-3.374396722600000089e+02
-3.374423943900000040e+02
-3.374437857400000098e+02
-3.374441582000000039e+02
-3.353336870599999884e+02
-3.353478039500000136e+02
-3.353772450299999832e+02
-3.354215201399999842e+02
-3.354798785799999905e+02
-3.355512822800000095e+02
-3.356343895499999803e+02
-3.357275449100000060e+02
-3.358288020699999947e+02
-3.359359824000000003e+02
-3.374289694700000268e+02
-3.374404475599999955e+02
-3.374539555000000064e+02
-3.374693657999999914e+02
-3.374865426599999978e+02
-3.375053587500000276e+02
-3.375256942799999820e+02
-3.375474302299999749e+02
-3.375704627599999981e+02
-3.375946931799999788e+02
-3.382877645400000119e+02
-3.382835541000000035e+02
-3.382751458700000171e+02
-3.382628301099999817e+02
-3.382470075300000190e+02
-3.382281682199999864e+02
-3.382068717099999731e+02
-3.381837199299999952e+02
-3.381593338499999959e+02
-3.381343338400000107e+02
-3.377262046100000248e+02
-3.377128892100000144e+02
-3.376991075199999841e+02
-3.376854263999999830e+02
-3.376724314400000253e+02
-3.376606944200000271e+02
-3.376507456499999762e+02
-3.376430492399999821e+02
-3.376379831500000250e+02
-3.376358152299999915e+02
-3.374111513500000115e+02
-3.374203853800000275e+02
-3.374307061499999918e+02
-3.374420292699999777e+02
-3.374542731000000231e+02
-3.374673612400000025e+02
-3.374812239500000146e+02
-3.374957936399999880e+02
-3.375110055000000102e+02
-3.375267985699999826e+02
-3.380071110999999746e+02
-3.380005522100000235e+02
-3.379916502500000206e+02
-3.379805548699999918e+02
-3.379674755699999764e+02
-3.379526711600000226e+02
-3.379364404799999875e+02
-3.379191114000000198e+02
-3.379010325400000170e+02
-3.378825600800000188e+02
-3.382952951199999916e+02
-3.382937158099999806e+02
-3.382886875400000122e+02
-3.382804024100000220e+02
-3.382691658200000120e+02
-3.382553858800000057e+02
-3.382395559199999866e+02
-3.382222364599999764e+02
-3.382040346200000158e+02
-3.381855813000000239e+02
-3.378757651999999894e+02
-3.378764376899999888e+02
-3.378746609600000284e+02
-3.378705353299999956e+02
-3.378642705699999738e+02
-3.378561734200000046e+02
-3.378466262599999936e+02
-3.378360671799999864e+02
-3.378249656500000242e+02
-3.378137996699999803e+02
-3.380168293899999981e+02
-3.380120693200000233e+02
-3.380030251499999849e+02
-3.379899443900000051e+02
-3.379731718300000125e+02
-3.379531331300000261e+02
-3.379303202699999815e+02
-3.379052700099999811e+02
-3.378785453200000006e+02
-3.378507122600000230e+02
-3.378130510199999890e+02
-3.378231578300000137e+02
-3.378327000500000281e+02
-3.378416179800000236e+02
-3.378499228499999845e+02
-3.378576855200000182e+02
-3.378650306299999784e+02
-3.378721161400000028e+02
-3.378791215900000111e+02
-3.378862273400000049e+02
-3.384120881800000120e+02
-3.384091490600000043e+02
-3.384021006400000147e+02
-3.383911657799999944e+02
-3.383766774700000042e+02
-3.383590596500000061e+02
-3.383388175800000113e+02
-3.383165075699999989e+02
-3.382927284699999859e+02
-3.382680978999999866e+02
-3.379797798800000237e+02
-3.379743124600000215e+02
-3.379654050199999915e+02
-3.379533795500000224e+02
-3.379386767799999802e+02
-3.379218241500000204e+02
-3.379034243099999912e+02
-3.378841156700000283e+02
-3.378645493899999792e+02
-3.378453660999999784e+02
-3.381344745800000169e+02
-3.381292347199999995e+02
-3.381214401500000122e+02
-3.381112871700000255e+02
-3.380990668200000187e+02
-3.380851453899999797e+02
-3.380699483999999870e+02
-3.380539350600000148e+02
-3.380375815400000192e+02
-3.380213603099999773e+02
-3.385138806499999760e+02
-3.385085737900000140e+02
-3.384986330099999918e+02
-3.384843082099999947e+02
-3.384659574400000110e+02
-3.384440346800000157e+02
-3.384190695099999857e+02
-3.383916469700000107e+02
-3.383623805400000037e+02
-3.383319002700000055e+02
-3.372583713399999965e+02
-3.372730291299999976e+02
-3.372914460399999825e+02
-3.373135070199999745e+02
-3.373391724699999941e+02
-3.373684612100000209e+02
-3.374014151800000150e+02
-3.374380690099999924e+02
-3.374784011500000247e+02
-3.375223018899999943e+02
-3.379555578700000069e+02
-3.379499980100000016e+02
-3.379416543799999886e+02
-3.379306767300000161e+02
-3.379172945299999924e+02
-3.379017984100000263e+02
-3.378845436400000040e+02
-3.378659273999999755e+02
-3.378463771300000076e+02
-3.378263439699999822e+02
-3.381351293999999825e+02
-3.381360446699999898e+02
-3.381343928499999834e+02
-3.381303893400000220e+02
-3.381243361400000254e+02
-3.381166067999999996e+02
-3.381076236499999936e+02
-3.380978383699999767e+02
-3.380876990300000102e+02
-3.380776362099999801e+02
-3.381482594700000277e+02
-3.381468175300000212e+02
-3.381417556600000012e+02
-3.381332279499999913e+02
-3.381214750500000150e+02
-3.381068214100000091e+02
-3.380896557099999882e+02
-3.380704183500000113e+02
-3.380495870400000058e+02
-3.380276539899999761e+02
-3.381056228300000157e+02
-3.381073392600000034e+02
-3.381060168500000032e+02
-3.381018204299999752e+02
-3.380950280000000134e+02
-3.380860040000000026e+02
-3.380751835600000277e+02
-3.380630480799999873e+02
-3.380501016100000129e+02
-3.380368433699999855e+02
-3.374209541600000080e+02
-3.374365822299999991e+02
-3.374556037400000150e+02
-3.374777964300000122e+02
-3.375029443799999740e+02
-3.375308232900000007e+02
-3.375611983399999758e+02
-3.375938078199999950e+02
-3.376283560900000111e+02
-3.376645119500000192e+02
-3.376821061200000145e+02
-3.376868052099999886e+02
-3.376899816900000246e+02
-3.376915724699999828e+02
-3.376915826900000184e+02
-3.376900867699999935e+02
-3.376872299099999850e+02
-3.376832186600000227e+02
-3.376783159700000283e+02
-3.376728353999999968e+02
-3.379326475299999970e+02
-3.379200205800000276e+02
-3.379078734099999792e+02
-3.378965490400000249e+02
-3.378864236200000164e+02
-3.378778904100000204e+02
-3.378713411800000017e+02
-3.378671481399999834e+02
-3.378656366499999990e+02
-3.378670798100000070e+02
-3.382022439500000246e+02
-3.381995699899999863e+02
-3.381932700799999907e+02
-3.381835152900000026e+02
-3.381706001599999922e+02
-3.381549218299999779e+02
-3.381369632299999921e+02
-3.381172755499999880e+02
-3.380964465299999802e+02
-3.380750884799999767e+02
-3.381568836399999896e+02
-3.381533579700000018e+02
-3.381471110100000033e+02
-3.381383123200000114e+02
-3.381272410099999775e+02
-3.381142715700000281e+02
-3.380998565900000017e+02
-3.380844953399999895e+02
-3.380687181000000123e+02
-3.380530514899999730e+02
-3.382425232300000175e+02
-3.382413125699999910e+02
-3.382366113900000073e+02
-3.382286080000000084e+02
-3.382175814799999785e+02
-3.382038913299999763e+02
-3.381879663400000027e+02
-3.381702854299999785e+02
-3.381513602800000058e+02
-3.381317210899999850e+02
-3.376062221899999827e+02
-3.376132735599999819e+02
-3.376230036599999949e+02
-3.376353497399999810e+02
-3.376502948799999899e+02
-3.376678452099999959e+02
-3.376880170300000259e+02
-3.377108124599999996e+02
-3.377361928600000169e+02
-3.377640591200000131e+02
-3.375731516399999919e+02
-3.375743232199999966e+02
-3.375740885899999739e+02
-3.375725930500000231e+02
-3.375701064500000257e+02
-3.375670055599999841e+02
-3.375637432400000080e+02
-3.375608243899999934e+02
-3.375587653700000033e+02
-3.375580628100000240e+02
-3.373231951399999957e+02
-3.373271551799999770e+02
-3.373338448700000072e+02
-3.373431965300000002e+02
-3.373551227199999971e+02
-3.373695184399999789e+02
-3.373862573600000019e+02
-3.374051932500000248e+02
-3.374261693799999762e+02
-3.374490059899999892e+02
-3.377624909599999796e+02
-3.377619144299999903e+02
-3.377591118299999948e+02
-3.377541302600000108e+02
-3.377470877900000232e+02
-3.377381652000000258e+02
-3.377276000599999861e+02
-3.377156837800000062e+02
-3.377027562800000169e+02
-3.376891827100000114e+02
-3.381982608100000220e+02
-3.381974768300000278e+02
-3.381925998300000060e+02
-3.381837327999999729e+02
-3.381710780000000227e+02
-3.381549258800000075e+02
-3.381356453600000123e+02
-3.381136557199999970e+02
-3.380894200800000249e+02
-3.380634179200000062e+02
-3.384810323599999720e+02
-3.384809120400000211e+02
-3.384753353099999913e+02