-6.598514438668910964e-01 -7.830147957890889779e-06 0.000000000000000000e+00 -7.830147957926319473e-06 -6.598604853429583805e-01 0.000000000000000000e+00 0.000000000000000000e+00 0.000000000000000000e+00 -3.913874158454663243e-01
-7.450351720400535394e-01 -5.591738570480569992e-02 -6.870320960530280907e-02 -5.591738570480576931e-02 -6.448566943762388259e-01 -2.514692815151811298e-02 -6.870320960530280907e-02 -2.514692815151811298e-02 -4.932667681312433716e-01
-8.203932383880038204e-01 -1.125852542854509364e-01 -1.357425795572103355e-01 -1.125852542854509086e-01 -6.209446268307444727e-01 -5.240289627510598403e-02 -1.357425795572103355e-01 -5.240289627510598403e-02 -5.807520905236090991e-01
-8.849404698976833794e-01 -1.695679283527994352e-01 -2.011084192309030849e-01 -1.695679283527994075e-01 -5.878798149748699631e-01 -8.160645609916571119e-02 -2.011084192309030849e-01 -8.160645609916571119e-02 -6.530115672247033265e-01
-9.387634330439815766e-01 -2.263724968257914139e-01 -2.648338227256659683e-01 -2.263724968257913861e-01 -5.465160058443511160e-01 -1.126340987637939467e-01 -2.648338227256659683e-01 -1.126340987637939467e-01 -7.102621936600548302e-01
-9.823910774801332124e-01 -2.825108939358051963e-01 -3.269199144001885271e-01 -2.825108939358051408e-01 -4.979878813816738803e-01 -1.452346103855319814e-01 -3.269199144001885271e-01 -1.452346103855319814e-01 -7.538240253349637321e-01
-1.016516073151700006e+00 -3.374173146139415880e-01 -3.875021424565726624e-01 -3.374173146139414770e-01 -4.437546429444372831e-01 -1.791001055683451582e-01 -3.875021424565726624e-01 -1.791001055683451582e-01 -7.852341131802591523e-01
-1.042130907647380811e+00 -3.905789913195957808e-01 -4.467406568689009649e-01 -3.905789913195957808e-01 -3.854277480502880660e-01 -2.139293177360556408e-01 -4.467406568689009649e-01 -2.139293177360556408e-01 -8.065900796427196706e-01
-1.060324777561973741e+00 -4.415024507924078523e-01 -5.048269282030937166e-01 -4.415024507924078523e-01 -3.246123599714110242e-01 -2.494028973603620858e-01 -5.048269282030937166e-01 -2.494028973603620858e-01 -8.199895471691237558e-01
-1.072158306129050498e+00 -4.896411822437227723e-01 -5.620488114567891991e-01 -4.896411822437227168e-01 -2.630326301018541257e-01 -2.851876081244916206e-01 -5.620488114567891991e-01 -2.851876081244916206e-01 -8.277652165839062270e-01
-2.127191524581872528e+01 1.264479466687483367e+01 8.007484700269225542e+00 1.264479466687483367e+01 -5.000270818632695402e+00 -1.263631607793211842e+01 8.007484700269225542e+00 -1.263631607793211842e+01 -9.498005923012128093e+00
-2.109609027772250656e+01 1.266103456717075026e+01 8.010868779153085484e+00 1.266103456717075026e+01 -4.937407875018376302e+00 -1.257996380782261880e+01 8.010868779153085484e+00 -1.257996380782261880e+01 -9.185916604641333194e+00
-2.089368925534813926e+01 1.266896140412153215e+01 8.006289237620036303e+00 1.266896140412153215e+01 -4.860898265470229518e+00 -1.250143110763738008e+01 8.006289237620036303e+00 -1.250143110763738008e+01 -8.833641349524697262e+00
-2.066509840508998508e+01 1.266833608519734078e+01 7.993470199674108656e+00 1.266833608519734078e+01 -4.770190237996319915e+00 -1.240086511124092183e+01 7.993470199674108656e+00 -1.240086511124092183e+01 -8.443037722701729919e+00
-2.041191780772465236e+01 1.265899308480059560e+01 7.972135789319335863e+00 1.265899308480059560e+01 -4.666166595783743709e+00 -1.227850491116307907e+01 7.972135789319335863e+00 -1.227850491116307907e+01 -8.016092031343392321e+00
-2.013606020349083892e+01 1.264063813520226631e+01 7.941844604962172482e+00 1.264063813520226631e+01 -4.549673358553463665e+00 -1.213464477513288564e+01 7.941844604962172482e+00 -1.213464477513288564e+01 -7.555526251943224025e+00
-1.983964064169096275e+01 1.261321606120315764e+01 7.902063286343748771e+00 1.261321606120315764e+01 -4.422016339353057823e+00 -1.196956057914630733e+01 7.902063286343748771e+00 -1.196956057914630733e+01 -7.063749701532670677e+00
-1.952501326415727334e+01 1.257652455373956357e+01 7.852184906272937859e+00 1.257652455373956357e+01 -4.284611701628489477e+00 -1.178350980746624543e+01 7.852184906272937859e+00 -1.178350980746624543e+01 -6.544532685389945037e+00
-1.919449542925589114e+01 1.253054522107841784e+01 7.791473795427160454e+00 1.253054522107841784e+01 -4.138838825359591134e+00 -1.157667637742334676e+01 7.791473795427160454e+00 -1.157667637742334676e+01 -6.000725922140039081e+00
-1.885073554654810124e+01 1.247520449628746242e+01 7.719065542352388398e+00 1.247520449628746242e+01 -3.986426533454425325e+00 -1.134920742288212558e+01 7.719065542352388398e+00 -1.134920742288212558e+01 -5.436191675726488093e+00
3.646844853450811996e+01 1.180317537830585550e+01 -7.915749532011719047e+00 1.180317537830585550e+01 3.967771736306848140e+01 1.866303553662459791e+01 -7.915749532011719047e+00 1.866303553662459791e+01 5.400302610622005517e+01
3.639293308289931872e+01 1.188342993287960425e+01 -7.703213688859893438e+00 1.188342993287960425e+01 3.975922993406565098e+01 1.878899227688217621e+01 -7.703213688859893438e+00 1.878899227688217621e+01 5.401674365516588239e+01
3.623556039825953690e+01 1.194462467698340369e+01 -7.477494522914656550e+00 1.194462467698340369e+01 3.974982066054251106e+01 1.886867813910012970e+01 -7.477494522914656550e+00 1.886867813910012970e+01 5.380253620115004765e+01
3.599538265999576936e+01 1.198643218168512448e+01 -7.239901749904502637e+00 1.198643218168512448e+01 3.964750773580462351e+01 1.890180016054972256e+01 -7.239901749904502637e+00 1.890180016054972256e+01 5.335695712383442668e+01
3.567427827619231806e+01 1.200847331874757273e+01 -6.991762318659621833e+00 1.200847331874757273e+01 3.945289431841116112e+01 1.888808261160389534e+01 -6.991762318659621833e+00 1.888808261160389534e+01 5.268302221601488355e+01
3.527297103712019322e+01 1.201086871988258409e+01 -6.734351478705123739e+00 1.201086871988258409e+01 3.916580807734521841e+01 1.882752549226265515e+01 -6.734351478705123739e+00 1.882752549226265515e+01 5.178293731470783712e+01
3.479261556059266525e+01 1.199385964851383157e+01 -6.468944479566125949e+00 1.199385964851383157e+01 3.878671430635245088e+01 1.872045623145812243e+01 -6.468944479566125949e+00 1.872045623145812243e+01 5.066042476987847465e+01
3.423390117067737037e+01 1.195804926320048445e+01 -6.196868270072814155e+00 1.195804926320048445e+01 3.831568193783960652e+01 1.856746075464778656e+01 -6.196868270072814155e+00 1.856746075464778656e+01 4.931781105025506662e+01
3.360039511942428447e+01 1.190443708384061061e+01 -5.919139603224941482e+00 1.190443708384061061e+01 3.775629545695837663e+01 1.836945241622125025e+01 -5.919139603224941482e+00 1.836945241622125025e+01 4.776319571363223560e+01
3.289416537903630910e+01 1.183412602894241594e+01 -5.636999262344239980e+00 1.183412602894241594e+01 3.711029540697951745e+01 1.812780986431377528e+01 -5.636999262344239980e+00 1.812780986431377528e+01 4.600414409165222906e+01
-1.543811927329075351e+00 5.140475077131800852e+00 1.347251560972934392e+01 5.140475077131800852e+00 -2.387469104172972223e+01 7.566141475840162833e+00 1.347251560972934392e+01 7.566141475840162833e+00 -2.313097700312024685e+01
-1.388682635146994304e+00 5.199825528505892969e+00 1.359202726064904709e+01 5.199825528505892969e+00 -2.377629569545910826e+01 7.534098496970388581e+00 1.359202726064904709e+01 7.534098496970388581e+00 -2.278303705487529740e+01
-1.202984451679716127e+00 5.250257749993284762e+00 1.368382606497867471e+01 5.250257749993284762e+00 -2.363004778097410963e+01 7.488880860313442689e+00 1.368382606497867471e+01 7.488880860313442689e+00 -2.234130828406153668e+01
-9.879519252793258488e-01 5.291440071887447694e+00 1.374778304005457308e+01 5.291440071887447694e+00 -2.343686860301509611e+01 7.430249026636832177e+00 1.374778304005457308e+01 7.430249026636832177e+00 -2.180855460490005626e+01
-7.454460915213533267e-01 5.323188233240307099e+00 1.378378762930790380e+01 5.323188233240307099e+00 -2.319808484040818541e+01 7.358092439371714200e+00 1.378378762930790380e+01 7.358092439371714200e+00 -2.118905087138612942e+01
-4.769410379903775143e-01 5.345262694819370886e+00 1.379178455445424234e+01 5.345262694819370886e+00 -2.291489418931584510e+01 7.272282115854436846e+00 1.379178455445424234e+01 7.272282115854436846e+00 -2.048533988460315669e+01
-1.845189133996152087e-01 5.357516047866179854e+00 1.377193965034685341e+01 5.357516047866179854e+00 -2.258899185046034219e+01 7.172799629990194603e+00 1.377193965034685341e+01 7.172799629990194603e+00 -1.970178862902044870e+01
1.297012813481017990e-01 5.359800883622275691e+00 1.372447403012342626e+01 5.359800883622275691e+00 -2.222220200722759742e+01 7.059534425210142849e+00 1.372447403012342626e+01 7.059534425210142849e+00 -1.884211917578906892e+01
4.640980499097371870e-01 5.352172480372082042e+00 1.364988519834375325e+01 5.352172480372082042e+00 -2.181592504282294698e+01 6.932615484177933496e+00 1.364988519834375325e+01 6.932615484177933496e+00 -1.791267010152270345e+01
8.149124689446157754e-01 5.334317594503874993e+00 1.354839426814552361e+01 5.334317594503874993e+00 -2.137379089792343478e+01 6.791821693755878186e+00 1.354839426814552361e+01 6.791821693755878186e+00 -1.691484178942669914e+01
5.077473962033846711e+00 -1.458709285318331617e+01 2.918790007023727373e+00 -1.458709285318331617e+01 8.856750548250005295e+00 1.258632154080411780e+01 2.918790007023727373e+00 1.258632154080411780e+01 1.507287572630801487e+00
5.110000699381490818e+00 -1.469723858186165444e+01 2.992334180816939249e+00 -1.469723858186165444e+01 8.912164476612135289e+00 1.259168881148124086e+01 2.992334180816939249e+00 1.259168881148124086e+01 1.607003922501753612e+00
5.151718214611030966e+00 -1.479165946400768661e+01 3.066183517157010652e+00 -1.479165946400768661e+01 8.975225419383811243e+00 1.257397143302532250e+01 3.066183517157010652e+00 1.257397143302532250e+01 1.712985079952356715e+00
5.201208399416469952e+00 -1.486965542083744118e+01 3.140643178590801554e+00 -1.486965542083744118e+01 9.044910184496147920e+00 1.253327710986466492e+01 3.140643178590801554e+00 1.253327710986466492e+01 1.823310316011199639e+00
5.257160849920116341e+00 -1.493072383168550132e+01 3.215874721760767496e+00 -1.493072383168550132e+01 9.119728860690949901e+00 1.246980330011782634e+01 3.215874721760767496e+00 1.246980330011782634e+01 1.935663985469757487e+00
5.317942048959368506e+00 -1.497436207588645196e+01 3.291878146666907590e+00 -1.497436207588645196e+01 9.198191536710019989e+00 1.238383721559361561e+01 3.291878146666907590e+00 1.238383721559361561e+01 2.047281674668242069e+00
5.381756922729167059e+00 -1.500024704015538290e+01 3.368581650357020951e+00 -1.500024704015538290e+01 9.278521089486348572e+00 1.227545065924423540e+01 3.368581650357020951e+00 1.227545065924423540e+01 2.155291265518560095e+00
5.446630890043950401e+00 -1.500818126637373950e+01 3.445841626926701817e+00 -1.500818126637373950e+01 9.358796790048526049e+00 1.214482313845019235e+01 3.445841626926701817e+00 1.214482313845019235e+01 2.256694984766266288e+00
5.510535517504002279e+00 -1.499796729642296000e+01 3.523352913829091104e+00 -1.499796729642296000e+01 9.437133810901244146e+00 1.199193670247343135e+01 3.523352913829091104e+00 1.199193670247343135e+01 2.348100142919801403e+00
5.571442371709609098e+00 -1.496958717956499818e+01 3.600738545565125737e+00 -1.496958717956499818e+01 9.511539620120881722e+00 1.181671954836175509e+01 3.600738545565125737e+00 1.181671954836175509e+01 2.426688474105225257e+00
6.302982008601269825e+01 6.105906176877494929e+00 -3.420528418604172227e+00 6.105906176877494929e+00 4.323030684451500605e+01 -1.610532617899776398e+01 -3.420528418604172227e+00 -1.610532617899776398e+01 4.156241811689792343e+01
6.306985937414001597e+01 6.111073086716753089e+00 -3.324471642615591804e+00 6.111073086716753089e+00 4.318610674450393105e+01 -1.615397698352384381e+01 -3.324471642615591804e+00 -1.615397698352384381e+01 4.155150451195692085e+01
6.303785181714896169e+01 6.104763658860233200e+00 -3.219632825151045541e+00 6.104763658860233200e+00 4.308950428826829437e+01 -1.616524869112697971e+01 -3.219632825151045541e+00 -1.616524869112697971e+01 4.137183929061559695e+01
6.293325173479249912e+01 6.087216628416021180e+00 -3.106353016364939101e+00 6.087216628416021180e+00 4.294041421326951991e+01 -1.613932887939208882e+01 -3.106353016364939101e+00 -1.613932887939208882e+01 4.102330308531990966e+01
6.275561576186989754e+01 6.058926518108004977e+00 -2.985177896504323414e+00 6.058926518108004977e+00 4.273856367938405043e+01 -1.607647333593497763e+01 -2.985177896504323414e+00 -1.607647333593497763e+01 4.050637336628603435e+01
6.250508031844290713e+01 6.020456060690955624e+00 -2.856670198323968179e+00 6.020456060690955624e+00 4.248405500165822701e+01 -1.597712542595637508e+01 -2.856670198323968179e+00 -1.597712542595637508e+01 3.982215854651578724e+01
6.218179887708102171e+01 5.972555566504568425e+00 -2.721512022132687392e+00 5.972555566504568425e+00 4.217668354999940306e+01 -1.584184788221105045e+01 -2.721512022132687392e+00 -1.584184788221105045e+01 3.897277313696649514e+01
6.178630006552356946e+01 5.916162923473459401e+00 -2.580419573254733923e+00 5.916162923473459401e+00 4.181626174682265429e+01 -1.567139101503870258e+01 -2.580419573254733923e+00 -1.567139101503870258e+01 3.795869460785431926e+01
6.131926598407936524e+01 5.852352439584010746e+00 -2.434194319552963393e+00 5.852352439584010746e+00 4.140267022457393864e+01 -1.546664155484078229e+01 -2.434194319552963393e+00 -1.546664155484078229e+01 3.678309472561524274e+01
6.078100357788735408e+01 5.782130212791719792e+00 -2.283637728890230534e+00 5.782130212791719792e+00 4.093490288529775967e+01 -1.522872496712683521e+01 -2.283637728890230534e+00 -1.522872496712683521e+01 3.544851431389959373e+01
2.114483696240424138e+01 1.099914022646378520e+01 -2.388566978387131812e+01 1.099914022646378520e+01 2.247152396554449538e+01 -1.325350534096946475e+01 -2.388566978387131812e+01 -1.325350534096946475e+01 4.012980999193309373e+01
2.114373055570609594e+01 1.117472521325801260e+01 -2.379691137986471361e+01 1.117472521325801260e+01 2.253497551158245926e+01 -1.332120689368918143e+01 -2.379691137986471361e+01 -1.332120689368918143e+01 4.020622230214930681e+01
2.108145566441060126e+01 1.132920066273210935e+01 -2.365364049346070630e+01 1.132920066273210935e+01 2.254136808361617739e+01 -1.334986809577441846e+01 -2.365364049346070630e+01 -1.334986809577441846e+01 4.011818394059705639e+01
2.096134907062327457e+01 1.146044157154519816e+01 -2.345529514030467411e+01 1.146044157154519816e+01 2.249375747157385419e+01 -1.333887427683731097e+01 -2.345529514030467411e+01 -1.333887427683731097e+01 3.987140256087786128e+01
2.078174238329135193e+01 1.156692004473317681e+01 -2.320176994833013140e+01 1.156692004473317681e+01 2.239040503635840906e+01 -1.328813762682245603e+01 -2.320176994833013140e+01 -1.328813762682245603e+01 3.946233063675324360e+01
2.054216142811563017e+01 1.164735405548708336e+01 -2.289320541362573636e+01 1.164735405548708336e+01 2.223020437127169657e+01 -1.319790401388499568e+01 -2.289320541362573636e+01 -1.319790401388499568e+01 3.889026568777993020e+01
2.024192128666392776e+01 1.170095331330824528e+01 -2.252986496635770308e+01 1.170095331330824528e+01 2.201224225173747229e+01 -1.306877054640170144e+01 -2.252986496635770308e+01 -1.306877054640170144e+01 3.815476866368088338e+01
1.988125026508031112e+01 1.172738413998611051e+01 -2.211239840093605835e+01 1.172738413998611051e+01 2.173616743753411029e+01 -1.290161532492666296e+01 -2.211239840093605835e+01 -1.290161532492666296e+01 3.725738502143128983e+01
1.945670620919276672e+01 1.172657628747635705e+01 -2.164226336428058417e+01 1.172657628747635705e+01 2.139799335214606657e+01 -1.269794868241289265e+01 -2.164226336428058417e+01 -1.269794868241289265e+01 3.619613025377892512e+01
1.897083561060813750e+01 1.169956591443279592e+01 -2.112039064297859881e+01 1.169956591443279592e+01 2.099852784808310346e+01 -1.245929851382449982e+01 -2.112039064297859881e+01 -1.245929851382449982e+01 3.496963452385941906e+01
1.402736147306842796e+01 3.413971929444977071e+00 8.922001726817903489e+00 3.413971929444977071e+00 4.761846343811227911e+01 1.237166624626536660e+01 8.922001726817903489e+00 1.237166624626536660e+01 5.630299486403329468e+01
1.388545912351574252e+01 3.354409051867871305e+00 8.860789629372005649e+00 3.354409051867871305e+00 4.753667949282934302e+01 1.222849660144508377e+01 8.860789629372005649e+00 1.222849660144508377e+01 5.601269744670762663e+01
1.368699721256806789e+01 3.291981739781811189e+00 8.783276295538785305e+00 3.291981739781811189e+00 4.733703708765980167e+01 1.205074542000760651e+01 8.783276295538785305e+00 1.205074542000760651e+01 5.548324578819799058e+01
1.343169797687907874e+01 3.227384401552603865e+00 8.689496445736535790e+00 3.227384401552603865e+00 4.701988342678654220e+01 1.183947167471078998e+01 8.689496445736535790e+00 1.183947167471078998e+01 5.471457044766780342e+01
1.311966557770364972e+01 3.161311445546056476e+00 8.579484800383543330e+00 3.161311445546056476e+00 4.658679828924179134e+01 1.159582113935821823e+01 8.579484800383543330e+00 1.159582113935821823e+01 5.371116771928566180e+01
1.275044864960400481e+01 3.094561441382847278e+00 8.453223999270662148e+00 3.094561441382847278e+00 4.604002114200526563e+01 1.132139095319124422e+01 8.453223999270662148e+00 1.132139095319124422e+01 5.247822830558597929e+01
1.232279725752169064e+01 3.027898238265363862e+00 8.310870284280202469e+00 3.027898238265363862e+00 4.538187825310242118e+01 1.101828170151643604e+01 8.310870284280202469e+00 1.101828170151643604e+01 5.102347749963834644e+01
1.183846478258037038e+01 2.962103045605139595e+00 8.152475736039598075e+00 2.962103045605139595e+00 4.461867137845295872e+01 1.068869813089523113e+01 8.152475736039598075e+00 1.068869813089523113e+01 4.935377258405512890e+01
1.129663529495021912e+01 2.897957072813706514e+00 7.978370198522609869e+00 2.897957072813706514e+00 4.375522665619924112e+01 1.033541787479085983e+01 7.978370198522609869e+00 1.033541787479085983e+01 4.748209899527690681e+01
1.069871497157199869e+01 2.836154728256873092e+00 7.788987676957862760e+00 2.836154728256873092e+00 4.279890481501882249e+01 9.961513690222016493e+00 7.788987676957862760e+00 9.961513690222016493e+00 4.542165049225402385e+01
1.321049330243168463e+01 1.290804046031981045e+01 3.882844830148499238e+00 1.290804046031981045e+01 2.390908145162113385e+01 -1.845953407358019760e+01 3.882844830148499238e+00 -1.845953407358019760e+01 3.424827429311773841e+01
1.301171489672443649e+01 1.297129615063846941e+01 3.981369932409536627e+00 1.297129615063846941e+01 2.363639599318862849e+01 -1.831411828814176701e+01 3.981369932409536627e+00 -1.831411828814176701e+01 3.363063635118278683e+01
1.277703222965984331e+01 1.301885695264276777e+01 4.074234294053821870e+00 1.301885695264276777e+01 2.330936037095291624e+01 -1.812719040484715549e+01 4.074234294053821870e+00 -1.812719040484715549e+01 3.287844560268765548e+01
1.250708015065286993e+01 1.305037017221328277e+01 4.161208663903728677e+00 1.305037017221328277e+01 2.292949116962751788e+01 -1.789968506311283392e+01 4.161208663903728677e+00 -1.789968506311283392e+01 3.199582856882961224e+01
1.220247587441250836e+01 1.306578290523210306e+01 4.242010886663720726e+00 1.306578290523210306e+01 2.249834024333789628e+01 -1.763287196176873550e+01 4.242010886663720726e+00 -1.763287196176873550e+01 3.098710575257159050e+01
1.186336047858653231e+01 1.306520095993505493e+01 4.316323537626314710e+00 1.306520095993505493e+01 2.201735363797369516e+01 -1.732814424258657482e+01 4.316323537626314710e+00 -1.732814424258657482e+01 2.985640367511084392e+01
1.148999848376450217e+01 1.304892412632364618e+01 4.383723383848201927e+00 1.304892412632364618e+01 2.148811847707231948e+01 -1.698700085557391048e+01 4.383723383848201927e+00 -1.698700085557391048e+01 2.860721400822967908e+01
1.108237225524045222e+01 1.301741090675313117e+01 4.443822461798015766e+00 1.301741090675313117e+01 2.091213371064132431e+01 -1.661118763662188869e+01 4.443822461798015766e+00 -1.661118763662188869e+01 2.724558545607620630e+01
1.064085212183977269e+01 1.297138432416832465e+01 4.496162269120507204e+00 1.297138432416832465e+01 2.029158604222112672e+01 -1.620245042162165205e+01 4.496162269120507204e+00 -1.620245042162165205e+01 2.577587379102530818e+01
1.016448580944002522e+01 1.291174374857376073e+01 4.540284303460423665e+00 1.291174374857376073e+01 1.962711032122669863e+01 -1.576294064470168799e+01 4.540284303460423665e+00 -1.576294064470168799e+01 2.420268167133547266e+01
2.351370756696612219e+01 -4.701925191328182763e+00 -7.173780769465993856e+00 -4.701925191328182763e+00 -1.216783777997325089e+01 -5.554855884661020760e+00 -7.173780769465993856e+00 -5.554855884661020760e+00 9.549529708008053230e-01
2.365996227350902714e+01 -4.633095216328643851e+00 -7.396291464507605440e+00 -4.633095216328643851e+00 -1.209586118908423558e+01 -5.692767563931255381e+00 -7.396291464507605440e+00 -5.692767563931255381e+00 1.246545370113113060e+00
2.379830548867267836e+01 -4.558115854847956783e+00 -7.603033118777377197e+00 -4.558115854847956783e+00 -1.200255953279567578e+01 -5.824421972746986143e+00 -7.603033118777377197e+00 -5.824421972746986143e+00 1.542848702928523830e+00
2.392742462411460025e+01 -4.477544507415111674e+00 -7.793556215719673830e+00 -4.477544507415111674e+00 -1.188890376686775596e+01 -5.949459497863702317e+00 -7.793556215719673830e+00 -5.949459497863702317e+00 1.841561444482162857e+00
2.404611497546568444e+01 -4.391938574559102193e+00 -7.967393258116627131e+00 -4.391938574559102193e+00 -1.175546927249169116e+01 -6.067304758090185324e+00 -7.967393258116627131e+00 -6.067304758090185324e+00 2.140436011995832555e+00
2.415302799305901260e+01 -4.301927379457824330e+00 -8.124094729412597360e+00 -4.301927379457824330e+00 -1.160326296675211744e+01 -6.177436314221892211e+00 -8.124094729412597360e+00 -6.177436314221892211e+00 2.436937132095724934e+00
2.424661733994318169e+01 -4.208158225951400766e+00 -8.263354958349751200e+00 -4.208158225951400766e+00 -1.143361541865372466e+01 -6.279314746392055113e+00 -8.263354958349751200e+00 -6.279314746392055113e+00 2.728026072865716412e+00
2.432546254380237016e+01 -4.111278417879950631e+00 -8.384958176981379907e+00 -4.111278417879950631e+00 -1.124769537124117846e+01 -6.372418615396132857e+00 -8.384958176981379907e+00 -6.372418615396132857e+00 3.011509193514285254e+00
2.438798130636072869e+01 -4.011881317096917421e+00 -8.488796501334132216e+00 -4.011881317096917421e+00 -1.104713906477700647e+01 -6.456280424016259900e+00 -8.488796501334132216e+00 -6.456280424016259900e+00 3.284167955503051850e+00
2.443266325199130762e+01 -3.910614227442424262e+00 -8.574798008759104917e+00 -3.910614227442424262e+00 -1.083347485555038325e+01 -6.530378733047894180e+00 -8.574798008759104917e+00 -6.530378733047894180e+00 3.543161414200374448e+00
3.042766126733901544e+01 2.022261914336898947e+00 1.689573353082426266e+01 2.022261914336898947e+00 2.575617546838419258e+01 5.863183340449729108e+00 1.689573353082426266e+01 5.863183340449729108e+00 3.347142811612359026e+01
3.038861040337210184e+01 2.010944848214107239e+00 1.677639786289674007e+01 2.010944848214107239e+00 2.562711201368136926e+01 5.838907535032012319e+00 1.677639786289674007e+01 5.838907535032012319e+00 3.324435328012275903e+01
3.029903442784154421e+01 1.992659403413855612e+00 1.661790654335301198e+01 1.992659403413855612e+00 2.545585406553307095e+01 5.799909064889736676e+00 1.661790654335301198e+01 5.799909064889736676e+00 3.288760372813160160e+01
3.015900319918021211e+01 1.967492902977215019e+00 1.642076604583128940e+01 1.967492902977215019e+00 2.524318753130894066e+01 5.746467363754331537e+00 1.642076604583128940e+01 5.746467363754331537e+00 3.240180818604583379e+01
2.996834207130595118e+01 1.935724780635612818e+00 1.618572734848478945e+01 1.935724780635612818e+00 2.498965381386361884e+01 5.678879329965436540e+00 1.618572734848478945e+01 5.678879329965436540e+00 3.178885283155258534e+01
2.972706850882698504e+01 1.897704328553332154e+00 1.591368114633243280e+01 1.897704328553332154e+00 2.469598642674209898e+01 5.597529184903763166e+00 1.591368114633243280e+01 5.597529184903763166e+00 3.105041426704042351e+01
2.943532222860902792e+01 1.853903091152156568e+00 1.560579756812456687e+01 1.853903091152156568e+00 2.436286648966473578e+01 5.502923402207523296e+00 1.560579756812456687e+01 5.502923402207523296e+00 3.018872796236075118e+01
2.909326041212600344e+01 1.804792612853868716e+00 1.526335153026082914e+01 1.804792612853868716e+00 2.399085287009438261e+01 5.395585920123142643e+00 1.526335153026082914e+01 5.395585920123142643e+00 2.920651839639499059e+01
2.870147685605719445e+01 1.750931761121321983e+00 1.488779259522299547e+01 1.750931761121321983e+00 2.358076640461710483e+01 5.276145464546331709e+00 1.488779259522299547e+01 5.276145464546331709e+00 2.810635286655062615e+01
2.826065268012295206e+01 1.692984191066656763e+00 1.448067511314213185e+01 1.692984191066656763e+00 2.313346285903540434e+01 5.145230761372801886e+00 1.448067511314213185e+01 5.145230761372801886e+00 2.689137500230621214e+01
3.081337245376138512e+01 9.379460536151203343e+00 1.354859519362748177e+00 9.379460536151203343e+00 1.289436768848881698e+01 -1.174508209042707740e+01 1.354859519362748177e+00 -1.174508209042707740e+01 8.146530058579035671e-01
3.081086027675409511e+01 9.256947678577237326e+00 1.493135403088108104e+00 9.256947678577237326e+00 1.288375285606363541e+01 -1.184004945785769713e+01 1.493135403088108104e+00 -1.184004945785769713e+01 7.881336161823260245e-01
3.081310708295076140e+01 9.124916854595358728e+00 1.629005258130427070e+00 9.124916854595358728e+00 1.288872413591609600e+01 -1.191449481593296866e+01 1.629005258130427070e+00 -1.191449481593296866e+01 7.753958172721086006e-01
3.081940521685636725e+01 8.984323399123834264e+00 1.762433701714954282e+00 8.984323399123834264e+00 1.290928152804619522e+01 -1.196794049719375685e+01 1.762433701714954282e+00 -1.196794049719375685e+01 7.750419895246024593e-01
3.082883472632740052e+01 8.836175721243057168e+00 1.893173054418435308e+00 8.836175721243057168e+00 1.294485890805792927e+01 -1.199990883418092658e+01 1.893173054418435308e+00 -1.199990883418092658e+01 7.864352429942970124e-01
3.083992722621171367e+01 8.681588378357666613e+00 2.021011019592367397e+00 8.681588378357666613e+00 1.299446555825827510e+01 -1.201002830775959929e+01 2.021011019592367397e+00 -1.201002830775959929e+01 8.077356733941605249e-01
3.085105510887078140e+01 8.521622853710187684e+00 2.145717609200870957e+00 8.521622853710187684e+00 1.305702230401734276e+01 -1.199792739879489289e+01 2.145717609200870957e+00 -1.199792739879489289e+01 8.369618453381593159e-01
3.085979465423418233e+01 8.357464470254761579e+00 2.267204366307069119e+00 8.357464470254761579e+00 1.313031772191321878e+01 -1.196319920537717429e+01 2.267204366307069119e+00 -1.196319920537717429e+01 8.700978138920998362e-01
3.086430595801488153e+01 8.190033180134904001e+00 2.385294377037209479e+00 8.190033180134904001e+00 1.321307803205488085e+01 -1.190536606004731190e+01 2.385294377037209479e+00 -1.190536606004731190e+01 9.051267608951976129e-01
3.086239528817835165e+01 8.020408157980508435e+00 2.499810727517539188e+00 8.020408157980508435e+00 1.330346333015529758e+01 -1.182400336950829889e+01 2.499810727517539188e+00 -1.182400336950829889e+01 9.388111624577726300e-01
2.632065247478803371e+01 9.786982562273022879e+00 -5.978213280675479524e+00 9.786982562273022879e+00 2.310285520917761204e+01 1.378669432394396743e+01 -5.978213280675479524e+00 1.378669432394396743e+01 -8.643060789459466875e+00
2.620920304351799857e+01 9.776000319045682119e+00 -5.802780345385292193e+00 9.776000319045682119e+00 2.314789832270423275e+01 1.393204546256796306e+01 -5.802780345385292193e+00 1.393204546256796306e+01 -8.735410667290652853e+00
2.611886922966091618e+01 9.755963472706591588e+00 -5.619619164861051175e+00 9.755963472706591588e+00 2.321630301965004506e+01 1.405194821471186195e+01 -5.619619164861051175e+00 1.405194821471186195e+01 -8.777588847801448324e+00
2.605025231545467435e+01 9.726889708027451675e+00 -5.429012695449999093e+00 9.726889708027451675e+00 2.330762718072247353e+01 1.414622573265863537e+01 -5.429012695449999093e+00 1.414622573265863537e+01 -8.770567993435500753e+00
2.600386515927865005e+01 9.689044296583801952e+00 -5.231314632586188118e+00 9.689044296583801952e+00 2.342103962165150577e+01 1.421441821234401637e+01 -5.231314632586188118e+00 1.421441821234401637e+01 -8.714153571704079226e+00
2.597953091341581811e+01 9.642604086092671167e+00 -5.026825617388563927e+00 9.642604086092671167e+00 2.355514324547262106e+01 1.425631343650756655e+01 -5.026825617388563927e+00 1.425631343650756655e+01 -8.609707310028287708e+00
2.597640070882444974e+01 9.587869717673001446e+00 -4.815793236660963039e+00 9.587869717673001446e+00 2.370788661866832214e+01 1.427168150311716310e+01 -4.815793236660963039e+00 1.427168150311716310e+01 -8.460270989140981968e+00
2.599373178509303628e+01 9.525230256302249288e+00 -4.598358968577006323e+00 9.525230256302249288e+00 2.387743052498153062e+01 1.426034556445577017e+01 -4.598358968577006323e+00 1.426034556445577017e+01 -8.268302792308825033e+00
2.603014473002876983e+01 9.455004027871066086e+00 -4.374575867451802047e+00 9.455004027871066086e+00 2.406138752023239036e+01 1.422223488143658265e+01 -4.374575867451802047e+00 1.422223488143658265e+01 -8.037463467274267970e+00
2.608461382687290353e+01 9.377633151672018386e+00 -4.144249400796620186e+00 9.377633151672018386e+00 2.425775922521850347e+01 1.415713723679916214e+01 -4.144249400796620186e+00 1.415713723679916214e+01 -7.770989327258891244e+00
1.281793712933873763e+01 -1.214338059414994220e+01 1.900472491868500668e+01 -1.214338059414994220e+01 -7.065225080166494642e+00 -6.493363094409307479e+00 1.900472491868500668e+01 -6.493363094409307479e+00 -2.792864683504253165e+01