0.000000000000000000e+00 2.032270000000000021e+00 9.648580000000000823e+00 -1.760000000000000009e+00 5.080680000000000085e+00 9.648580000000000823e+00 -3.520000000000000018e+00 8.129089999999999705e+00 9.648580000000000823e+00 3.520000000000000018e+00 2.032270000000000021e+00 9.648580000000000823e+00 1.760000000000000009e+00 5.080680000000000085e+00 9.648580000000000823e+00 0.000000000000000000e+00 8.129089999999999705e+00 9.648580000000000823e+00 7.040000000000000036e+00 2.032270000000000021e+00 9.648580000000000823e+00 5.280000000000000249e+00 5.080680000000000085e+00 9.648580000000000823e+00 3.520000000000000018e+00 8.129089999999999705e+00 9.648580000000000823e+00 1.760000000000000009e+00 2.946800000000000086e+00 1.673430000000000106e+01 0.000000000000000000e+00 5.995210000000000150e+00 1.673430000000000106e+01 -1.760000000000000009e+00 9.043609999999999260e+00 1.673430000000000106e+01 5.280000000000000249e+00 2.946800000000000086e+00 1.673430000000000106e+01 3.520000000000000018e+00 5.995210000000000150e+00 1.673430000000000106e+01 1.760000000000000009e+00 9.043609999999999260e+00 1.673430000000000106e+01 8.800000000000000711e+00 2.946800000000000086e+00 1.673430000000000106e+01 7.040000000000000036e+00 5.995210000000000150e+00 1.673430000000000106e+01 5.280000000000000249e+00 9.043609999999999260e+00 1.673430000000000106e+01 0.000000000000000000e+00 2.032270000000000021e+00 1.326676999999999929e+01 -1.760000000000000009e+00 5.080680000000000085e+00 1.326676999999999929e+01 -3.520000000000000018e+00 8.129089999999999705e+00 1.326676999999999929e+01 3.520000000000000018e+00 2.032270000000000021e+00 1.326676999999999929e+01 1.760000000000000009e+00 5.080680000000000085e+00 1.326676999999999929e+01 0.000000000000000000e+00 8.129089999999999705e+00 1.326676999999999929e+01 7.040000000000000036e+00 2.032270000000000021e+00 1.326676999999999929e+01 5.280000000000000249e+00 5.080680000000000085e+00 1.326676999999999929e+01 3.520000000000000018e+00 8.129089999999999705e+00 1.326676999999999929e+01 1.760000000000000009e+00 2.946800000000000086e+00 2.035180000000000078e+01 0.000000000000000000e+00 5.995210000000000150e+00 2.035180000000000078e+01 -1.760000000000000009e+00 9.043609999999999260e+00 2.035180000000000078e+01 5.280000000000000249e+00 2.946800000000000086e+00 2.035180000000000078e+01 3.520000000000000018e+00 5.995210000000000150e+00 2.035180000000000078e+01 1.760000000000000009e+00 9.043609999999999260e+00 2.035180000000000078e+01 8.800000000000000711e+00 2.946800000000000086e+00 2.035180000000000078e+01 7.040000000000000036e+00 5.995210000000000150e+00 2.035180000000000078e+01 5.280000000000000249e+00 9.043609999999999260e+00 2.035180000000000078e+01 0.000000000000000000e+00 0.000000000000000000e+00 1.145758000000000010e+01 -1.760000000000000009e+00 3.048410000000000064e+00 1.145758000000000010e+01 -3.520000000000000018e+00 6.096820000000000128e+00 1.145758000000000010e+01 3.520000000000000018e+00 0.000000000000000000e+00 1.145758000000000010e+01 1.760000000000000009e+00 3.048410000000000064e+00 1.145758000000000010e+01 0.000000000000000000e+00 6.096820000000000128e+00 1.145758000000000010e+01 7.040000000000000036e+00 0.000000000000000000e+00 1.145758000000000010e+01 5.280000000000000249e+00 3.048410000000000064e+00 1.145758000000000010e+01 3.520000000000000018e+00 6.096820000000000128e+00 1.145758000000000010e+01 1.760000000000000009e+00 9.145199999999999996e-01 1.854100999999999999e+01 0.000000000000000000e+00 3.962930000000000064e+00 1.854100999999999999e+01 -1.760000000000000009e+00 7.011339999999999684e+00 1.854100999999999999e+01 5.280000000000000249e+00 9.145199999999999996e-01 1.854100999999999999e+01 3.520000000000000018e+00 3.962930000000000064e+00 1.854100999999999999e+01 1.760000000000000009e+00 7.011339999999999684e+00 1.854100999999999999e+01 8.800000000000000711e+00 9.145199999999999996e-01 1.854100999999999999e+01 7.040000000000000036e+00 3.962930000000000064e+00 1.854100999999999999e+01 5.280000000000000249e+00 7.011339999999999684e+00 1.854100999999999999e+01
-4.000000000000000192e-04 2.032929999999999904e+00 9.647309999999999164e+00 -1.757940000000000058e+00 5.080460000000000420e+00 9.646800000000000708e+00 -3.517370000000000108e+00 8.130069999999999908e+00 9.650489999999999569e+00 3.519890000000000185e+00 2.033069999999999933e+00 9.649129999999999541e+00 1.758469999999999978e+00 5.081220000000000070e+00 9.647439999999999571e+00 2.299999999999999961e-03 8.131600000000000605e+00 9.651249999999999218e+00 7.040670000000000428e+00 2.031590000000000007e+00 9.648260000000000502e+00 5.282849999999999824e+00 5.081649999999999778e+00 9.651220000000000354e+00 3.518580000000000041e+00 8.128750000000000142e+00 9.648730000000000473e+00 1.761370000000000102e+00 2.946880000000000166e+00 1.673830999999999847e+01 2.480000000000000000e-03 5.993520000000000181e+00 1.673355000000000103e+01 -1.758240000000000025e+00 9.045130000000000337e+00 1.673397999999999897e+01 5.282519999999999882e+00 2.946260000000000101e+00 1.673518999999999934e+01 3.521659999999999791e+00 5.996830000000000105e+00 1.673641999999999896e+01 1.758930000000000105e+00 9.043509999999999494e+00 1.673336000000000112e+01 8.799480000000000857e+00 2.947330000000000005e+00 1.673490999999999929e+01 7.040960000000000107e+00 5.994460000000000122e+00 1.673230999999999824e+01 5.279620000000000424e+00 9.043900000000000716e+00 1.673492999999999853e+01 -1.309999999999999967e-03 2.027859999999999996e+00 1.327058000000000071e+01 -1.758720000000000061e+00 5.082770000000000010e+00 1.326603000000000065e+01 -3.520750000000000046e+00 8.126989999999999270e+00 1.326784999999999926e+01 3.520129999999999981e+00 2.031569999999999876e+00 1.326768999999999998e+01 1.760850000000000026e+00 5.081649999999999778e+00 1.326680999999999955e+01 -2.749999999999999840e-03 8.130699999999999150e+00 1.326501999999999981e+01 7.037889999999999979e+00 2.030899999999999928e+00 1.326515000000000022e+01 5.280389999999999695e+00 5.079320000000000057e+00 1.326717999999999975e+01 3.520000000000000018e+00 8.128679999999999239e+00 1.326340000000000074e+01 1.757149999999999990e+00 2.947880000000000056e+00 2.035375000000000156e+01 -1.499999999999999869e-04 5.994769999999999932e+00 2.035294999999999987e+01 -1.757460000000000022e+00 9.043649999999999523e+00 2.035247999999999990e+01 5.277289999999999814e+00 2.947259999999999991e+00 2.035098999999999947e+01 3.518850000000000033e+00 5.994909999999999961e+00 2.035422000000000153e+01 1.760659999999999892e+00 9.042909999999999116e+00 2.035183999999999926e+01 8.798629999999999285e+00 2.945009999999999906e+00 2.035180000000000078e+01 7.038450000000000095e+00 5.996780000000000221e+00 2.034983000000000075e+01 5.279049999999999798e+00 9.043380000000000862e+00 2.035161000000000087e+01 8.099999999999999561e-04 2.200000000000000133e-03 1.145462000000000025e+01 8.797480000000000189e+00 3.048669999999999991e+00 1.145630000000000059e+01 7.038120000000000154e+00 6.095589999999999620e+00 1.145472000000000001e+01 3.518260000000000165e+00 8.300000000000000086e-04 1.146190999999999960e+01 1.760920000000000041e+00 3.049310000000000187e+00 1.145613999999999955e+01 1.569999999999999998e-03 6.101460000000000328e+00 1.145611000000000068e+01 1.757830000000000004e+00 9.142739999999999867e+00 1.145584000000000024e+01 5.280910000000000437e+00 3.048849999999999838e+00 1.145510999999999946e+01 3.523070000000000146e+00 6.095839999999999925e+00 1.146011999999999986e+01 1.760769999999999946e+00 9.145999999999999686e-01 1.854119000000000028e+01 -4.499999999999999877e-04 3.961079999999999934e+00 1.853863000000000127e+01 -1.761619999999999964e+00 7.009710000000000107e+00 1.854177999999999926e+01 5.282020000000000159e+00 9.154299999999999660e-01 1.854189999999999827e+01 3.517529999999999824e+00 3.964589999999999836e+00 1.853727999999999909e+01 1.761349999999999971e+00 7.011449999999999960e+00 1.854020999999999830e+01 8.797589999999999577e+00 9.136499999999999622e-01 1.853932000000000002e+01 7.039159999999999862e+00 3.962349999999999817e+00 1.854386999999999830e+01 5.279309999999999725e+00 7.008720000000000283e+00 1.853945999999999827e+01
-8.000000000000000383e-04 2.033589999999999787e+00 9.646039999999999281e+00 -1.755880000000000107e+00 5.080250000000000377e+00 9.645020000000000593e+00 -3.514749999999999819e+00 8.131050000000000111e+00 9.652380000000000848e+00 3.519789999999999974e+00 2.033859999999999779e+00 9.649680000000000035e+00 1.756950000000000012e+00 5.081760000000000055e+00 9.646290000000000475e+00 4.570000000000000277e-03 8.134109999999999729e+00 9.653909999999999769e+00 7.041339999999999932e+00 2.030909999999999993e+00 9.647930000000000561e+00 5.285689999999999777e+00 5.082609999999999850e+00 9.653829999999999245e+00 3.517160000000000064e+00 8.128399999999999181e+00 9.648870000000000502e+00 1.762729999999999908e+00 2.946959999999999802e+00 1.674229000000000056e+01 4.950000000000000407e-03 5.991850000000000342e+00 1.673279000000000138e+01 -1.756480000000000041e+00 9.046649999999999636e+00 1.673366000000000042e+01 5.285040000000000404e+00 2.945730000000000182e+00 1.673607000000000156e+01 3.523330000000000073e+00 5.998450000000000060e+00 1.673852000000000118e+01 1.757859999999999978e+00 9.043400000000000105e+00 1.673241000000000156e+01 8.798959999999999226e+00 2.947869999999999990e+00 1.673551000000000144e+01 7.041920000000000179e+00 5.993719999999999715e+00 1.673031999999999897e+01 5.279250000000000220e+00 9.044180000000000774e+00 1.673555999999999955e+01 -2.609999999999999907e-03 2.023449999999999971e+00 1.327435999999999972e+01 -1.757449999999999957e+00 5.084850000000000314e+00 1.326526999999999923e+01 -3.521510000000000140e+00 8.124890000000000612e+00 1.326891999999999960e+01 3.520259999999999945e+00 2.030860000000000110e+00 1.326861000000000068e+01 1.761700000000000044e+00 5.082609999999999850e+00 1.326684000000000019e+01 -5.490000000000000088e-03 8.132310000000000372e+00 1.326328999999999958e+01 7.035779999999999923e+00 2.029520000000000213e+00 1.326352999999999938e+01 5.280780000000000030e+00 5.077950000000000408e+00 1.326759000000000022e+01 3.520010000000000083e+00 8.128270000000000550e+00 1.326003000000000043e+01 1.754299999999999971e+00 2.948970000000000091e+00 2.035568999999999917e+01 -3.099999999999999999e-04 5.994340000000000224e+00 2.035408999999999935e+01 -1.754930000000000101e+00 9.043680000000000163e+00 2.035315999999999903e+01 5.274580000000000268e+00 2.947719999999999896e+00 2.035018000000000171e+01 3.517689999999999984e+00 5.994620000000000282e+00 2.035661999999999949e+01 1.761330000000000062e+00 9.042199999999999349e+00 2.035189000000000092e+01 8.797269999999999257e+00 2.943220000000000169e+00 2.035181000000000040e+01 7.036900000000000155e+00 5.998350000000000293e+00 2.034787000000000035e+01 5.278109999999999857e+00 9.043150000000000688e+00 2.035140000000000171e+01 1.619999999999999912e-03 4.380000000000000213e-03 1.145167999999999964e+01 8.794980000000000686e+00 3.048929999999999918e+00 1.145504999999999995e+01 7.036249999999999893e+00 6.094359999999999999e+00 1.145189000000000057e+01 3.516529999999999934e+00 1.670000000000000043e-03 1.146621000000000024e+01 1.761819999999999942e+00 3.050209999999999866e+00 1.145472000000000001e+01 3.129999999999999970e-03 6.106069999999999887e+00 1.145466000000000051e+01 1.755659999999999998e+00 9.140280000000000626e+00 1.145411000000000001e+01 5.281819999999999737e+00 3.049279999999999990e+00 1.145266999999999946e+01 3.526130000000000209e+00 6.094859999999999722e+00 1.146263000000000076e+01 1.761540000000000106e+00 9.146800000000000486e-01 1.854138999999999982e+01 -9.100000000000000016e-04 3.959239999999999871e+00 1.853628000000000142e+01 -1.763230000000000075e+00 7.008099999999999774e+00 1.854253999999999891e+01 5.284019999999999939e+00 9.163299999999999779e-01 1.854279999999999973e+01 3.515080000000000204e+00 3.966250000000000053e+00 1.853359000000000023e+01 1.762690000000000090e+00 7.011560000000000237e+00 1.853941999999999979e+01 8.795189999999999841e+00 9.127800000000000358e-01 1.853763999999999967e+01 7.038330000000000197e+00 3.961770000000000014e+00 1.854672000000000054e+01 5.278620000000000090e+00 7.006109999999999616e+00 1.853791999999999973e+01
-1.190000000000000085e-03 2.034260000000000179e+00 9.644780000000000797e+00 -1.753819999999999935e+00 5.080040000000000333e+00 9.643250000000000099e+00 -3.512129999999999974e+00 8.132030000000000314e+00 9.654260000000000730e+00 3.519680000000000142e+00 2.034650000000000070e+00 9.650209999999999511e+00 1.755449999999999955e+00 5.082309999999999661e+00 9.645149999999999224e+00 6.819999999999999674e-03 8.136620000000000630e+00 9.656530000000000058e+00 7.042010000000000325e+00 2.030229999999999979e+00 9.647589999999999222e+00 5.288509999999999600e+00 5.083569999999999922e+00 9.656409999999999272e+00 3.515760000000000218e+00 8.128049999999999997e+00 9.649010000000000531e+00 1.764089999999999936e+00 2.947029999999999816e+00 1.674623000000000062e+01 7.409999999999999920e-03 5.990179999999999616e+00 1.673205000000000098e+01 -1.754720000000000057e+00 9.048159999999999314e+00 1.673333999999999833e+01 5.287550000000000416e+00 2.945209999999999884e+00 1.673695000000000022e+01 3.524979999999999780e+00 6.000070000000000014e+00 1.674058000000000135e+01 1.756790000000000074e+00 9.043300000000000338e+00 1.673145999999999844e+01 8.798429999999999751e+00 2.948399999999999910e+00 1.673610000000000042e+01 7.042880000000000251e+00 5.992969999999999686e+00 1.672833999999999932e+01 5.278880000000000017e+00 9.044460000000000832e+00 1.673619000000000057e+01 -3.919999999999999873e-03 2.019070000000000142e+00 1.327810999999999986e+01 -1.756170000000000009e+00 5.086920000000000108e+00 1.326449999999999996e+01 -3.522279999999999855e+00 8.122790000000000177e+00 1.326998000000000033e+01 3.520389999999999908e+00 2.030180000000000096e+00 1.326952999999999960e+01 1.762550000000000061e+00 5.083560000000000301e+00 1.326687000000000083e+01 -8.219999999999999876e-03 8.133910000000000196e+00 1.326158000000000037e+01 7.033680000000000376e+00 2.028140000000000054e+00 1.326191000000000031e+01 5.281179999999999986e+00 5.076570000000000249e+00 1.326801000000000030e+01 3.520010000000000083e+00 8.127869999999999706e+00 1.325666999999999973e+01 1.751460000000000017e+00 2.950050000000000061e+00 2.035761000000000109e+01 -4.600000000000000139e-04 5.993900000000000006e+00 2.035520999999999958e+01 -1.752399999999999958e+00 9.043710000000000804e+00 2.035382999999999853e+01 5.271869999999999834e+00 2.948189999999999866e+00 2.034937000000000040e+01 3.516539999999999999e+00 5.994320000000000093e+00 2.035901000000000138e+01 1.761989999999999945e+00 9.041489999999999583e+00 2.035193999999999903e+01 8.795909999999999229e+00 2.941440000000000055e+00 2.035181000000000040e+01 7.035350000000000215e+00 5.999909999999999854e+00 2.034593999999999880e+01 5.277160000000000295e+00 9.042909999999999116e+00 2.035118999999999900e+01 2.419999999999999842e-03 6.539999999999999807e-03 1.144877999999999929e+01 8.792540000000000688e+00 3.049170000000000158e+00 1.145382000000000033e+01 7.034430000000000405e+00 6.093149999999999622e+00 1.144910999999999923e+01 3.514819999999999833e+00 2.500000000000000052e-03 1.147044999999999959e+01 1.762690000000000090e+00 3.051089999999999858e+00 1.145334000000000074e+01 4.669999999999999672e-03 6.110629999999999562e+00 1.145321999999999996e+01 1.753519999999999968e+00 9.137850000000000250e+00 1.145241000000000042e+01 5.282709999999999795e+00 3.049700000000000077e+00 1.145026000000000010e+01 3.529160000000000075e+00 6.093869999999999898e+00 1.146509999999999962e+01 1.762310000000000043e+00 9.147600000000000176e-01 1.854160999999999859e+01 -1.379999999999999933e-03 3.957419999999999938e+00 1.853397999999999968e+01 -1.764809999999999990e+00 7.006499999999999950e+00 1.854326999999999970e+01 5.286019999999999719e+00 9.172099999999999698e-01 1.854367999999999839e+01 3.512649999999999828e+00 3.967890000000000139e+00 1.852997999999999834e+01 1.764010000000000078e+00 7.011669999999999625e+00 1.853865000000000052e+01 8.792799999999999727e+00 9.119199999999999529e-01 1.853597999999999857e+01 7.037499999999999645e+00 3.961219999999999963e+00 1.854954000000000036e+01 5.277940000000000076e+00 7.003529999999999589e+00 1.853641000000000005e+01
-1.590000000000000050e-03 2.034949999999999815e+00 9.643509999999999138e+00 -1.751770000000000049e+00 5.079850000000000421e+00 9.641479999999999606e+00 -3.509520000000000195e+00 8.133010000000000517e+00 9.656109999999999971e+00 3.519579999999999931e+00 2.035419999999999785e+00 9.650750000000000384e+00 1.753989999999999938e+00 5.082860000000000156e+00 9.644030000000000769e+00 9.029999999999999832e-03 8.139129999999999754e+00 9.659110000000000085e+00 7.042670000000000208e+00 2.029539999999999900e+00 9.647230000000000416e+00 5.291299999999999670e+00 5.084520000000000373e+00 9.658929999999999794e+00 3.514369999999999994e+00 8.127689999999999415e+00 9.649150000000000560e+00 1.765430000000000055e+00 2.947090000000000209e+00 1.675010999999999939e+01 9.849999999999999381e-03 5.988540000000000418e+00 1.673131000000000057e+01 -1.752969999999999917e+00 9.049649999999999750e+00 1.673304999999999865e+01 5.290049999999999919e+00 2.944700000000000095e+00 1.673780999999999963e+01 3.526609999999999800e+00 6.001689999999999969e+00 1.674258000000000024e+01 1.755730000000000013e+00 9.043189999999999173e+00 1.673048999999999964e+01 8.797890000000000654e+00 2.948929999999999829e+00 1.673667999999999978e+01 7.043840000000000323e+00 5.992210000000000036e+00 1.672637999999999892e+01 5.278520000000000323e+00 9.044739999999999114e+00 1.673680999999999841e+01 -5.219999999999999814e-03 2.014740000000000197e+00 1.328180000000000049e+01 -1.754909999999999970e+00 5.088969999999999771e+00 1.326370999999999967e+01 -3.523070000000000146e+00 8.120680000000000121e+00 1.327102000000000004e+01 3.520519999999999872e+00 2.029520000000000213e+00 1.327044000000000068e+01 1.763390000000000013e+00 5.084509999999999863e+00 1.326689999999999969e+01 -1.094000000000000007e-02 8.135500000000000398e+00 1.325990999999999964e+01 7.031589999999999563e+00 2.026759999999999895e+00 1.326028999999999947e+01 5.281579999999999941e+00 5.075190000000000090e+00 1.326843000000000039e+01 3.520030000000000214e+00 8.127480000000000260e+00 1.325333000000000006e+01 1.748639999999999972e+00 2.951130000000000031e+00 2.035950000000000060e+01 -6.199999999999999999e-04 5.993459999999999788e+00 2.035630000000000095e+01 -1.749889999999999946e+00 9.043739999999999668e+00 2.035450000000000159e+01 5.269149999999999778e+00 2.948669999999999902e+00 2.034856999999999871e+01 3.515400000000000080e+00 5.994019999999999904e+00 2.036138000000000048e+01 1.762650000000000050e+00 9.040779999999999816e+00 2.035199000000000069e+01 8.794560000000000599e+00 2.939659999999999940e+00 2.035181000000000040e+01 7.033800000000000274e+00 6.001459999999999795e+00 2.034403000000000006e+01 5.276209999999999845e+00 9.042669999999999320e+00 2.035096000000000060e+01 3.210000000000000180e-03 8.670000000000000623e-03 1.144593000000000060e+01 8.790160000000000196e+00 3.049389999999999823e+00 1.145265000000000022e+01 7.032670000000000421e+00 6.091960000000000264e+00 1.144641000000000020e+01 3.513129999999999864e+00 3.330000000000000061e-03 1.147461999999999982e+01 1.763509999999999911e+00 3.051950000000000163e+00 1.145201999999999920e+01 6.199999999999999782e-03 6.115129999999999733e+00 1.145181000000000004e+01 1.751419999999999977e+00 9.135469999999999757e+00 1.145076000000000072e+01 5.283579999999999721e+00 3.050110000000000099e+00 1.144790000000000063e+01 3.532150000000000123e+00 6.092869999999999564e+00 1.146749999999999936e+01 1.763090000000000046e+00 9.148300000000000320e-01 1.854185999999999979e+01 -1.850000000000000082e-03 3.955620000000000136e+00 1.853175999999999846e+01 -1.766340000000000021e+00 7.004940000000000389e+00 1.854395999999999844e+01 5.287989999999999746e+00 9.180599999999999872e-01 1.854456000000000060e+01 3.510260000000000158e+00 3.969520000000000159e+00 1.852647999999999939e+01 1.765320000000000000e+00 7.011790000000000411e+00 1.853791999999999973e+01 8.790430000000000632e+00 9.110599999999999810e-01 1.853434999999999988e+01 7.036690000000000111e+00 3.960690000000000044e+00 1.855229999999999890e+01 5.277280000000000193e+00 7.001000000000000334e+00 1.853492999999999924e+01
-1.990000000000000015e-03 2.035649999999999959e+00 9.642239999999999256e+00 -1.749730000000000008e+00 5.079659999999999620e+00 9.639730000000000132e+00 -3.506920000000000037e+00 8.133979999999999322e+00 9.657930000000000348e+00 3.519480000000000164e+00 2.036189999999999944e+00 9.651270000000000238e+00 1.752559999999999896e+00 5.083429999999999893e+00 9.642920000000000158e+00 1.116999999999999937e-02 8.141650000000000276e+00 9.661640000000000228e+00 7.043319999999999581e+00 2.028849999999999820e+00 9.646850000000000591e+00 5.294050000000000367e+00 5.085460000000000313e+00 9.661390000000000811e+00 3.513009999999999966e+00 8.127309999999999590e+00 9.649269999999999570e+00 1.766750000000000043e+00 2.947140000000000093e+00 1.675390000000000157e+01 1.226000000000000006e-02 5.986909999999999954e+00 1.673057999999999979e+01 -1.751219999999999999e+00 9.051130000000000564e+00 1.673276999999999859e+01 5.292519999999999669e+00 2.944209999999999994e+00 1.673866999999999905e+01 3.528239999999999821e+00 6.003300000000000303e+00 1.674452000000000140e+01 1.754660000000000108e+00 9.043079999999999785e+00 1.672951000000000121e+01 8.797330000000000538e+00 2.949460000000000193e+00 1.673723999999999990e+01 7.044789999999999885e+00 5.991450000000000387e+00 1.672443000000000168e+01 5.278170000000000250e+00 9.045019999999999172e+00 1.673742999999999981e+01 -6.510000000000000162e-03 2.010450000000000070e+00 1.328542999999999985e+01 -1.753649999999999931e+00 5.091020000000000323e+00 1.326289000000000051e+01 -3.523890000000000189e+00 8.118570000000000064e+00 1.327205999999999975e+01 3.520640000000000214e+00 2.028900000000000148e+00 1.327134000000000036e+01 1.764210000000000056e+00 5.085440000000000182e+00 1.326690999999999931e+01 -1.362000000000000016e-02 8.137079999999999202e+00 1.325829000000000057e+01 7.029510000000000147e+00 2.025380000000000180e+00 1.325867000000000040e+01 5.282009999999999650e+00 5.073800000000000310e+00 1.326886000000000010e+01 3.520049999999999901e+00 8.127090000000000813e+00 1.325000999999999962e+01 1.745840000000000058e+00 2.952199999999999935e+00 2.036137000000000086e+01 -7.699999999999999597e-04 5.993000000000000327e+00 2.035735999999999990e+01 -1.747400000000000064e+00 9.043770000000000309e+00 2.035514999999999830e+01 5.266420000000000101e+00 2.949160000000000004e+00 2.034778000000000020e+01 3.514260000000000161e+00 5.993710000000000093e+00 2.036371000000000109e+01 1.763309999999999933e+00 9.040079999999999671e+00 2.035206000000000159e+01 8.793219999999999814e+00 2.937879999999999825e+00 2.035181000000000040e+01 7.032250000000000334e+00 6.002989999999999604e+00 2.034215999999999980e+01 5.275269999999999904e+00 9.042419999999999902e+00 2.035069999999999979e+01 3.980000000000000031e-03 1.074999999999999914e-02 1.144314999999999927e+01 8.787869999999999848e+00 3.049599999999999866e+00 1.145153999999999961e+01 7.030990000000000073e+00 6.090790000000000148e+00 1.144380999999999915e+01 3.511470000000000091e+00 4.159999999999999636e-03 1.147869000000000028e+01 1.764250000000000096e+00 3.052789999999999893e+00 1.145077000000000034e+01 7.700000000000000247e-03 6.119530000000000136e+00 1.145043000000000077e+01 1.749360000000000026e+00 9.133179999999999410e+00 1.144917000000000051e+01 5.284430000000000405e+00 3.050499999999999989e+00 1.144561999999999991e+01 3.535079999999999778e+00 6.091870000000000118e+00 1.146981000000000073e+01 1.763870000000000049e+00 9.149100000000000010e-01 1.854215999999999909e+01 -2.330000000000000040e-03 3.953860000000000152e+00 1.852964000000000055e+01 -1.767819999999999947e+00 7.003420000000000201e+00 1.854459999999999908e+01 5.289939999999999642e+00 9.188800000000000301e-01 1.854542000000000002e+01 3.507919999999999927e+00 3.971130000000000049e+00 1.852314000000000149e+01 1.766590000000000105e+00 7.011910000000000309e+00 1.853724000000000061e+01 8.788100000000000023e+00 9.102099999999999635e-01 1.853275999999999968e+01 7.035899999999999821e+00 3.960199999999999942e+00 1.855499999999999972e+01 5.276629999999999932e+00 6.998520000000000074e+00 1.853350999999999971e+01
-2.390000000000000197e-03 2.036369999999999791e+00 9.640969999999999374e+00 -1.747700000000000031e+00 5.079500000000000348e+00 9.637990000000000279e+00 -3.504329999999999945e+00 8.134959999999999525e+00 9.659720000000000084e+00 3.519379999999999953e+00 2.036929999999999907e+00 9.651790000000000092e+00 1.751179999999999959e+00 5.084010000000000140e+00 9.641830000000000567e+00 1.324000000000000003e-02 8.144180000000000419e+00 9.664089999999999847e+00 7.043960000000000221e+00 2.028150000000000119e+00 9.646440000000000126e+00 5.296750000000000291e+00 5.086389999999999745e+00 9.663750000000000284e+00 3.511680000000000135e+00 8.126910000000000522e+00 9.649390000000000356e+00 1.768040000000000056e+00 2.947169999999999845e+00 1.675760000000000005e+01 1.464999999999999983e-02 5.985299999999999621e+00 1.672985999999999862e+01 -1.749479999999999924e+00 9.052580000000000737e+00 1.673252000000000095e+01 5.294979999999999798e+00 2.943740000000000023e+00 1.673951999999999884e+01 3.529840000000000089e+00 6.004900000000000126e+00 1.674636999999999887e+01 1.753600000000000048e+00 9.042960000000000775e+00 1.672851999999999961e+01 8.796760000000000801e+00 2.949980000000000047e+00 1.673779000000000039e+01 7.045729999999999826e+00 5.990669999999999717e+00 1.672250999999999976e+01 5.277820000000000178e+00 9.045289999999999608e+00 1.673805000000000121e+01 -7.799999999999999642e-03 2.006229999999999958e+00 1.328898000000000046e+01 -1.752389999999999892e+00 5.093040000000000234e+00 1.326202999999999932e+01 -3.524739999999999984e+00 8.116460000000000008e+00 1.327307000000000059e+01 3.520770000000000177e+00 2.028309999999999835e+00 1.327224000000000004e+01 1.765030000000000099e+00 5.086369999999999614e+00 1.326690999999999931e+01 -1.627999999999999933e-02 8.138640000000000541e+00 1.325674000000000063e+01 7.027449999999999974e+00 2.023979999999999890e+00 1.325705999999999918e+01 5.282460000000000377e+00 5.072400000000000020e+00 1.326931000000000083e+01 3.520090000000000163e+00 8.126730000000000231e+00 1.324671000000000021e+01 1.743060000000000054e+00 2.953260000000000218e+00 2.036318999999999946e+01 -9.300000000000000541e-04 5.992530000000000356e+00 2.035837000000000074e+01 -1.744920000000000027e+00 9.043789999999999552e+00 2.035578999999999894e+01 5.263679999999999914e+00 2.949660000000000171e+00 2.034701000000000093e+01 3.513129999999999864e+00 5.993400000000000283e+00 2.036600999999999928e+01 1.763970000000000038e+00 9.039369999999999905e+00 2.035212999999999894e+01 8.791900000000000048e+00 2.936100000000000154e+00 2.035181000000000040e+01 7.030700000000000394e+00 6.004500000000000171e+00 2.034034000000000120e+01 5.274320000000000341e+00 9.042160000000000863e+00 2.035041000000000011e+01 4.749999999999999882e-03 1.277999999999999969e-02 1.144045000000000023e+01 8.785690000000000666e+00 3.049770000000000092e+00 1.145050999999999952e+01 7.029410000000000380e+00 6.089669999999999916e+00 1.144133000000000067e+01 3.509850000000000136e+00 5.000000000000000104e-03 1.148263999999999996e+01 1.764909999999999979e+00 3.053599999999999870e+00 1.144961999999999946e+01 9.169999999999999332e-03 6.123829999999999885e+00 1.144909999999999961e+01 1.747349999999999959e+00 9.130969999999999587e+00 1.144764999999999944e+01 5.285239999999999938e+00 3.050860000000000127e+00 1.144341999999999970e+01 3.537939999999999863e+00 6.090840000000000032e+00 1.147200999999999915e+01 1.764650000000000052e+00 9.149800000000000155e-01 1.854251999999999967e+01 -2.840000000000000076e-03 3.952129999999999921e+00 1.852766000000000091e+01 -1.769220000000000015e+00 7.001940000000000275e+00 1.854516999999999882e+01 5.291870000000000296e+00 9.196600000000000330e-01 1.854626000000000019e+01 3.505630000000000024e+00 3.972719999999999807e+00 1.851998000000000033e+01 1.767840000000000078e+00 7.012030000000000207e+00 1.853661999999999921e+01 8.785800000000000054e+00 9.093799999999999661e-01 1.853121000000000151e+01 7.035129999999999661e+00 3.959760000000000169e+00 1.855761000000000038e+01 5.275999999999999801e+00 6.996100000000000207e+00 1.853216000000000108e+01