-3.388465210400000274e+02
-3.388434947900000225e+02
-3.388345303699999818e+02
-3.388198496200000136e+02
-3.387998242400000208e+02
-3.387749577600000066e+02
-3.387458648200000084e+02
-3.387132406800000126e+02
-3.386778331500000263e+02
-3.386404159200000095e+02
-3.383438369300000090e+02
-3.383373886300000208e+02
-3.383267302799999925e+02
-3.383121221700000092e+02
-3.382939336900000171e+02
-3.382726298100000122e+02
-3.382487500700000282e+02
-3.382228879699999879e+02
-3.381956731099999729e+02
-3.381677511799999820e+02
-3.381699665699999855e+02
-3.381758476100000053e+02
-3.381792815800000085e+02
-3.381803115800000228e+02
-3.381790607400000113e+02
-3.381757219200000009e+02
-3.381705530300000078e+02
-3.381638707399999930e+02
-3.381560309100000268e+02
-3.381474193500000069e+02
-3.384058787899999743e+02
-3.384022413199999733e+02
-3.383935507499999744e+02
-3.383800292000000240e+02
-3.383620234599999890e+02
-3.383399878899999749e+02
-3.383144599699999731e+02
-3.382860420100000169e+02
-3.382553750199999740e+02
-3.382231104400000277e+02
-3.382526225400000044e+02
-3.382555295000000228e+02
-3.382564716499999804e+02
-3.382555674000000181e+02
-3.382529911600000219e+02
-3.382489600900000255e+02
-3.382437198200000239e+02
-3.382375270399999749e+02
-3.382306361299999935e+02
-3.382232735399999797e+02
-3.379122103199999856e+02
-3.379155487799999946e+02
-3.379163235500000155e+02
-3.379146106200000190e+02
-3.379105850799999757e+02
-3.379045174299999985e+02
-3.378967491799999721e+02
-3.378876717200000144e+02
-3.378777026099999716e+02
-3.378672598200000152e+02
-3.376329707500000268e+02
-3.376308573000000024e+02
-3.376278326999999990e+02
-3.376240417999999863e+02
-3.376196637400000213e+02
-3.376149041699999884e+02
-3.376099818700000128e+02
-3.376051277199999845e+02
-3.376005753800000093e+02
-3.375965536499999757e+02
-3.369622575099999722e+02
-3.369557579099999884e+02
-3.369492895399999952e+02
-3.369429606900000067e+02
-3.369368893199999775e+02
-3.369312096799999949e+02
-3.369260612300000162e+02
-3.369215934999999718e+02
-3.369179563399999893e+02
-3.369152957599999922e+02
-3.368065561099999741e+02
-3.368282202999999981e+02
-3.368550109399999997e+02
-3.368866030500000193e+02
-3.369226705199999969e+02
-3.369628871200000049e+02
-3.370069037000000094e+02
-3.370543297400000142e+02
-3.371047188200000164e+02
-3.371575579999999945e+02
-3.379270408900000007e+02
-3.379305120000000215e+02
-3.379310946800000011e+02
-3.379288374500000032e+02
-3.379238831399999867e+02
-3.379164566599999944e+02
-3.379068635900000004e+02
-3.378954763799999910e+02
-3.378827206400000023e+02
-3.378690609099999733e+02
-3.380775803199999814e+02
-3.380768314300000270e+02
-3.380719328700000119e+02
-3.380629995499999723e+02
-3.380502789600000142e+02
-3.380341334400000051e+02
-3.380150177699999858e+02
-3.379934696799999756e+02
-3.379700800300000196e+02
-3.379454747799999836e+02
-3.375126870500000109e+02
-3.375185081999999852e+02
-3.375238833600000135e+02
-3.375288808399999994e+02
-3.375336135100000092e+02
-3.375382336700000110e+02
-3.375429304200000047e+02
-3.375479187400000001e+02
-3.375534303700000009e+02
-3.375597094899999888e+02
-3.381244060500000046e+02
-3.381308243999999945e+02
-3.381344246200000043e+02
-3.381353124199999911e+02
-3.381336989600000038e+02
-3.381298853299999791e+02
-3.381242508000000271e+02
-3.381172240899999792e+02
-3.381092734900000210e+02
-3.381008851000000277e+02
-3.377611338099999898e+02
-3.377593913900000189e+02
-3.377587900199999922e+02
-3.377593533300000104e+02
-3.377611224600000241e+02
-3.377641501100000028e+02
-3.377684985000000211e+02
-3.377742245499999854e+02
-3.377813744700000029e+02
-3.377899711499999853e+02
-3.382889356300000259e+02
-3.382865304900000183e+02
-3.382808066299999723e+02
-3.382718911399999797e+02
-3.382599997899999948e+02
-3.382454373200000077e+02
-3.382285772800000245e+02
-3.382098481699999866e+02
-3.381897230000000150e+02
-3.381686992599999826e+02
-3.379897145200000068e+02
-3.379792423600000006e+02
-3.379699968699999886e+02
-3.379621139500000027e+02
-3.379557206800000131e+02
-3.379509295099999804e+02
-3.379478370900000073e+02
-3.379465217100000132e+02
-3.379470423000000210e+02
-3.379494338700000071e+02
-3.386222979400000099e+02
-3.386179815599999756e+02
-3.386087747700000250e+02
-3.385949043300000199e+02
-3.385767254599999774e+02
-3.385546928599999887e+02
-3.385293503299999998e+02
-3.385013056399999982e+02
-3.384712076600000046e+02
-3.384397276999999917e+02
-3.383039597700000058e+02
-3.383079597899999840e+02
-3.383077005600000007e+02
-3.383033611600000086e+02
-3.382952528100000222e+02
-3.382838108400000010e+02
-3.382695779499999844e+02
-3.382531707599999891e+02
-3.382352636699999948e+02
-3.382165483800000061e+02
-3.382593295199999943e+02
-3.382557414600000243e+02
-3.382477669699999865e+02
-3.382356422899999870e+02
-3.382197492399999987e+02
-3.382005834799999775e+02
-3.381787395900000206e+02
-3.381548772500000268e+02
-3.381297000899999716e+02
-3.381039289199999871e+02
-3.382053967200000102e+02
-3.382136007099999802e+02
-3.382198574199999825e+02
-3.382240951399999744e+02
-3.382263006599999926e+02
-3.382265189699999723e+02
-3.382248494699999810e+02
-3.382214492100000029e+02
-3.382165170900000248e+02
-3.382102924600000051e+02
-3.374700805699999933e+02
-3.374811827600000242e+02
-3.374902612899999781e+02
-3.374972113700000023e+02
-3.375020667499999831e+02
-3.375050098099999900e+02
-3.375063478999999802e+02
-3.375064965099999768e+02
-3.375059491600000001e+02
-3.375052365999999893e+02
-3.364776082100000281e+02
-3.364998720300000059e+02
-3.365302363399999876e+02
-3.365682144900000026e+02
-3.366132087700000284e+02
-3.366645080299999790e+02
-3.367212795099999880e+02
-3.367825871599999914e+02
-3.368473974300000009e+02
-3.369146063499999855e+02
-3.360913087800000199e+02
-3.361083053799999902e+02
-3.361366542600000002e+02
-3.361759233999999879e+02
-3.362255838500000209e+02
-3.362849882500000263e+02
-3.363533449899999823e+02
-3.364296990700000265e+02
-3.365129107399999953e+02
-3.366016788700000006e+02
-3.384081270300000028e+02
-3.384030283600000075e+02
-3.383928575300000148e+02
-3.383778809600000272e+02
-3.383584952400000248e+02
-3.383352044800000158e+02
-3.383086006799999836e+02
-3.382793366299999889e+02
-3.382481047900000135e+02
-3.382156140299999834e+02
-3.380234695999999985e+02
-3.380293330100000162e+02
-3.380326288900000122e+02
-3.380334178300000190e+02
-3.380318303500000070e+02
-3.380280767300000093e+02
-3.380224344299999757e+02
-3.380152252999999973e+02
-3.380068237799999906e+02
-3.379976256799999987e+02
-3.380969456600000171e+02
-3.380977047900000230e+02
-3.380934360399999719e+02
-3.380843634700000280e+02
-3.380708707300000242e+02
-3.380534630199999810e+02
-3.380327569599999720e+02
-3.380094459399999778e+02
-3.379842686999999728e+02
-3.379579831799999852e+02
-3.378059772500000122e+02
-3.377979599199999825e+02
-3.377918690100000276e+02
-3.377878848899999866e+02
-3.377862105799999881e+02
-3.377870605499999783e+02
-3.377906389999999988e+02
-3.377971362000000113e+02
-3.378067012299999874e+02
-3.378194316500000127e+02
-3.383011574199999814e+02
-3.383007160899999803e+02
-3.382966626799999972e+02
-3.382891280100000131e+02
-3.382783300500000223e+02
-3.382645803300000011e+02
-3.382482553199999984e+02
-3.382297906300000250e+02
-3.382096586800000182e+02
-3.381883626800000116e+02
-3.378485934700000257e+02
-3.378560204600000247e+02
-3.378602046299999984e+02
-3.378612123099999849e+02
-3.378592683200000124e+02
-3.378547353299999827e+02
-3.378480993900000158e+02
-3.378399323300000106e+02
-3.378308788599999843e+02
-3.378216082800000208e+02
-3.371774604299999964e+02
-3.371700040100000137e+02
-3.371657081000000176e+02
-3.371647955299999921e+02
-3.371675226099999918e+02
-3.371741411799999923e+02
-3.371848933800000054e+02
-3.371999772199999938e+02
-3.372195245199999931e+02
-3.372435703900000021e+02
-3.380937927900000091e+02
-3.380990646199999787e+02
-3.380997660799999949e+02
-3.380960647100000074e+02
-3.380882850599999756e+02
-3.380768878499999914e+02
-3.380624432399999932e+02
-3.380456079499999760e+02
-3.380270943200000033e+02
-3.380076329299999998e+02
-3.374587813300000221e+02
-3.374678215199999727e+02
-3.374747414999999933e+02
-3.374795944100000042e+02
-3.374825734600000260e+02
-3.374839992799999777e+02
-3.374842917299999954e+02
-3.374839432100000067e+02
-3.374834784500000069e+02
-3.374834225299999844e+02
-3.379611135800000170e+02
-3.379569114099999751e+02
-3.379509014800000273e+02
-3.379432747600000084e+02
-3.379343104600000061e+02
-3.379243597099999761e+02
-3.379138301899999988e+02
-3.379031625100000156e+02
-3.378928060100000152e+02
-3.378832088300000009e+02
-3.379823317299999985e+02
-3.379814463700000147e+02
-3.379783458200000155e+02
-3.379732079699999758e+02
-3.379663141500000165e+02
-3.379580302499999789e+02
-3.379487945500000023e+02
-3.379390967799999999e+02
-3.379294504100000154e+02
-3.379203797900000268e+02
-3.379344979699999953e+02
-3.379402325699999778e+02
-3.379462098600000104e+02
-3.379524401200000057e+02
-3.379590339700000072e+02
-3.379661833499999943e+02
-3.379741452600000002e+02
-3.379832123300000148e+02
-3.379936831399999733e+02
-3.380058310800000072e+02
-3.377892031599999996e+02
-3.377849007600000277e+02
-3.377768628399999784e+02
-3.377652801799999907e+02
-3.377504673400000001e+02
-3.377328494299999875e+02
-3.377129360299999803e+02
-3.376912995299999807e+02
-3.376685502199999860e+02
-3.376453072300000144e+02
-3.381588769200000115e+02
-3.381567867800000045e+02
-3.381517007799999988e+02
-3.381437288000000194e+02
-3.381330513500000166e+02
-3.381199132599999757e+02
-3.381046228800000222e+02
-3.380875323199999798e+02
-3.380690275800000109e+02
-3.380495241899999996e+02
-3.384061178599999948e+02
-3.384024058800000034e+02
-3.383941388399999823e+02
-3.383816140700000119e+02
-3.383652473500000042e+02
-3.383455557600000247e+02
-3.383231398199999944e+02
-3.382986347799999862e+02
-3.382727076400000215e+02
-3.382460219700000152e+02
-3.380514536700000008e+02
-3.380460266800000113e+02
-3.380377033899999901e+02
-3.380267307600000208e+02
-3.380134364499999720e+02
-3.379982195700000034e+02
-3.379815456300000278e+02
-3.379639182199999823e+02
-3.379458765800000037e+02
-3.379279648699999825e+02
-3.384332501499999921e+02
-3.384291890200000239e+02
-3.384214123699999845e+02
-3.384100733299999888e+02
-3.383954160200000274e+02
-3.383777660999999739e+02
-3.383575150799999847e+02
-3.383351101800000151e+02
-3.383110375300000214e+02
-3.382858051700000033e+02
-3.380168209199999865e+02
-3.380160877299999811e+02
-3.380122766499999898e+02
-3.380054996800000140e+02
-3.379959468000000129e+02
-3.379838716799999929e+02
-3.379695847899999990e+02
-3.379534425400000259e+02
-3.379358288399999992e+02
-3.379171494199999870e+02
-3.383151113499999951e+02
-3.383138128800000004e+02
-3.383078768699999728e+02
-3.382974627199999986e+02
-3.382828741299999820e+02
-3.382645543799999928e+02
-3.382430633100000250e+02
-3.382190432500000270e+02
-3.381932020500000249e+02
-3.381662768900000060e+02
-3.382381837799999857e+02
-3.382376145499999893e+02
-3.382322245799999791e+02
-3.382221971199999757e+02
-3.382078388499999733e+02
-3.381895672399999739e+02
-3.381678915400000278e+02
-3.381433874200000105e+02
-3.381166740300000129e+02
-3.380883924699999739e+02
-3.381519357000000241e+02
-3.381436298500000248e+02
-3.381320901999999933e+02
-3.381175247699999886e+02
-3.381002378000000022e+02
-3.380806056800000192e+02
-3.380590722800000094e+02
-3.380361293500000102e+02
-3.380122980300000108e+02
-3.379881129400000077e+02
-3.381564667200000258e+02
-3.381590642200000048e+02
-3.381583646700000259e+02
-3.381544594200000233e+02
-3.381475314900000058e+02
-3.381378374299999905e+02
-3.381257053400000245e+02
-3.381115104900000006e+02
-3.380956762299999809e+02
-3.380786479500000041e+02
-3.381884845100000234e+02
-3.381886527699999760e+02
-3.381880355000000122e+02
-3.381867054200000098e+02
-3.381847621100000083e+02
-3.381823273100000051e+02
-3.381795472700000005e+02
-3.381765837899999951e+02
-3.381736073600000054e+02
-3.381707927400000244e+02
-3.385115056800000275e+02
-3.385167366900000161e+02
-3.385172573099999909e+02
-3.385131572700000220e+02
-3.385046651999999767e+02
-3.384921314900000198e+02
-3.384760100899999884e+02
-3.384568401099999733e+02
-3.384352268700000081e+02
-3.384118081799999800e+02
-3.379223033000000100e+02
-3.379135127999999781e+02
-3.379012618400000179e+02
-3.378859260599999743e+02
-3.378679826399999797e+02
-3.378479884299999867e+02
-3.378265604700000040e+02
-3.378043447100000094e+02
-3.377819970200000057e+02
-3.377601574799999753e+02
-3.382443149100000142e+02
-3.382436456099999873e+02
-3.382392151899999817e+02
-3.382312242599999763e+02
-3.382199797999999760e+02
-3.382058812700000203e+02
-3.381894008099999951e+02
-3.381710626299999944e+02
-3.381514286899999888e+02
-3.381310662000000207e+02
-3.383412562299999991e+02
-3.383357207099999755e+02
-3.383266219500000034e+02
-3.383142022700000098e+02
-3.382988109300000019e+02
-3.382808866699999726e+02
-3.382609361300000046e+02
-3.382395154800000228e+02
-3.382172082199999750e+02
-3.381946064200000137e+02
