9.999999999999999547e-07 9.179999999999999792e-04 -6.765000000000000180e-03 -1.999999999999999909e-06 9.210000000000000521e-04 -6.767999999999999711e-03 -9.999999999999999547e-07 9.190000000000000035e-04 -6.765000000000000180e-03 9.999999999999999547e-07 9.190000000000000035e-04 -6.764000000000000047e-03 3.000000000000000076e-06 9.200000000000000278e-04 -6.768999999999999843e-03 -9.999999999999999547e-07 9.210000000000000521e-04 -6.766999999999999578e-03 -1.999999999999999909e-06 9.200000000000000278e-04 -6.765000000000000180e-03 -9.999999999999999547e-07 9.219999999999999680e-04 -6.766999999999999578e-03 0.000000000000000000e+00 9.190000000000000035e-04 -6.766000000000000313e-03 0.000000000000000000e+00 8.989000000000000462e-03 -7.563000000000000278e-03 3.000000000000000076e-06 8.989000000000000462e-03 -7.569000000000000207e-03 9.999999999999999547e-07 8.992999999999999258e-03 -7.562000000000000145e-03 3.000000000000000076e-06 8.989999999999999727e-03 -7.564000000000000411e-03 0.000000000000000000e+00 8.989999999999999727e-03 -7.565999999999999809e-03 -1.999999999999999909e-06 8.989999999999999727e-03 -7.565999999999999809e-03 -9.999999999999999547e-07 8.991000000000000728e-03 -7.564999999999999676e-03 0.000000000000000000e+00 8.989000000000000462e-03 -7.561000000000000013e-03 1.999999999999999909e-06 8.989000000000000462e-03 -7.566999999999999942e-03 3.000000000000000076e-06 -9.658999999999999184e-03 4.786000000000000323e-03 0.000000000000000000e+00 -9.655000000000000387e-03 4.786000000000000323e-03 9.999999999999999547e-07 -9.653000000000000122e-03 4.784000000000000058e-03 9.999999999999999547e-07 -9.658999999999999184e-03 4.782999999999999925e-03 9.999999999999999547e-07 -9.653999999999999387e-03 4.788999999999999854e-03 -3.000000000000000076e-06 -9.655999999999999653e-03 4.786999999999999589e-03 -1.999999999999999909e-06 -9.657000000000000653e-03 4.786000000000000323e-03 -9.999999999999999547e-07 -9.655999999999999653e-03 4.786999999999999589e-03 3.000000000000000076e-06 -9.657000000000000653e-03 4.786000000000000323e-03 0.000000000000000000e+00 2.730000000000000222e-04 6.400000000000000307e-03 9.999999999999999547e-07 2.719999999999999979e-04 6.402999999999999838e-03 0.000000000000000000e+00 2.759999999999999867e-04 6.400000000000000307e-03 0.000000000000000000e+00 2.730000000000000222e-04 6.399000000000000174e-03 9.999999999999999547e-07 2.730000000000000222e-04 6.401999999999999705e-03 -5.000000000000000409e-06 2.739999999999999923e-04 6.399000000000000174e-03 -9.999999999999999547e-07 2.770000000000000110e-04 6.400000000000000307e-03 0.000000000000000000e+00 2.730000000000000222e-04 6.399000000000000174e-03 3.999999999999999819e-06 2.739999999999999923e-04 6.401999999999999705e-03 1.999999999999999909e-06 -3.625000000000000184e-03 3.344000000000000184e-03 -3.000000000000000076e-06 -3.625999999999999883e-03 3.341999999999999919e-03 -9.999999999999999547e-07 -3.625999999999999883e-03 3.344000000000000184e-03 -1.999999999999999909e-06 -3.625999999999999883e-03 3.344000000000000184e-03 3.000000000000000076e-06 -3.629999999999999980e-03 3.344000000000000184e-03 -6.999999999999999895e-06 -3.625999999999999883e-03 3.343000000000000051e-03 9.999999999999999547e-07 -3.625000000000000184e-03 3.343000000000000051e-03 -1.999999999999999909e-06 -3.625999999999999883e-03 3.343000000000000051e-03 3.999999999999999819e-06 -3.628000000000000148e-03 3.340999999999999786e-03 3.000000000000000076e-06 3.076000000000000175e-03 -4.929999999999999487e-04 -9.999999999999999547e-07 3.073000000000000211e-03 -4.929999999999999487e-04 0.000000000000000000e+00 3.076999999999999874e-03 -4.920000000000000328e-04 -6.000000000000000152e-06 3.076000000000000175e-03 -4.929999999999999487e-04 0.000000000000000000e+00 3.070999999999999945e-03 -4.949999999999999973e-04 -3.999999999999999819e-06 3.072000000000000078e-03 -4.889999999999999599e-04 1.999999999999999909e-06 3.073999999999999910e-03 -4.920000000000000328e-04 -5.000000000000000409e-06 3.073000000000000211e-03 -4.960000000000000216e-04 9.999999999999999547e-07 3.075000000000000042e-03 -4.960000000000000216e-04
-5.220000000000000031e-04 1.450000000000000074e-02 -3.278000000000000098e-03 -8.023999999999999883e-03 1.296800000000000036e-02 6.158000000000000279e-03 -1.116699999999999984e-02 -3.680000000000000003e-04 -3.234599999999999975e-02 2.092000000000000109e-03 -1.122699999999999913e-02 -1.212500000000000036e-02 3.496300000000000102e-02 1.071300000000000030e-02 9.717999999999999208e-03 -5.144900000000000168e-02 2.603999999999999978e-03 -5.297899999999999832e-02 -8.168999999999999179e-03 -3.253999999999999948e-03 -2.389399999999999857e-02 -3.336200000000000276e-02 -7.000000000000000146e-03 -6.511999999999999733e-02 2.157600000000000143e-02 -1.183700000000000030e-02 -1.161599999999999959e-02 -1.639399999999999885e-02 -5.409999999999999878e-03 -7.627699999999999758e-02 -2.459899999999999934e-02 2.436800000000000077e-02 3.638000000000000175e-03 -7.004999999999999942e-03 -9.882000000000000159e-03 1.140299999999999994e-02 -1.753499999999999850e-02 2.079100000000000045e-02 -1.533600000000000067e-02 -1.531700000000000075e-02 6.359999999999999551e-04 -6.564300000000000690e-02 2.562000000000000041e-03 4.564999999999999614e-03 -1.645200000000000135e-02 -1.224199999999999941e-02 2.749999999999999840e-03 -2.045999999999999902e-02 -4.924000000000000425e-03 -9.539999999999999869e-04 1.166700000000000029e-02 7.148999999999999973e-03 3.389999999999999784e-03 -1.031499999999999952e-02 5.697999999999999940e-03 4.150500000000000023e-02 -5.869499999999999718e-02 -6.837000000000000195e-03 -2.117899999999999991e-02 -2.079299999999999898e-02 -2.179700000000000040e-02 -7.348000000000000365e-03 -1.150999999999999940e-02 -1.647999999999999942e-03 2.224500000000000088e-02 -2.533000000000000095e-03 -8.892000000000000598e-03 -1.654299999999999868e-02 -4.545000000000000429e-03 2.275399999999999992e-02 -1.808600000000000138e-02 4.789199999999999707e-02 1.135700000000000078e-02 -9.145999999999999616e-03 5.083999999999999977e-03 1.255399999999999919e-02 -1.339300000000000039e-02 1.116900000000000011e-02 7.093999999999999612e-03 3.210999999999999879e-03 2.411699999999999955e-02 1.932999999999999996e-02 -6.268000000000000134e-03 -2.518600000000000005e-02 2.010000000000000068e-04 -8.437000000000000055e-03 -2.718999999999999889e-02 -1.653400000000000009e-02 -2.354000000000000190e-03 -5.713000000000000196e-03 -5.121999999999999817e-03 8.425999999999999462e-03 1.311599999999999919e-02 6.578999999999999779e-03 -3.582999999999999814e-03 -2.423399999999999860e-02 -1.510999999999999973e-03 1.019999999999999992e-04 1.100699999999999942e-02 1.139100000000000008e-02 4.093000000000000284e-03 3.820000000000000045e-03 1.765999999999999992e-03 -1.507700000000000012e-02 3.868599999999999817e-02 2.610000000000000015e-04 -6.416999999999999961e-03 -1.653699999999999962e-02 -8.274999999999999370e-03 -3.254200000000000148e-02 4.839899999999999758e-02 5.977799999999999780e-02 -1.800900000000000070e-02 4.525599999999999762e-02 5.155900000000000066e-02 1.576400000000000023e-02 6.699600000000000000e-02 2.247899999999999898e-02 -3.429000000000000190e-03 -6.407300000000000495e-02 -4.513500000000000151e-02 -1.992599999999999927e-02 5.436499999999999666e-02 -1.710599999999999968e-02 -6.256699999999999762e-02 2.577000000000000124e-02 2.846399999999999972e-02 4.597600000000000298e-02 3.965099999999999875e-02 -1.845899999999999971e-02 -1.543199999999999954e-02 4.915400000000000325e-02 -3.799799999999999706e-02 -9.291999999999999912e-03 -5.535500000000000143e-02 1.994000000000000113e-03 1.593000000000000015e-03 2.863100000000000020e-02 -7.905999999999999833e-03 2.413200000000000067e-02 6.765799999999999592e-02 3.873499999999999860e-02 2.843800000000000147e-02 -3.503799999999999970e-02 -1.719899999999999901e-02 -2.036299999999999916e-02 -1.010999999999999920e-02 3.078200000000000033e-02 -1.097500000000000038e-02 9.783400000000000429e-02 -1.873999999999999971e-02 4.585999999999999799e-03 3.111200000000000077e-02 2.033000000000000085e-02 8.685000000000000012e-03 2.397300000000000125e-02 1.202399999999999997e-02 2.569799999999999862e-02 -4.482300000000000173e-02 1.060999999999999964e-02 3.836300000000000127e-02 3.335500000000000270e-02
-9.550000000000000112e-04 2.795699999999999921e-02 2.180000000000000134e-04 -1.606399999999999842e-02 2.487599999999999881e-02 1.903600000000000084e-02 -2.229099999999999832e-02 -1.716999999999999993e-03 -5.776699999999999890e-02 4.074999999999999629e-03 -2.310699999999999907e-02 -1.754400000000000057e-02 6.919500000000000650e-02 2.000800000000000148e-02 2.570199999999999915e-02 -1.034339999999999982e-01 3.853000000000000088e-03 -1.005039999999999961e-01 -1.628900000000000139e-02 -7.383999999999999939e-03 -4.088800000000000073e-02 -6.729000000000000259e-02 -1.535899999999999939e-02 -1.242299999999999932e-01 4.311000000000000248e-02 -2.438900000000000096e-02 -1.651599999999999943e-02 -3.326699999999999796e-02 -2.024099999999999858e-02 -1.455680000000000029e-01 -4.873399999999999954e-02 3.943900000000000183e-02 1.456099999999999929e-02 -1.405700000000000005e-02 -2.838099999999999998e-02 3.008399999999999963e-02 -3.507899999999999907e-02 3.258699999999999791e-02 -2.300200000000000161e-02 -3.098400000000000112e-02 -7.798000000000000244e-03 -1.240890000000000049e-01 5.093999999999999570e-03 6.899999999999999667e-05 -2.527099999999999833e-02 -2.442799999999999833e-02 -3.511999999999999931e-03 -3.335799999999999876e-02 -9.813000000000000542e-03 -1.059099999999999972e-02 3.071499999999999925e-02 1.432100000000000040e-02 -2.171999999999999886e-03 -1.289900000000000074e-02 1.117499999999999917e-02 9.133700000000000152e-02 -1.202440000000000037e-01 -1.355100000000000054e-02 -3.256200000000000067e-02 -4.583299999999999874e-02 -4.321099999999999941e-02 -5.022000000000000422e-03 -2.740799999999999834e-02 -3.433999999999999986e-03 5.408500000000000113e-02 -9.336999999999999814e-03 -1.765800000000000008e-02 -2.334900000000000170e-02 -1.366099999999999953e-02 4.582599999999999868e-02 -2.669799999999999951e-02 9.136700000000000377e-02 2.264400000000000093e-02 -8.609000000000000333e-03 5.523000000000000131e-03 2.517399999999999846e-02 -1.718099999999999836e-02 1.769099999999999839e-02 1.414499999999999959e-02 1.621399999999999925e-02 4.358900000000000274e-02 3.816499999999999754e-02 -1.289799999999999974e-02 -5.613100000000000034e-02 2.509999999999999753e-04 -1.683899999999999980e-02 -6.017600000000000032e-02 -3.287099999999999744e-02 -5.053000000000000200e-03 -1.769499999999999892e-02 -1.007899999999999942e-02 1.651199999999999890e-02 1.985800000000000065e-02 1.307000000000000002e-02 -7.233999999999999979e-03 -5.443100000000000022e-02 -3.018999999999999982e-03 -8.000000000000000654e-05 1.565499999999999878e-02 2.261499999999999969e-02 7.832000000000000420e-03 1.382999999999999898e-03 3.580999999999999982e-03 -3.033800000000000038e-02 7.100700000000000067e-02 5.469999999999999602e-04 -1.294499999999999991e-02 -3.909599999999999881e-02 -1.665900000000000020e-02 -6.101000000000000173e-02 9.284499999999999698e-02 1.183239999999999986e-01 -3.192299999999999999e-02 8.604199999999999349e-02 1.035829999999999945e-01 3.552899999999999808e-02 1.308239999999999958e-01 4.411299999999999943e-02 -3.131000000000000102e-03 -1.311829999999999941e-01 -8.911700000000000177e-02 -3.550600000000000284e-02 1.039260000000000045e-01 -3.398400000000000032e-02 -1.214510000000000034e-01 4.802000000000000018e-02 5.774300000000000266e-02 9.581399999999999639e-02 7.668099999999999916e-02 -3.655699999999999922e-02 -2.712200000000000027e-02 9.443000000000000005e-02 -7.560300000000000353e-02 -1.482100000000000084e-02 -1.133849999999999997e-01 4.001000000000000216e-03 -1.320000000000000101e-04 5.736999999999999739e-02 -1.573099999999999846e-02 4.492499999999999966e-02 1.350520000000000054e-01 7.690800000000000414e-02 5.350599999999999801e-02 -6.893299999999999428e-02 -3.433100000000000041e-02 -4.358800000000000174e-02 -1.964499999999999927e-02 6.224299999999999972e-02 -2.453999999999999931e-02 1.956650000000000056e-01 -3.724600000000000133e-02 6.117000000000000041e-03 6.223800000000000165e-02 4.053899999999999865e-02 1.430799999999999954e-02 4.814700000000000230e-02 2.387799999999999992e-02 4.794999999999999957e-02 -8.859599999999999420e-02 2.160000000000000114e-02 7.359699999999999576e-02 6.705800000000000649e-02
-1.299999999999999940e-03 4.113599999999999896e-02 3.716999999999999818e-03 -2.415000000000000133e-02 3.654000000000000303e-02 3.192299999999999999e-02 -3.340699999999999920e-02 -3.154999999999999818e-03 -8.293399999999999384e-02 5.884000000000000341e-03 -3.467300000000000243e-02 -2.298599999999999949e-02 1.025780000000000025e-01 2.871399999999999994e-02 4.113599999999999896e-02 -1.557290000000000063e-01 4.558000000000000419e-03 -1.490509999999999891e-01 -2.430600000000000122e-02 -1.135099999999999998e-02 -5.751200000000000062e-02 -1.016569999999999974e-01 -2.416599999999999998e-02 -1.837110000000000132e-01 6.453100000000000502e-02 -3.664599999999999802e-02 -2.142099999999999907e-02 -5.057600000000000290e-02 -3.539300000000000085e-02 -2.150559999999999972e-01 -7.237300000000000677e-02 5.415299999999999975e-02 2.519499999999999865e-02 -2.122299999999999881e-02 -4.646000000000000130e-02 4.834399999999999809e-02 -5.272000000000000297e-02 4.434799999999999853e-02 -3.050999999999999893e-02 -4.700599999999999917e-02 -1.640899999999999997e-02 -1.824500000000000011e-01 7.650999999999999815e-03 -4.483000000000000006e-03 -3.386700000000000127e-02 -3.642200000000000298e-02 -9.797999999999999418e-03 -4.619499999999999995e-02 -1.469499999999999973e-02 -1.975100000000000119e-02 4.955299999999999983e-02 2.151499999999999940e-02 -7.672000000000000000e-03 -1.532400000000000082e-02 1.642000000000000057e-02 1.397700000000000053e-01 -1.794900000000000106e-01 -2.010500000000000134e-02 -4.393600000000000283e-02 -6.996499999999999941e-02 -6.396599999999999508e-02 -2.481999999999999831e-03 -4.280799999999999883e-02 -5.394999999999999622e-03 8.560500000000000054e-02 -1.558099999999999936e-02 -2.624800000000000050e-02 -3.000099999999999989e-02 -2.243200000000000055e-02 6.916300000000000225e-02 -3.547899999999999665e-02 1.349629999999999996e-01 3.397900000000000226e-02 -7.901000000000000037e-03 6.313000000000000035e-03 3.771499999999999853e-02 -2.087599999999999872e-02 2.423700000000000160e-02 2.106900000000000092e-02 2.915900000000000089e-02 6.329100000000000004e-02 5.655099999999999710e-02 -1.964000000000000121e-02 -8.613800000000000623e-02 1.410000000000000120e-04 -2.483099999999999891e-02 -9.227799999999999891e-02 -4.902200000000000307e-02 -7.832999999999999685e-03 -2.940699999999999911e-02 -1.461900000000000005e-02 2.442799999999999833e-02 2.668999999999999845e-02 1.948499999999999885e-02 -1.060099999999999931e-02 -8.401799999999999546e-02 -4.555000000000000021e-03 -2.300000000000000070e-04 2.036500000000000116e-02 3.359899999999999692e-02 1.154699999999999997e-02 -7.829999999999999504e-04 5.594000000000000014e-03 -4.549199999999999772e-02 1.032450000000000034e-01 9.020000000000000240e-04 -1.923800000000000163e-02 -6.098699999999999954e-02 -2.507500000000000007e-02 -8.900800000000000378e-02 1.363360000000000127e-01 1.752180000000000126e-01 -4.526899999999999674e-02 1.252979999999999927e-01 1.557379999999999876e-01 5.551500000000000185e-02 1.942669999999999952e-01 6.482799999999999674e-02 -2.782999999999999884e-03 -1.976279999999999981e-01 -1.316080000000000028e-01 -5.037400000000000211e-02 1.516260000000000108e-01 -5.053499999999999659e-02 -1.799050000000000094e-01 6.991100000000000092e-02 8.767700000000000493e-02 1.455150000000000055e-01 1.140680000000000027e-01 -5.415199999999999875e-02 -3.860100000000000336e-02 1.387839999999999907e-01 -1.126960000000000045e-01 -2.012399999999999953e-02 -1.704189999999999872e-01 5.984999999999999869e-03 -2.106999999999999932e-03 8.541500000000000481e-02 -2.336600000000000135e-02 6.540400000000000380e-02 2.011300000000000032e-01 1.143149999999999999e-01 7.818100000000000049e-02 -1.019430000000000058e-01 -5.125899999999999901e-02 -6.643100000000000394e-02 -2.904899999999999843e-02 9.421599999999999420e-02 -3.753200000000000286e-02 2.922179999999999778e-01 -5.537999999999999867e-02 7.655000000000000346e-03 9.253300000000000414e-02 6.053100000000000147e-02 1.993699999999999986e-02 7.183000000000000496e-02 3.550999999999999990e-02 6.967800000000000382e-02 -1.315530000000000033e-01 3.290699999999999875e-02 1.086740000000000067e-01 1.003409999999999996e-01
-1.533999999999999990e-03 5.388500000000000234e-02 7.297999999999999800e-03 -3.228500000000000120e-02 4.784200000000000258e-02 4.487200000000000216e-02 -4.454600000000000226e-02 -4.728999999999999697e-03 -1.077010000000000051e-01 7.433000000000000371e-03 -4.580599999999999949e-02 -2.834499999999999867e-02 1.349180000000000101e-01 3.670400000000000051e-02 5.601099999999999829e-02 -2.079989999999999895e-01 4.641000000000000160e-03 -1.982679999999999998e-01 -3.213200000000000084e-02 -1.502999999999999996e-02 -7.352000000000000202e-02 -1.361809999999999965e-01 -3.341000000000000220e-02 -2.431049999999999878e-01 8.572200000000000653e-02 -4.848399999999999932e-02 -2.625699999999999909e-02 -6.820800000000000474e-02 -5.071300000000000113e-02 -2.841400000000000037e-01 -9.539499999999999369e-02 6.842700000000000171e-02 3.554600000000000121e-02 -2.853599999999999887e-02 -6.403399999999999370e-02 6.606700000000000073e-02 -7.048599999999999310e-02 5.603999999999999954e-02 -3.774500000000000077e-02 -6.332500000000000628e-02 -2.523900000000000102e-02 -2.402130000000000098e-01 1.028899999999999954e-02 -9.093000000000000388e-03 -4.212300000000000072e-02 -4.808699999999999780e-02 -1.608599999999999960e-02 -5.884400000000000047e-02 -1.957300000000000012e-02 -2.831099999999999936e-02 6.814800000000000024e-02 2.873200000000000059e-02 -1.305500000000000063e-02 -1.751899999999999985e-02 2.145100000000000132e-02 1.866480000000000083e-01 -2.361350000000000116e-01 -2.643099999999999963e-02 -5.533799999999999830e-02 -9.289600000000000635e-02 -8.384300000000000086e-02 3.939999999999999817e-04 -5.763700000000000073e-02 -7.568000000000000074e-03 1.165709999999999941e-01 -2.126000000000000112e-02 -3.461199999999999694e-02 -3.646400000000000335e-02 -3.077600000000000127e-02 9.266499999999999737e-02 -4.440500000000000003e-02 1.783919999999999950e-01 4.538500000000000173e-02 -6.937999999999999723e-03 7.588000000000000127e-03 5.003699999999999815e-02 -2.438299999999999843e-02 3.069500000000000006e-02 2.781399999999999845e-02 4.187400000000000150e-02 8.318499999999999506e-02 7.447199999999999653e-02 -2.650800000000000031e-02 -1.149730000000000057e-01 -1.620000000000000075e-04 -3.231300000000000144e-02 -1.232860000000000067e-01 -6.493999999999999773e-02 -1.073600000000000075e-02 -4.074300000000000144e-02 -1.853199999999999986e-02 3.207800000000000235e-02 3.362600000000000311e-02 2.583099999999999979e-02 -1.360600000000000004e-02 -1.127979999999999955e-01 -6.146000000000000421e-03 -3.089999999999999756e-04 2.517499999999999946e-02 4.422000000000000236e-02 1.527799999999999991e-02 -2.625999999999999862e-03 7.938999999999999876e-03 -6.045600000000000279e-02 1.352270000000000139e-01 1.350999999999999987e-03 -2.524900000000000061e-02 -8.199800000000000144e-02 -3.343600000000000044e-02 -1.163659999999999972e-01 1.784660000000000135e-01 2.300310000000000132e-01 -5.794599999999999751e-02 1.626009999999999955e-01 2.075780000000000125e-01 7.554199999999999804e-02 2.566899999999999737e-01 8.447200000000000542e-02 -2.374999999999999941e-03 -2.628699999999999926e-01 -1.722950000000000037e-01 -6.446300000000000641e-02 1.970469999999999999e-01 -6.662099999999999966e-02 -2.374779999999999947e-01 9.121700000000000641e-02 1.180390000000000050e-01 1.946720000000000117e-01 1.514089999999999880e-01 -7.111399999999999666e-02 -4.975600000000000162e-02 1.817900000000000071e-01 -1.490259999999999918e-01 -2.513800000000000062e-02 -2.260089999999999877e-01 7.905000000000000568e-03 -4.301000000000000136e-03 1.123979999999999979e-01 -3.074999999999999956e-02 8.542700000000000293e-02 2.652120000000000033e-01 1.506470000000000031e-01 1.022809999999999969e-01 -1.337849999999999873e-01 -6.789800000000000002e-02 -8.868800000000000294e-02 -3.830100000000000171e-02 1.264089999999999936e-01 -4.987699999999999773e-02 3.865080000000000182e-01 -7.299200000000000133e-02 9.143000000000000085e-03 1.216389999999999971e-01 8.019300000000000039e-02 2.554899999999999879e-02 9.478799999999999726e-02 4.684300000000000269e-02 9.070400000000000684e-02 -1.733979999999999966e-01 4.442399999999999821e-02 1.433460000000000012e-01 1.328529999999999989e-01
-1.631999999999999987e-03 6.605400000000000160e-02 1.102500000000000008e-02 -4.046700000000000297e-02 5.868600000000000205e-02 5.793999999999999845e-02 -5.575700000000000101e-02 -6.492999999999999640e-03 -1.319450000000000067e-01 8.640000000000000110e-03 -5.638499999999999762e-02 -3.353600000000000331e-02 1.660419999999999952e-01 4.386799999999999727e-02 7.031700000000000450e-02 -2.598980000000000179e-01 4.015000000000000339e-03 -2.477910000000000112e-01 -3.969700000000000312e-02 -1.830800000000000136e-02 -8.868499999999999994e-02 -1.705679999999999974e-01 -4.306999999999999718e-02 -3.019649999999999834e-01 1.065780000000000061e-01 -5.977299999999999974e-02 -3.096399999999999847e-02 -8.605899999999999661e-02 -6.602600000000000136e-02 -3.522230000000000083e-01 -1.176900000000000029e-01 8.217199999999999505e-02 4.563899999999999901e-02 -3.602099999999999747e-02 -8.102600000000000080e-02 8.316199999999999981e-02 -8.840299999999999547e-02 6.760800000000000143e-02 -4.459899999999999975e-02 -7.989100000000000368e-02 -3.433699999999999947e-02 -2.968609999999999860e-01 1.304199999999999977e-02 -1.375600000000000087e-02 -4.991299999999999903e-02 -5.928599999999999842e-02 -2.234200000000000075e-02 -7.117800000000000515e-02 -2.444699999999999998e-02 -3.614499999999999658e-02 8.646500000000000019e-02 3.597600000000000103e-02 -1.828199999999999964e-02 -1.942599999999999882e-02 2.629799999999999846e-02 2.318429999999999935e-01 -2.899340000000000250e-01 -3.246299999999999880e-02 -6.680099999999999927e-02 -1.143610000000000043e-01 -1.026460000000000011e-01 3.722000000000000048e-03 -7.183199999999999308e-02 -9.993999999999999412e-03 1.467759999999999898e-01 -2.637499999999999914e-02 -4.272399999999999809e-02 -4.270100000000000284e-02 -3.862000000000000155e-02 1.162440000000000001e-01 -5.346299999999999664e-02 2.213620000000000032e-01 5.689400000000000013e-02 -5.636000000000000384e-03 9.483000000000000110e-03 6.201700000000000268e-02 -2.761100000000000013e-02 3.697000000000000286e-02 3.432600000000000234e-02 5.419800000000000312e-02 1.032389999999999974e-01 9.192300000000000471e-02 -3.350999999999999812e-02 -1.424090000000000078e-01 -6.859999999999999779e-04 -3.921000000000000180e-02 -1.529979999999999951e-01 -8.058200000000000085e-02 -1.378700000000000064e-02 -5.162100000000000022e-02 -2.161400000000000127e-02 3.936300000000000215e-02 4.067300000000000082e-02 3.211499999999999772e-02 -1.617400000000000088e-02 -1.405790000000000095e-01 -7.816999999999999296e-03 -2.829999999999999942e-04 3.010099999999999928e-02 5.436499999999999666e-02 1.906499999999999861e-02 -4.102999999999999876e-03 1.074600000000000034e-02 -7.515299999999999758e-02 1.667760000000000076e-01 1.922000000000000097e-03 -3.093200000000000116e-02 -1.019189999999999957e-01 -4.166000000000000258e-02 -1.429310000000000025e-01 2.188680000000000070e-01 2.823860000000000259e-01 -6.987100000000000255e-02 1.975709999999999966e-01 2.586589999999999723e-01 9.543100000000000194e-02 3.174520000000000119e-01 1.029319999999999957e-01 -1.912999999999999987e-03 -3.263989999999999947e-01 -2.109149999999999914e-01 -7.772099999999999842e-02 2.398160000000000014e-01 -8.212099999999999955e-02 -2.937210000000000099e-01 1.117210000000000009e-01 1.485690000000000066e-01 2.428639999999999965e-01 1.882929999999999882e-01 -8.731800000000000672e-02 -6.048599999999999810e-02 2.230399999999999883e-01 -1.843730000000000091e-01 -2.980500000000000163e-02 -2.797410000000000174e-01 9.726999999999999535e-03 -6.688999999999999634e-03 1.379960000000000075e-01 -3.780800000000000133e-02 1.048629999999999979e-01 3.266709999999999892e-01 1.856549999999999867e-01 1.256440000000000057e-01 -1.641920000000000046e-01 -8.413800000000000445e-02 -1.101680000000000020e-01 -4.735199999999999826e-02 1.585239999999999982e-01 -6.150100000000000011e-02 4.775960000000000205e-01 -8.997299999999999742e-02 1.053199999999999970e-02 1.492209999999999925e-01 9.940100000000000324e-02 3.111900000000000083e-02 1.168130000000000002e-01 5.779100000000000209e-02 1.108589999999999992e-01 -2.138210000000000111e-01 5.603299999999999947e-02 1.773720000000000019e-01 1.642550000000000121e-01
-1.575999999999999927e-03 7.750300000000000245e-02 1.497700000000000073e-02 -4.870000000000000023e-02 6.897799999999999765e-02 7.119100000000000428e-02 -6.708500000000000574e-02 -8.496000000000000080e-03 -1.555479999999999918e-01 9.424000000000000085e-03 -6.630300000000000082e-02 -3.846600000000000019e-02 1.958090000000000108e-01 5.010900000000000076e-02 8.407100000000000684e-02 -3.110870000000000024e-01 2.615000000000000137e-03 -2.972290000000000210e-01 -4.692400000000000043e-02 -2.107600000000000098e-02 -1.027809999999999974e-01 -2.045200000000000073e-01 -5.311899999999999955e-02 -3.598310000000000120e-01 1.269969999999999988e-01 -7.040100000000000524e-02 -3.547899999999999665e-02 -1.040039999999999992e-01 -8.116600000000000203e-02 -4.186980000000000146e-01 -1.391860000000000042e-01 9.531900000000000095e-02 5.550599999999999978e-02 -4.370199999999999779e-02 -9.737700000000000522e-02 9.955300000000000260e-02 -1.064940000000000053e-01 7.900400000000000478e-02 -5.098199999999999954e-02 -9.663299999999999668e-02 -4.374200000000000310e-02 -3.518689999999999873e-01 1.595500000000000043e-02 -1.846899999999999931e-02 -5.711700000000000110e-02 -6.988600000000000367e-02 -2.853999999999999940e-02 -8.307299999999999407e-02 -2.931599999999999831e-02 -4.313999999999999779e-02 1.044729999999999964e-01 4.324599999999999972e-02 -2.331199999999999939e-02 -2.098600000000000118e-02 3.098199999999999912e-02 2.752700000000000147e-01 -3.406959999999999988e-01 -3.814800000000000135e-02 -7.837800000000000322e-02 -1.341199999999999892e-01 -1.201949999999999963e-01 7.616999999999999639e-03 -8.534100000000000019e-02 -1.270499999999999928e-02 1.760130000000000028e-01 -3.094799999999999982e-02 -5.056000000000000077e-02 -4.868399999999999811e-02 -4.590199999999999836e-02 1.398139999999999938e-01 -6.262600000000000111e-02 2.635950000000000237e-01 6.854999999999999982e-02 -3.910000000000000281e-03 1.212799999999999989e-02 7.353800000000000614e-02 -3.046000000000000096e-02 4.295299999999999813e-02 4.056099999999999983e-02 6.597100000000000186e-02 1.234409999999999952e-01 1.089129999999999959e-01 -4.065099999999999963e-02 -1.682500000000000107e-01 -1.459000000000000010e-03 -4.544900000000000329e-02 -1.812519999999999964e-01 -9.591299999999999826e-02 -1.701799999999999841e-02 -6.196900000000000325e-02 -2.367800000000000113e-02 4.619499999999999995e-02 4.783799999999999858e-02 3.834100000000000008e-02 -1.823999999999999927e-02 -1.672009999999999885e-01 -9.589999999999999566e-03 -1.140000000000000063e-04 3.515999999999999681e-02 6.393200000000000272e-02 2.295099999999999918e-02 -5.174999999999999913e-03 1.415699999999999945e-02 -8.951299999999999535e-02 1.977190000000000059e-01 2.638000000000000154e-03 -3.624999999999999750e-02 -1.205770000000000036e-01 -4.965699999999999975e-02 -1.685589999999999866e-01 2.572110000000000229e-01 3.319469999999999921e-01 -8.097899999999999543e-02 2.298810000000000020e-01 3.085229999999999917e-01 1.149939999999999990e-01 3.759310000000000151e-01 1.201229999999999937e-01 -1.399000000000000070e-03 -3.877109999999999723e-01 -2.472429999999999906e-01 -9.012299999999999478e-02 2.796259999999999857e-01 -9.692800000000000027e-02 -3.482069999999999887e-01 1.312240000000000073e-01 1.789969999999999895e-01 2.896929999999999783e-01 2.242939999999999934e-01 -1.026559999999999973e-01 -7.069000000000000283e-02 2.621600000000000041e-01 -2.185320000000000040e-01 -3.407400000000000012e-02 -3.312200000000000144e-01 1.140500000000000021e-02 -9.232999999999999888e-03 1.618920000000000081e-01 -4.447999999999999871e-02 1.235789999999999944e-01 3.848929999999999851e-01 2.190950000000000120e-01 1.481159999999999977e-01 -1.929240000000000121e-01 -9.988600000000000256e-02 -1.306889999999999996e-01 -5.616000000000000159e-02 1.902280000000000082e-01 -7.236399999999999777e-02 5.645449999999999635e-01 -1.062079999999999969e-01 1.176899999999999995e-02 1.749660000000000104e-01 1.180540000000000062e-01 3.661400000000000071e-02 1.376930000000000098e-01 6.827600000000000335e-02 1.299810000000000132e-01 -2.525370000000000115e-01 6.760399999999999743e-02 2.105460000000000109e-01 1.942139999999999977e-01