-3.347108941600000094e+02
-3.347099216199999887e+02
-3.347038566800000012e+02
-3.346925411500000109e+02
-3.346762623800000256e+02
-3.346559527100000082e+02
-3.346318701399999895e+02
-3.346045792400000209e+02
-3.345748906200000192e+02
-3.345433052199999793e+02
-3.222187291100000266e+02
-3.222206116699999825e+02
-3.222311058299999900e+02
-3.222505379699999821e+02
-3.222789258399999994e+02
-3.223162549799999965e+02
-3.223623282899999936e+02
-3.224167120800000248e+02
-3.224793825200000015e+02
-3.225497295499999950e+02
-3.188392170000000192e+02
-3.188986345199999732e+02
-3.190089850900000101e+02
-3.191688563700000145e+02
-3.193761539199999788e+02
-3.196268729299999904e+02
-3.199156549400000245e+02
-3.202346569100000124e+02
-3.205746339799999873e+02
-3.209256348299999786e+02
-3.292807027399999811e+02
-3.292888879299999871e+02
-3.293047773700000107e+02
-3.293286412900000073e+02
-3.293601726200000144e+02
-3.293992934899999909e+02
-3.294455931300000202e+02
-3.294987967100000219e+02
-3.295582210399999781e+02
-3.296232879899999944e+02
-3.228372379400000227e+02
-3.228560203800000181e+02
-3.229204218799999921e+02
-3.230261805000000095e+02
-3.231694721900000218e+02
-3.233442689199999904e+02
-3.235426190100000099e+02
-3.237562714900000174e+02
-3.239762572000000205e+02
-3.241940745599999900e+02
-3.293532602500000053e+02
-3.293912004499999853e+02
-3.294512231100000008e+02
-3.295310759399999938e+02
-3.296272402700000157e+02
-3.297370105900000112e+02
-3.298560623899999769e+02
-3.299800321999999824e+02
-3.301045728299999951e+02
-3.302257307200000014e+02
-3.297556246299999998e+02
-3.297902422799999727e+02
-3.298369931500000121e+02
-3.298948080299999788e+02
-3.299622705200000041e+02
-3.300378148899999928e+02
-3.301199025600000141e+02
-3.302065508700000009e+02
-3.302959325400000239e+02
-3.303866112200000202e+02
-3.253354946700000028e+02
-3.254217975799999749e+02
-3.255912760200000093e+02
-3.258382533199999784e+02
-3.261537884800000029e+02
-3.265248555900000156e+02
-3.269354614700000070e+02
-3.273674272499999915e+02
-3.278023830600000110e+02
-3.282241543000000092e+02
-3.156490274199999817e+02
-3.158958383899999944e+02
-3.163231942099999969e+02
-3.169036848200000236e+02
-3.175972726699999953e+02
-3.183536714800000027e+02
-3.191202847999999790e+02
-3.198503772199999844e+02
-3.205127392599999894e+02
-3.210945227799999770e+02
-3.285381757600000014e+02
-3.285541004400000134e+02
-3.285876574100000198e+02
-3.286376913700000273e+02
-3.287024020000000064e+02
-3.287794883299999924e+02
-3.288668976499999985e+02
-3.289620028699999921e+02
-3.290621223599999894e+02
-3.291651347999999757e+02
-3.229284014699999830e+02
-3.229369599500000163e+02
-3.229473102599999947e+02
-3.229591139500000168e+02
-3.229725216799999998e+02
-3.229873836699999856e+02
-3.230041500300000052e+02
-3.230223170799999934e+02
-3.230423256000000265e+02
-3.230643686799999728e+02
-3.246071137900000281e+02
-3.246622638499999880e+02
-3.247951328699999749e+02
-3.250011206199999947e+02
-3.252725965000000201e+02
-3.255988361899999859e+02
-3.259655217499999935e+02
-3.263562910300000226e+02
-3.267544163499999854e+02
-3.271445175100000142e+02
-3.189828773400000159e+02
-3.191154299799999876e+02
-3.193706164299999841e+02
-3.197355997399999978e+02
-3.201908696300000088e+02
-3.207108873999999901e+02
-3.212655374899999856e+02
-3.218249330200000031e+02
-3.223631941099999949e+02
-3.228623377399999868e+02
-3.270255920899999751e+02
-3.270453974299999800e+02
-3.270789025700000252e+02
-3.271257524800000169e+02
-3.271855069900000217e+02
-3.272574003500000117e+02
-3.273403427800000145e+02
-3.274333632999999963e+02
-3.275348322699999812e+02
-3.276437404999999785e+02
-3.229163583800000197e+02
-3.229591937899999721e+02
-3.230273804199999859e+02
-3.231197099400000070e+02
-3.232342981400000212e+02
-3.233689126500000270e+02
-3.235207506200000012e+02
-3.236863921500000174e+02
-3.238618609999999762e+02
-3.240431141999999909e+02
-3.295382720299999733e+02
-3.295599336199999811e+02
-3.295887446699999828e+02
-3.296243394699999953e+02
-3.296662503800000081e+02
-3.297143460699999764e+02
-3.297675506100000007e+02
-3.298254212200000097e+02
-3.298869606200000248e+02
-3.299513430999999741e+02
-3.280047917200000143e+02
-3.280045753699999977e+02
-3.280068067299999939e+02
-3.280115194399999723e+02
-3.280185159700000099e+02
-3.280280321899999763e+02
-3.280396717200000012e+02
-3.280533614500000112e+02
-3.280687584199999947e+02
-3.280859479499999907e+02
-3.299161896200000115e+02
-3.299116790300000162e+02
-3.299195204700000090e+02
-3.299395205800000213e+02
-3.299712185999999861e+02
-3.300138047899999947e+02
-3.300663691600000220e+02
-3.301274782799999912e+02
-3.301958806800000161e+02
-3.302701179000000025e+02
-3.297314582000000200e+02
-3.297445674200000099e+02
-3.297644804399999998e+02
-3.297909267499999828e+02
-3.298239671599999951e+02
-3.298634387600000082e+02
-3.299086255899999856e+02
-3.299594127699999717e+02
-3.300149447399999758e+02
-3.300748854799999776e+02
-3.268339703500000155e+02
-3.268665603499999861e+02
-3.269276982499999917e+02
-3.270165064199999847e+02
-3.271318776599999865e+02
-3.272719086299999844e+02
-3.274343027099999972e+02
-3.276157280200000059e+02
-3.278120712699999899e+02
-3.280187417000000210e+02
-3.298999130000000264e+02
-3.299217450599999779e+02
-3.299767775600000164e+02
-3.300638394499999890e+02
-3.301811320799999976e+02
-3.303256958100000134e+02
-3.304930848399999945e+02
-3.306792591299999913e+02
-3.308786099899999726e+02
-3.310850619400000028e+02
-3.132604413000000250e+02
-3.134531221199999891e+02
-3.138307735899999784e+02
-3.143764369900000020e+02
-3.150623423200000275e+02
-3.158482530900000143e+02
-3.166840892700000154e+02
-3.175194902599999978e+02
-3.183118733700000007e+02
-3.190331508699999858e+02
-3.296366167400000222e+02
-3.296626629799999932e+02
-3.296996909200000232e+02
-3.297470039599999723e+02
-3.298034233100000279e+02
-3.298676237500000070e+02
-3.299377325300000052e+02
-3.300125389799999880e+02
-3.300904831700000273e+02
-3.301692425100000037e+02
-3.278448197600000071e+02
-3.278580677599999831e+02
-3.278792739900000015e+02
-3.279084925799999723e+02
-3.279453645899999970e+02
-3.279896088799999916e+02
-3.280409259499999735e+02
-3.280988221100000146e+02
-3.281629290600000104e+02
-3.282328651000000264e+02
-3.291135161099999777e+02
-3.291157572999999843e+02
-3.291337088500000050e+02
-3.291670720399999936e+02
-3.292148964300000102e+02
-3.292765283900000099e+02
-3.293504799099999900e+02
-3.294349010000000249e+02
-3.295280761600000119e+02
-3.296281262300000208e+02
-3.149675361600000087e+02
-3.152242405299999746e+02
-3.156839946800000121e+02
-3.163177887900000087e+02
-3.170813598500000126e+02
-3.179178842900000177e+02
-3.187665224300000091e+02
-3.195742085599999882e+02
-3.203055071699999985e+02
-3.209450116200000025e+02
-3.276363914199999954e+02
-3.276442830099999810e+02
-3.276553620299999920e+02
-3.276697761799999853e+02
-3.276872898699999723e+02
-3.277080255399999942e+02
-3.277317896600000040e+02
-3.277586425499999905e+02
-3.277883888299999740e+02
-3.278208754600000248e+02
-3.253022325399999772e+02
-3.253458202499999743e+02
-3.254153949099999750e+02
-3.255081967899999995e+02
-3.256206839299999842e+02
-3.257488994299999945e+02
-3.258890552199999888e+02
-3.260367718100000047e+02
-3.261878849600000194e+02
-3.263390185499999916e+02
-3.283644075500000099e+02
-3.283751470500000096e+02
-3.284191080400000260e+02
-3.284947471300000075e+02
-3.285997105100000226e+02
-3.287312629799999968e+02
-3.288857349200000044e+02
-3.290586358699999892e+02
-3.292446380299999760e+02
-3.294386860000000183e+02
-3.301336624300000153e+02
-3.301294012100000259e+02
-3.301268331300000227e+02
-3.301268173799999772e+02
-3.301292194800000175e+02
-3.301339180499999770e+02
-3.301407058400000096e+02
-3.301496842399999991e+02
-3.301608715200000006e+02
-3.301740354199999956e+02
-3.233577668500000186e+02
-3.233841898100000094e+02
-3.234470301100000142e+02
-3.235440368199999739e+02
-3.236714380399999982e+02
-3.238242989799999805e+02
-3.239966151599999762e+02
-3.241814209099999857e+02
-3.243717254599999933e+02
-3.245607379300000161e+02
-3.327042031899999870e+02
-3.327067235499999924e+02
-3.327125543700000208e+02
-3.327219674599999735e+02
-3.327349987000000056e+02
-3.327517067699999984e+02
-3.327724589300000275e+02
-3.327975247300000206e+02
-3.328268133000000262e+02
-3.328604168300000197e+02
-3.276610793500000227e+02
-3.276765336700000262e+02
-3.276990390000000275e+02
-3.277277748100000281e+02
-3.277619152699999745e+02
-3.278004434599999968e+02
-3.278422934199999759e+02
-3.278861668800000189e+02
-3.279313220899999806e+02
-3.279766652399999884e+02
-3.249156543199999874e+02
-3.250062744300000190e+02
-3.251620280700000194e+02
-3.253743962400000100e+02
-3.256312114699999825e+02
-3.259179278400000044e+02
-3.262185122999999862e+02
-3.265171460700000239e+02
-3.268005785899999864e+02
-3.270594660699999849e+02
-3.246774074400000245e+02
-3.247441743499999802e+02
-3.248968099599999846e+02
-3.251309566699999891e+02
-3.254386638500000117e+02
-3.258082560600000193e+02
-3.262241417700000170e+02
-3.266679019200000198e+02
-3.271204147799999760e+02
-3.275638770400000226e+02
-3.265592375400000265e+02
-3.266166257099999939e+02
-3.267013623799999777e+02
-3.268112015199999973e+02
-3.269430722700000160e+02
-3.270935983400000282e+02
-3.272584619200000020e+02
-3.274312398199999734e+02
-3.276071483100000137e+02
-3.277823644100000138e+02
-3.131699395699999968e+02
-3.132495265700000004e+02
-3.134306675400000017e+02
-3.137074672400000281e+02
-3.140695778900000050e+02
-3.145013446699999804e+02
-3.149821742199999903e+02
-3.154891611599999806e+02
-3.159985201399999823e+02
-3.164900606599999833e+02
-3.306617916100000230e+02
-3.306695278500000086e+02
-3.306881339299999922e+02
-3.307171287799999959e+02
-3.307559141300000078e+02
-3.308033067000000074e+02
-3.308579735800000208e+02
-3.309184440199999813e+02
-3.309829750100000183e+02
-3.310499535700000138e+02
-3.214982361099999935e+02
-3.215557144100000073e+02
-3.216742980500000044e+02
-3.218507464300000152e+02
-3.220791429700000208e+02
-3.223515255400000115e+02
-3.226575179999999818e+02
-3.229856000199999926e+02
-3.233234575299999847e+02
-3.236591083399999889e+02
-3.254665336300000149e+02
-3.255424526400000218e+02
-3.256772803000000067e+02
-3.258671992800000226e+02
-3.261061197899999797e+02
-3.263854322299999922e+02
-3.266953010199999881e+02
-3.270234957900000268e+02
-3.273579193400000236e+02
-3.276875232699999856e+02
-3.301165715600000112e+02
-3.301222779600000194e+02
-3.301309541499999796e+02
-3.301427133099999764e+02
-3.301577626399999872e+02
-3.301762191099999768e+02
-3.301983803699999953e+02
-3.302245153299999743e+02
-3.302549376800000118e+02
-3.302900864999999726e+02
-2.953546193099999755e+02
-2.957152096400000119e+02
-2.963806896400000142e+02
-2.973155188499999895e+02
-2.984575730299999918e+02
-2.997185590899999852e+02
-3.009990070000000060e+02
-3.022113323799999876e+02
-3.032992545199999768e+02
-3.042419694600000071e+02
-3.298212771799999814e+02
-3.298311161099999822e+02
-3.298481933400000230e+02
-3.298722293800000216e+02
-3.299027138600000058e+02
-3.299391953200000103e+02
-3.299810545600000182e+02
-3.300280778399999804e+02
-3.300796178300000179e+02
-3.301350220300000160e+02
-3.298749972900000103e+02
-3.298790701199999944e+02
-3.298824669100000051e+02
-3.298849855299999945e+02
-3.298866340700000137e+02
-3.298874963100000173e+02
-3.298874364800000194e+02
-3.298866395000000011e+02
-3.298850962899999786e+02
-3.298829634400000259e+02
-3.273480382800000257e+02
-3.273640086300000007e+02
-3.273900957299999845e+02
-3.274260558899999864e+02
-3.274717777100000262e+02
-3.275267213600000105e+02
-3.275900024300000268e+02
-3.276610853000000247e+02
-3.277389135500000066e+02
-3.278225041700000020e+02
-3.206126875699999914e+02
-3.206965988100000118e+02
-3.208827784999999722e+02
-3.211631315899999777e+02
-3.215243528199999901e+02
-3.219480894700000135e+02
-3.224117308799999932e+02
-3.228910496600000215e+02
-3.233632347500000037e+02
-3.238101615400000242e+02
-3.195454864199999747e+02
-3.196903507299999774e+02
-3.199368606300000124e+02
-3.202760195800000247e+02
-3.206938533599999914e+02
-3.211713383000000022e+02
-3.216857053400000268e+02
-3.222125480700000253e+02
-3.227272801199999890e+02
-3.232127522600000020e+02
-3.229806627799999887e+02
-3.231353626999999733e+02
-3.233488598999999795e+02
-3.236113189800000214e+02
-3.239099704000000202e+02
-3.242305687200000079e+02
-3.245583550299999729e+02
-3.248796228799999994e+02
-3.251838091299999860e+02
-3.254647482199999899e+02
-3.294099326400000223e+02
-3.294109429599999999e+02
-3.294120534099999986e+02
-3.294135527099999763e+02
-3.294155129999999758e+02
-3.294182567899999867e+02
-3.294216350099999886e+02
-3.294257754500000033e+02
-3.294305815999999822e+02
-3.294359950799999979e+02
-3.275599934400000279e+02
-3.275584703900000250e+02
-3.275806187300000261e+02
-3.276261011400000029e+02
-3.276937613200000214e+02
-3.277823304899999926e+02
-3.278895438499999955e+02
-3.280124250900000220e+02
-3.281477701700000011e+02
-3.282916234300000156e+02
-3.296837101699999835e+02
-3.296982689499999992e+02
-3.297182712100000117e+02
-3.297431318600000054e+02
-3.297727579500000274e+02
-3.298067268300000023e+02
-3.298442151699999840e+02
-3.298850227799999857e+02
-3.299283170900000073e+02
-3.299737508599999956e+02
-3.307162955000000011e+02
-3.307210695100000066e+02
-3.307326097600000026e+02
-3.307505142800000044e+02
-3.307741447899999798e+02
-3.308026139799999896e+02
-3.308348899200000233e+02
-3.308701030299999957e+02
-3.309070713300000079e+02
-3.309450876399999970e+02
-3.301705496499999981e+02
-3.301732036099999732e+02
-3.301882287899999824e+02
-3.302153880800000252e+02
-3.302543989800000190e+02
-3.303045512499999745e+02
-3.303656624299999862e+02
-3.304369704599999977e+02
-3.305175019299999803e+02
-3.306066070800000034e+02
-3.300901433299999894e+02
-3.301133073500000137e+02
-3.301462453600000231e+02
-3.301883285200000273e+02
-3.302393770400000221e+02
-3.302981117900000072e+02
-3.303640721200000030e+02
-3.304362027299999909e+02
-3.305135025999999812e+02
-3.305945025299999998e+02
-3.219250099700000192e+02
-3.219670473400000219e+02
-3.220480028999999718e+02
-3.221668424900000218e+02
-3.223221027600000070e+02
-3.225113893700000176e+02
-3.227309628900000007e+02
-3.229759625699999788e+02
-3.232403642200000036e+02
-3.235170361400000161e+02
-3.275938402099999962e+02
-3.276153258100000016e+02
-3.276510118699999907e+02
-3.277005550599999992e+02
-3.277633118300000206e+02
-3.278384958500000153e+02
-3.279250721399999975e+02
-3.280218361600000208e+02
-3.281271596600000180e+02
-3.282393722099999991e+02
-3.155733224100000029e+02
-3.157544385300000158e+02
-3.160765599200000224e+02
-3.165263677899999948e+02
-3.170825113800000281e+02
-3.177155741999999918e+02
-3.183901594000000159e+02
-3.190692281699999739e+02
-3.197209322599999837e+02
-3.203233828799999969e+02
-3.297269797499999981e+02
-3.297565694900000040e+02
-3.297940550800000210e+02
-3.298388538199999971e+02
-3.298901746199999820e+02
-3.299473029999999767e+02
-3.300092907999999738e+02
-3.300751576299999783e+02
-3.301440774800000213e+02
-3.302148182000000247e+02
-3.313897244699999760e+02
-3.314158952000000227e+02
-3.314540868899999850e+02
-3.315040622500000040e+02
-3.315649371200000246e+02
-3.316358836300000235e+02
-3.317158724399999983e+02
-3.318038782500000252e+02
-3.318983150899999828e+02
-3.319976641299999756e+02
-3.179306149099999743e+02
-3.181458179900000118e+02
-3.185188190900000222e+02
-3.190291083500000013e+02
-3.196452471499999888e+02
-3.203266057700000147e+02
-3.210284004000000095e+02
-3.217084709100000168e+02
-3.223363247500000170e+02
-3.228946589899999822e+02
-3.318959657199999924e+02
-3.319104971799999930e+02
-3.319308030199999848e+02
-3.319562049699999875e+02
-3.319858995100000243e+02
-3.320193169600000260e+02
-3.320556300299999748e+02
-3.320939298399999871e+02
-3.321334858100000247e+02
-3.321734455499999967e+02
-3.266334421799999745e+02
-3.266713618100000076e+02
-3.267586666500000092e+02
-3.268921828399999754e+02
-3.270663558100000046e+02
-3.272742110500000194e+02
-3.275073967800000219e+02
-3.277564761699999849e+02
-3.280116549900000109e+02
-3.282644557799999916e+02
-3.282436332500000162e+02
-3.282790213000000108e+02
-3.283570344999999975e+02
-3.284752092100000027e+02
-3.286299046799999815e+02
-3.288160402799999815e+02
-3.290267902300000173e+02
-3.292548624899999936e+02
-3.294926245099999846e+02
-3.297322318000000223e+02
-3.201322782500000130e+02
-3.201639218299999925e+02
-3.202405553599999735e+02
-3.203615084099999990e+02
-3.205256507199999874e+02
-3.207303581099999974e+02
-3.209720512299999768e+02
-3.212453803099999732e+02
-3.215435032699999738e+02
-3.218582753499999853e+02
-3.272687037800000098e+02
-3.272992036499999813e+02
-3.273518255299999851e+02
-3.274252214599999888e+02
-3.275176663999999960e+02
-3.276266873700000133e+02
-3.277495454900000027e+02
-3.278832853000000114e+02
-3.280245708799999989e+02
-3.281700108800000066e+02
-3.228790845300000001e+02
-3.229243054500000198e+02
-3.230713922900000057e+02
-3.233166096699999912e+02
-3.236525562799999989e+02
-3.240671261699999945e+02
-3.245430442900000116e+02
-3.250589463800000090e+02
-3.255909063500000116e+02
-3.261158037600000057e+02
-3.245051789699999745e+02
-3.245173912999999857e+02
-3.245348180199999888e+02
-3.245575151900000037e+02
-3.245849489099999801e+02
-3.246168840400000022e+02
-3.246526997299999948e+02
-3.246920354800000155e+02
-3.247342684700000177e+02
-3.247788826500000141e+02
-3.257025752600000033e+02
-3.257213867500000219e+02
-3.257607648100000119e+02
-3.258199861400000259e+02
-3.258983652100000086e+02
-3.259948126599999796e+02
-3.261080741200000261e+02
-3.262366376100000025e+02
-3.263777722099999892e+02
-3.265295334799999978e+02
-3.282044341399999894e+02
-3.282006159599999933e+02
-3.282051930999999740e+02
-3.282181086300000175e+02
-3.282392897600000197e+02
-3.282680709800000045e+02
-3.283039443100000199e+02
-3.283463209000000234e+02
-3.283939970900000276e+02
-3.284465629000000035e+02
-3.298952801600000271e+02
-3.299199549800000000e+02
-3.299538000100000090e+02
-3.299961775300000113e+02
-3.300466927400000259e+02
-3.301049281699999938e+02
-3.301699944999999730e+02
-3.302410150700000031e+02
-3.303168353699999784e+02
-3.303964622600000212e+02
-3.292745821500000147e+02
-3.292777535999999827e+02
-3.293019316400000207e+02
-3.293463169899999912e+02
-3.294094476500000042e+02
-3.294889857599999914e+02
-3.295821126899999740e+02
-3.296853879099999745e+02
-3.297950855799999772e+02
-3.299073920199999748e+02
-3.236000248700000270e+02
-3.236026786400000219e+02
-3.236315790099999958e+02
-3.236863364700000147e+02
-3.237662526299999968e+02
-3.238705489199999761e+02
-3.239976192199999900e+02
-3.241458354499999928e+02
-3.243120954099999835e+02
-3.244935965299999907e+02
-3.283131792799999857e+02
-3.283203445099999840e+02
-3.283474047899999846e+02
-3.283941745199999787e+02
-3.284599304700000175e+02
-3.285440089499999772e+02
-3.286454587700000047e+02
-3.287627504499999986e+02
-3.288941145699999993e+02
-3.290375061099999812e+02
-3.310927517700000067e+02
-3.310881026299999803e+02
-3.310905741899999839e+02
-3.311001313799999934e+02
-3.311166308699999945e+02
-3.311399861099999953e+02
-3.311700136900000189e+02
-3.312063233200000241e+02
-3.312485908200000040e+02
-3.312963470899999834e+02
-3.180519794200000092e+02
-3.182511051700000166e+02
-3.186016434499999832e+02
-3.190882312599999864e+02
-3.196861505900000111e+02
-3.203611470299999837e+02
-3.210720609800000034e+02
-3.217779066400000261e+02
-3.224452259099999765e+02
-3.230520794000000251e+02
-3.260896903899999870e+02
-3.261169407500000261e+02
-3.261694606899999940e+02
-3.262468330799999876e+02
-3.263478829200000177e+02
-3.264715430900000115e+02
-3.266158143399999858e+02
-3.267781825800000206e+02
-3.269550808600000096e+02
-3.271430446300000199e+02
-3.276859381300000109e+02
-3.277038963399999716e+02
-3.277363098199999740e+02
-3.277831285699999739e+02
-3.278435963900000161e+02
-3.279172573199999761e+02
-3.280029935100000102e+02
-3.281000060100000155e+02
-3.282068216499999949e+02
-3.283221043199999940e+02
-3.264472496299999875e+02
-3.265018157999999744e+02
-3.265964693899999816e+02
-3.267281668200000126e+02
-3.268928594899999780e+02
-3.270855204599999979e+02
-3.273000350300000036e+02
-3.275297942700000249e+02
-3.277681375399999979e+02
-3.280087201700000037e+02
-3.267867901399999937e+02
-3.267987454999999954e+02
-3.268236843899999826e+02
-3.268612561099999994e+02
-3.269112127199999804e+02
-3.269732787400000120e+02
-3.270466919799999914e+02
-3.271306273800000213e+02
-3.272239226600000279e+02
-3.273254609100000039e+02
-3.288064261000000101e+02
-3.288211285500000258e+02
-3.288631961300000057e+02
-3.289322875199999885e+02
-3.290274579399999766e+02
-3.291473879999999781e+02
-3.292898228700000232e+02
-3.294520835000000147e+02
-3.296307337800000141e+02
-3.298216356099999871e+02
-3.247645935900000040e+02
-3.249202640299999985e+02
-3.251583470499999748e+02
-3.254707043000000226e+02
-3.258450861499999860e+02
-3.262657077999999728e+02
-3.267132406299999730e+02
-3.271680708600000003e+02
-3.276131929499999842e+02
-3.280346059299999979e+02
-3.295020762899999909e+02
-3.295406877699999768e+02
-3.295947419199999899e+02
-3.296638638599999922e+02
-3.297468688800000223e+02
-3.298419336599999951e+02
-3.299470735799999943e+02
-3.300601774500000261e+02
-3.301789544100000171e+02
-3.303008744200000137e+02
-3.276439656100000093e+02
-3.276443164899999942e+02
-3.276516760999999747e+02
-3.276661259699999960e+02
-3.276870066399999928e+02
-3.277147794100000056e+02
-3.277495822000000203e+02
-3.277912470699999972e+02
-3.278386843700000099e+02
-3.278920727799999781e+02
-3.165118126599999755e+02
-3.166608758200000011e+02
-3.169547786200000132e+02
-3.173820156400000201e+02
-3.179229445400000031e+02
-3.185486660199999847e+02
-3.192238455199999976e+02
-3.199105672499999855e+02
-3.205746681599999874e+02
-3.211908363200000167e+02
-3.295001249499999858e+02
-3.295485672099999874e+02
-3.296313599499999896e+02
-3.297466275200000041e+02
-3.298916277399999899e+02
-3.300629589100000203e+02
-3.302559246700000131e+02
-3.304651292799999851e+02
-3.306847953299999858e+02
-3.309085544999999797e+02
-3.290316963999999871e+02
-3.290562345399999913e+02
-3.290912712800000008e+02
-3.291363490599999864e+02
-3.291913914500000260e+02
-3.292555252299999893e+02
-3.293282295299999873e+02
-3.294086073700000270e+02
-3.294959446799999796e+02
-3.295892449699999815e+02
-3.296558817499999918e+02
-3.296727636599999869e+02
-3.297085654499999805e+02
-3.297630616800000212e+02
-3.298353740300000254e+02
-3.299249005300000022e+02
-3.300301334499999939e+02
-3.301496548800000141e+02
-3.302813250300000050e+02
-3.304228404799999907e+02
-3.063064531200000147e+02
-3.066943157800000108e+02
-3.073368300000000204e+02
-3.081997181099999921e+02
-3.092268263199999865e+02
-3.103420147799999995e+02
-3.114627322800000115e+02
-3.125190019799999845e+02
-3.134663928599999849e+02
-3.142893262399999799e+02
-3.248061961500000052e+02
-3.248307748899999865e+02
-3.248722516899999846e+02
-3.249292094300000144e+02
-3.249999219300000277e+02
-3.250824419900000066e+02
-3.251746791599999824e+02
-3.252741139600000224e+02
-3.253781668899999886e+02
-3.254846286900000223e+02
-3.323140405299999998e+02
-3.323159589300000221e+02
-3.323184427699999901e+02
-3.323216764800000078e+02
-3.323258414399999765e+02
-3.323310145799999873e+02
-3.323374892900000077e+02
-3.323454756900000007e+02
-3.323551450900000077e+02
-3.323668135600000255e+02
-3.264797640099999967e+02
-3.265055312800000138e+02
-3.265381972800000199e+02
-3.265775249899999721e+02
-3.266231392400000004e+02
-3.266748236099999758e+02
-3.267320942900000205e+02
-3.267946856300000036e+02
-3.268624031900000091e+02
-3.269346665599999824e+02
-3.229357584100000054e+02
-3.229753087899999855e+02
-3.230493710499999906e+02
-3.231571286700000201e+02
-3.232972308399999974e+02
-3.234674805700000206e+02
-3.236646420000000148e+02
-3.238846792400000254e+02
-3.241222570499999733e+02
-3.243718368199999986e+02
-3.281703191700000275e+02
-3.281970461600000135e+02
-3.282381513099999779e+02
-3.282928475900000080e+02
-3.283600383099999931e+02
-3.284385652700000264e+02
-3.285266768500000012e+02
-3.286225945400000228e+02
-3.287240476399999807e+02
-3.288297221799999761e+02
-3.264984876799999824e+02
-3.264965646200000151e+02
-3.265218169400000079e+02
-3.265740563100000031e+02
-3.266528385400000047e+02
-3.267569968500000073e+02
-3.268851317599999788e+02
-3.270354791099999829e+02
-3.272053366000000096e+02
-3.273914821199999778e+02
-3.316770597799999791e+02
-3.316894121299999938e+02
-3.317063529700000117e+02
-3.317274454000000219e+02
-3.317521053599999732e+02
-3.317796033000000193e+02
-3.318091679400000089e+02
-3.318402664000000186e+02
-3.318720448899999838e+02
-3.319037055000000009e+02
-3.304794509199999766e+02
-3.304917135700000017e+02
-3.305147352600000090e+02
-3.305480831799999919e+02
-3.305908220200000187e+02
-3.306414243400000146e+02
-3.306987903300000085e+02
-3.307609676899999727e+02
-3.308263787999999863e+02
-3.308928697100000136e+02
-3.027067883600000187e+02
-3.029359016999999881e+02
-3.033919086099999731e+02
-3.040551898699999924e+02
-3.048904120799999760e+02
-3.058444279700000266e+02
-3.068511416200000212e+02
-3.078441470099999719e+02
-3.087709225799999899e+02
-3.096003479999999968e+02
-3.170171946199999979e+02
-3.170911685699999794e+02
-3.172646689900000183e+02
-3.175325867199999834e+02
-3.178851346399999898e+02
-3.183090555599999902e+02
-3.187855265300000269e+02
-3.192920732399999793e+02
-3.198057390800000235e+02
-3.203054523600000039e+02
-3.217644394100000227e+02
-3.218239717100000234e+02
-3.219593045500000130e+02
-3.221657623799999897e+02
-3.224353179299999965e+02
-3.227571233499999721e+02
-3.231166614599999889e+02
-3.234983774799999878e+02
-3.238860497300000247e+02
-3.242646428900000046e+02
-3.314390838300000155e+02
-3.314519838499999764e+02
-3.314672960999999987e+02
-3.314850191200000040e+02
-3.315049398200000041e+02
-3.315268446599999947e+02
-3.315503622699999937e+02
-3.315753387199999906e+02
-3.316015243599999849e+02
-3.316284896399999980e+02
-3.294090228399999774e+02
-3.294293495499999835e+02
-3.294608421600000270e+02
-3.295031621699999960e+02
-3.295560171700000183e+02
-3.296185915699999782e+02
-3.296901515800000197e+02
-3.297698056500000234e+02
-3.298564892200000145e+02
-3.299489254100000153e+02
-3.265847839699999895e+02
-3.265916898400000150e+02
-3.266204258600000117e+02
-3.266708141099999807e+02
-3.267422312400000237e+02
-3.268335999799999740e+02
-3.269433892900000274e+02
-3.270695232400000236e+02
-3.272096776299999874e+02
-3.273608482399999957e+02
-3.151147730999999794e+02
-3.152109436200000232e+02
-3.153654399900000271e+02
-3.155732961599999840e+02
-3.158276963199999727e+02
-3.161199041400000169e+02
-3.164392480999999862e+02
-3.167742861199999993e+02
-3.171139673399999879e+02
-3.174480281099999956e+02
-3.321371056199999998e+02
-3.321377653800000189e+02
-3.321411113099999852e+02
-3.321472586400000182e+02
-3.321561012600000140e+02
-3.321676305199999888e+02
-3.321818515599999841e+02
-3.321987299499999722e+02
-3.322183388600000171e+02
-3.322406505000000152e+02
-3.297578926900000056e+02
-3.297773917499999925e+02
-3.298059936199999811e+02
-3.298429349900000034e+02
-3.298875779300000204e+02
-3.299391729000000169e+02
-3.299972034300000132e+02
-3.300609408899999835e+02
-3.301296003200000087e+02
-3.302029142100000172e+02
-3.272976920899999982e+02
-3.273034678199999803e+02
-3.273149995699999977e+02
-3.273322223000000122e+02
-3.273547747299999742e+02
-3.273826407700000232e+02
-3.274151218700000072e+02
-3.274522454599999719e+02
-3.274933522599999947e+02
-3.275380941500000063e+02
-3.241092492799999718e+02
-3.241733740700000226e+02
-3.242633928800000263e+02
-3.243764248300000190e+02
-3.245086948900000152e+02
-3.246560480699999971e+02
-3.248140247399999794e+02
-3.249778803799999878e+02
-3.251436973500000249e+02
-3.253075433199999793e+02
-3.226069388600000138e+02
-3.226360719499999732e+02
-3.226850080799999887e+02
-3.227535804799999823e+02
-3.228409658900000068e+02
-3.229466495899999927e+02
-3.230690200899999809e+02
-3.232063259700000231e+02
-3.233565108399999986e+02
-3.235170907599999737e+02
-3.259864587700000129e+02
-3.259831009999999765e+02
-3.259910486599999899e+02
-3.260100496900000167e+02
-3.260396791200000166e+02
-3.260794597999999951e+02
-3.261285645799999884e+02
-3.261862425499999745e+02
-3.262513499799999863e+02
-3.263229656500000146e+02
-3.335163784200000237e+02
-3.335221541700000216e+02
-3.335242864400000258e+02
-3.335229904099999771e+02
-3.335181497899999954e+02
-3.335098474100000203e+02
-3.334981943299999898e+02
-3.334836609600000088e+02
-3.334663162400000260e+02
-3.334466386199999874e+02
-3.299989536799999996e+02
-3.300118175000000065e+02
-3.300305901300000073e+02
-3.300552386200000115e+02
-3.300856453200000260e+02
-3.301219372400000225e+02
-3.301638879199999792e+02
-3.302115338300000076e+02
-3.302649437599999942e+02
-3.303237962800000105e+02
-3.302027748200000019e+02
-3.302060560099999975e+02
-3.302092397299999789e+02
-3.302125088500000061e+02
-3.302158869400000185e+02
-3.302193870599999741e+02
-3.302230359299999805e+02
-3.302270536899999911e+02
-3.302316776000000118e+02
-3.302368310699999938e+02
-3.307609686999999781e+02
-3.307849760500000116e+02
-3.308207454199999802e+02
-3.308681743500000039e+02
-3.309263409600000045e+02
-3.309946806799999877e+02
-3.310720982700000263e+02
-3.311575046799999882e+02
-3.312492500700000164e+02
-3.313459543499999995e+02
-3.277347625799999946e+02
-3.277588059500000099e+02
-3.277957565300000056e+02
-3.278452869299999861e+02
-3.279067843799999764e+02
-3.279798167899999726e+02
-3.280632580399999938e+02
-3.281561301500000241e+02
-3.282572426699999824e+02
-3.283650399699999980e+02
-3.267198212499999954e+02
-3.267206329399999731e+02
-3.267487543799999798e+02
-3.268033492700000124e+02
-3.268825158199999805e+02
-3.269839314500000000e+02
-3.271043782400000168e+02
-3.272395432600000049e+02
-3.273849265700000046e+02
-3.275354098299999919e+02
-3.219214864400000238e+02
-3.219808941599999912e+02
-3.220823271900000009e+02