2.260188185662413973e-01 1.860012455214304083e-01 1.540088866281274171e+00 1.860012455214304083e-01 8.661734066183665245e-03 8.891387558126322421e-01 1.540088866281274171e+00 8.891387558126322421e-01 4.299945184964120704e-01
1.433073955626420481e-01 1.543379963567381441e-01 1.683812169742710196e+00 1.543379963567381441e-01 -1.281177157806080713e-01 1.130419585969393292e+00 1.683812169742710196e+00 1.130419585969393292e+00 1.284432089187945158e-01
7.334445380467838338e-02 1.218429313944583148e-01 1.828367289001733731e+00 1.218429313944583148e-01 -2.527996706581370212e-01 1.372514148971620607e+00 1.828367289001733731e+00 1.372514148971620607e+00 -1.576833424992099275e-01
1.428553217596053443e-02 8.869688015580559637e-02 1.973754224058344331e+00 8.869688015580559637e-02 -3.669211814967280882e-01 1.615458610723557342e+00 1.973754224058344331e+00 1.615458610723557342e+00 -4.277883983375928012e-01
-3.457460445624878365e-02 5.520725282684495194e-02 2.119683647678599403e+00 5.520725282684495194e-02 -4.707173266739602679e-01 1.858873229230651791e+00 2.119683647678599403e+00 1.858873229230651791e+00 -6.821251199260547349e-01
-7.473684111803149954e-02 2.166337664151989431e-02 2.265902398532798401e+00 2.166337664151989431e-02 -5.651284197001501530e-01 2.102197432977139346e+00 2.265902398532798401e+00 2.102197432977139346e+00 -9.218869821046125068e-01
-1.070329936069751853e-01 -1.157308935774017944e-02 2.412265813003968695e+00 -1.157308935774017944e-02 -6.506969491389414939e-01 2.345178060633318129e+00 2.412265813003968695e+00 2.345178060633318129e+00 -1.148195127904797497e+00
-1.330181958055261793e-01 -4.424898384123471251e-02 2.558593061570895610e+00 -4.424898384123471251e-02 -7.281643160273147952e-01 2.587290706587667355e+00 2.558593061570895610e+00 2.587290706587667355e+00 -1.362640857113298853e+00
-1.541933327397664033e-01 -7.602073071865579623e-02 2.704829895377215632e+00 -7.602073071865579623e-02 -7.991760690083237195e-01 2.828517287888064224e+00 2.704829895377215632e+00 2.828517287888064224e+00 -1.567611119410150078e+00
-1.723847825739642514e-01 -1.065809198039384537e-01 2.851030563279293162e+00 -1.065809198039384537e-01 -8.643470284540981652e-01 3.068405730731472048e+00 2.851030563279293162e+00 3.068405730731472048e+00 -1.764859961151134193e+00
9.233013760652322333e+01 6.797678722330077861e+00 -5.232289966387530455e+01 6.797678722330077861e+00 9.755654094557235112e+01 4.967717551781660745e+01 -5.232289966387530455e+01 4.967717551781660745e+01 -1.806296489725398047e+01
9.250022011422184676e+01 6.746763700670623365e+00 -5.237766369910848141e+01 6.746763700670623365e+00 9.764140494221760491e+01 4.973418481096779686e+01 -5.237766369910848141e+01 4.973418481096779686e+01 -1.776878546507969858e+01
9.269106703725239527e+01 6.711059035282776364e+00 -5.233954495941781460e+01 6.711059035282776364e+00 9.775113559234574723e+01 4.970359528203977106e+01 -5.233954495941781460e+01 4.970359528203977106e+01 -1.746891692073722524e+01
9.290006172165028886e+01 6.691307518259712594e+00 -5.220724355864025057e+01 6.691307518259712594e+00 9.788458494454002334e+01 4.958503553498594130e+01 -5.220724355864025057e+01 4.958503553498594130e+01 -1.717007815634211099e+01
9.312426676231977751e+01 6.688488284633343994e+00 -5.197996605976715756e+01 6.688488284633343994e+00 9.804038558608350229e+01 4.937872503110656908e+01 -5.197996605976715756e+01 4.937872503110656908e+01 -1.687397421738096170e+01
9.336234850982087607e+01 6.702803914065444957e+00 -5.165695278906689225e+01 6.702803914065444957e+00 9.821814923929106556e+01 4.908442742746291287e+01 -5.165695278906689225e+01 4.908442742746291287e+01 -1.658129725103150420e+01
9.361369922516823294e+01 6.734406341302347165e+00 -5.123892965699415214e+01 6.734406341302347165e+00 9.841833170840175171e+01 4.870332443874865902e+01 -5.123892965699415214e+01 4.870332443874865902e+01 -1.629149016322386245e+01
9.387598924225142127e+01 6.783261803067089701e+00 -5.072741601101223097e+01 6.783261803067089701e+00 9.863951493578311158e+01 4.823710422881193693e+01 -5.072741601101223097e+01 4.823710422881193693e+01 -1.600605541978286084e+01
9.414715900117577974e+01 6.848846968566751237e+00 -5.012570377062498750e+01 6.848846968566751237e+00 9.888004452086397578e+01 4.768877172930240960e+01 -5.012570377062498750e+01 4.768877172930240960e+01 -1.572624226195611996e+01
9.442526711351590052e+01 6.930098294577014428e+00 -4.943806399036816401e+01 6.930098294577014428e+00 9.913829982635017757e+01 4.706227724362469189e+01 -4.943806399036816401e+01 4.706227724362469189e+01 -1.545215197957452347e+01
-1.254663021219703012e+02 -9.940183276213557795e-01 -1.149112265549654843e+01 -9.940183276213557795e-01 -1.277122870973728084e+02 5.845956050553891004e+00 -1.149112265549654843e+01 5.845956050553891004e+00 -1.643274317160650924e+02
-1.253774158973959345e+02 -1.000111061979080285e+00 -1.152210533798971781e+01 -1.000111061979080285e+00 -1.276321112263617295e+02 5.848144921786111006e+00 -1.152210533798971781e+01 5.848144921786111006e+00 -1.639177743103979310e+02
-1.251959201105841686e+02 -1.006113533605579313e+00 -1.156098600946512356e+01 -1.006113533605579313e+00 -1.274609279565924567e+02 5.853583251342450389e+00 -1.156098600946512356e+01 5.853583251342450389e+00 -1.631087720161061441e+02
-1.249353767369016026e+02 -1.012612450253818963e+00 -1.160771953855715211e+01 -1.012612450253818963e+00 -1.272170831881866491e+02 5.862293604905715050e+00 -1.160771953855715211e+01 5.862293604905715050e+00 -1.619358755208785681e+02
-1.245911146800073652e+02 -1.019698074655024378e+00 -1.166149356068477161e+01 -1.019698074655024378e+00 -1.268963797041422623e+02 5.874095457013456034e+00 -1.166149356068477161e+01 5.874095457013456034e+00 -1.603921345944108054e+02
-1.241651874170368046e+02 -1.027189881346744826e+00 -1.172154084263256912e+01 -1.027189881346744826e+00 -1.265012320325196242e+02 5.888605191057962429e+00 -1.172154084263256912e+01 5.888605191057962429e+00 -1.584962787534321933e+02
-1.236594227682972615e+02 -1.035539183985108025e+00 -1.178614639250725560e+01 -1.035539183985108025e+00 -1.260348670659600145e+02 5.905755109990817431e+00 -1.178614639250725560e+01 5.905755109990817431e+00 -1.562687299408824799e+02
-1.230704358813677572e+02 -1.043933617989084128e+00 -1.185361778409835232e+01 -1.043933617989084128e+00 -1.254915079896650241e+02 5.924620020816957044e+00 -1.185361778409835232e+01 5.924620020816957044e+00 -1.537241558505858450e+02
-1.224449151539747049e+02 -1.053005022477251806e+00 -1.192214976278135197e+01 -1.053005022477251806e+00 -1.249194453648403140e+02 5.944748609880254442e+00 -1.192214976278135197e+01 5.944748609880254442e+00 -1.510025314129902938e+02
-1.217653270505775396e+02 -1.062121558331032167e+00 -1.198914727503351330e+01 -1.062121558331032167e+00 -1.242981444201320471e+02 5.965666997841775121e+00 -1.198914727503351330e+01 5.965666997841775121e+00 -1.480966807409633930e+02
3.871134041046819618e+01 -3.628905026203896966e+01 -1.646077833091714027e+01 -3.628905026203896966e+01 2.020667447581752540e+01 5.549836782332426566e+01 -1.646077833091714027e+01 5.549836782332426566e+01 -2.285326198323248903e+01
3.880658337461312613e+01 -3.631240602076240975e+01 -1.633256253092735832e+01 -3.631240602076240975e+01 2.014197777518254995e+01 5.525894007213265979e+01 -1.633256253092735832e+01 5.525894007213265979e+01 -2.285170969063589652e+01
3.890346784357283383e+01 -3.629857812694218921e+01 -1.613005079562482535e+01 -3.629857812694218921e+01 2.012031704860481440e+01 5.492978267188058084e+01 -1.613005079562482535e+01 5.492978267188058084e+01 -2.282266219239161842e+01
3.900145854403816514e+01 -3.624788774456381901e+01 -1.585429582918424174e+01 -3.624788774456381901e+01 2.014149602920429771e+01 5.451176990230632668e+01 -1.585429582918424174e+01 5.451176990230632668e+01 -2.276579832451416152e+01
3.910203639883115301e+01 -3.616135189291473040e+01 -1.550759930683503640e+01 -3.616135189291473040e+01 2.020542550476279686e+01 5.400581172803550345e+01 -1.550759930683503640e+01 5.400581172803550345e+01 -2.267938736997053439e+01
3.920477318930445421e+01 -3.603966642729681524e+01 -1.509345834753045068e+01 -3.603966642729681524e+01 2.031119551065472706e+01 5.341417413941024961e+01 -1.509345834753045068e+01 5.341417413941024961e+01 -2.256317953454979630e+01
3.931072161963277267e+01 -3.588486538628494316e+01 -1.461633356218023039e+01 -3.588486538628494316e+01 2.045698611762891161e+01 5.273862353835082928e+01 -1.461633356218023039e+01 5.273862353835082928e+01 -2.241656817516821931e+01
3.942018501135797237e+01 -3.569826911070838804e+01 -1.408202374496704756e+01 -3.569826911070838804e+01 2.064108445109600609e+01 5.198308526245781280e+01 -1.408202374496704756e+01 5.198308526245781280e+01 -2.223857195742565906e+01
3.953428743842931681e+01 -3.548303571309125459e+01 -1.349748744891011043e+01 -3.548303571309125459e+01 2.086065356251740965e+01 5.115116348534628798e+01 -1.349748744891011043e+01 5.115116348534628798e+01 -2.202845934113291548e+01
3.965374259859234485e+01 -3.524132412911386325e+01 -1.287070024631604603e+01 -3.524132412911386325e+01 2.111314198245275264e+01 5.024926364428263525e+01 -1.287070024631604603e+01 5.024926364428263525e+01 -2.178524899188985131e+01
1.668625121664162236e+02 -4.964047842925669585e+01 2.269008325101984269e+01 -4.964047842925669585e+01 7.058429872621449874e+01 -2.949026491262529959e+01 2.269008325101984269e+01 -2.949026491262529959e+01 9.331221994809850173e+01
1.667864627168210063e+02 -4.950427797361820836e+01 2.250636609892275786e+01 -4.950427797361820836e+01 7.039216952737592692e+01 -2.935221315712478329e+01 2.250636609892275786e+01 -2.935221315712478329e+01 9.297762185724651829e+01
1.663714792372232978e+02 -4.919441259934396271e+01 2.216814660570910434e+01 -4.919441259934396271e+01 7.006172874147726759e+01 -2.908361228240669050e+01 2.216814660570910434e+01 -2.908361228240669050e+01 9.201392284222862372e+01
1.656273703689973331e+02 -4.871883964794617583e+01 2.168563939956496611e+01 -4.871883964794617583e+01 6.959779949184326142e+01 -2.869238715103826820e+01 2.168563939956496611e+01 -2.869238715103826820e+01 9.043854785700929710e+01
1.645690439478740927e+02 -4.808907290540881974e+01 2.107419078197816376e+01 -4.808907290540881974e+01 6.900595191753244251e+01 -2.818899598329270972e+01 2.107419078197816376e+01 -2.818899598329270972e+01 8.828202710983943291e+01
1.632185531774731544e+02 -4.732305698881555855e+01 2.035361290936683432e+01 -4.732305698881555855e+01 6.829156128393366032e+01 -2.758732352813518673e+01 2.035361290936683432e+01 -2.758732352813518673e+01 8.558845076848565725e+01
1.616098223157924565e+02 -4.644292629914829718e+01 1.954837866674913727e+01 -4.644292629914829718e+01 6.746674223751246302e+01 -2.690377165276432692e+01 1.954837866674913727e+01 -2.690377165276432692e+01 8.242337758332500641e+01
1.597850902307365573e+02 -4.547604434752551583e+01 1.868637122836272368e+01 -4.547604434752551583e+01 6.654583423246324969e+01 -2.615768156889652118e+01 1.868637122836272368e+01 -2.615768156889652118e+01 7.886798867725450179e+01
1.577955924579606517e+02 -4.445409434474378685e+01 1.779704899727523681e+01 -4.445409434474378685e+01 6.554670068850734310e+01 -2.537031074600009717e+01 1.779704899727523681e+01 -2.537031074600009717e+01 7.501968840617247736e+01
1.556982808274305796e+02 -4.341030225148468702e+01 1.690915583976545022e+01 -4.341030225148468702e+01 6.449037172249839500e+01 -2.456325768246531993e+01 1.690915583976545022e+01 -2.456325768246531993e+01 7.098528378053971721e+01
6.123346547078034519e+01 3.404863561195415400e+01 -2.684731708280550322e+01 3.404863561195415400e+01 -2.076160964565337963e+01 4.868069555261744341e+00 -2.684731708280550322e+01 4.868069555261744341e+00 5.566831626675646305e+01
6.088618436092271935e+01 3.388213072738716392e+01 -2.692964764966336944e+01 3.388213072738716392e+01 -2.085275121417540589e+01 4.669866338752063584e+00 -2.692964764966336944e+01 4.669866338752063584e+00 5.513346896453101209e+01
6.033495604151882930e+01 3.358890342854368072e+01 -2.690011217929618326e+01 3.358890342854368072e+01 -2.101452262299927298e+01 4.509229545836659803e+00 -2.690011217929618326e+01 4.509229545836659803e+00 5.423609415117796573e+01
5.958917655056062301e+01 3.317377583303468214e+01 -2.675998711460096757e+01 3.317377583303468214e+01 -2.124481419567018392e+01 4.385503226693452383e+00 -2.675998711460096757e+01 4.385503226693452383e+00 5.299042771067383484e+01
5.866201806961042564e+01 3.264320106883953088e+01 -2.651194943998675058e+01 3.264320106883953088e+01 -2.153905201180714002e+01 4.297570493787546297e+00 -2.651194943998675058e+01 4.297570493787546297e+00 5.142011929336064213e+01
5.756961341861667592e+01 3.200815299919791812e+01 -2.616090991493235052e+01 3.200815299919791812e+01 -2.189427543302399926e+01 4.242665720842064836e+00 -2.616090991493235052e+01 4.242665720842064836e+00 4.955200965682297465e+01
5.633406987942086630e+01 3.128093511536722104e+01 -2.571452719681989407e+01 3.128093511536722104e+01 -2.230341083826643001e+01 4.217881454591569934e+00 -2.571452719681989407e+01 4.217881454591569934e+00 4.742604082671345367e+01
5.498095176671054674e+01 3.047876166808368126e+01 -2.518319011256124895e+01 3.047876166808368126e+01 -2.276144109781420966e+01 4.218218293689395715e+00 -2.518319011256124895e+01 4.218218293689395715e+00 4.508541684942153438e+01
5.353897904566869670e+01 2.962205574369961170e+01 -2.457930852365523577e+01 2.962205574369961170e+01 -2.326033525844022876e+01 4.239208687995966507e+00 -2.457930852365523577e+01 4.239208687995966507e+00 4.258190457577085652e+01
5.204135695999143252e+01 2.872627648396784750e+01 -2.391656873449768383e+01 2.872627648396784750e+01 -2.378580425104729201e+01 4.274169040675491082e+00 -2.391656873449768383e+01 4.274169040675491082e+00 3.997110018527611430e+01
-4.126140979987826540e+01 -3.310135364433721605e+01 4.050442540230615407e+01 -3.310135364433721605e+01 -7.512336314427284556e+00 -4.863145679991200865e+01 4.050442540230615407e+01 -4.863145679991200865e+01 5.782161191382796162e+00
-4.144419799496150603e+01 -3.299596664028532444e+01 4.032261127835884196e+01 -3.299596664028532444e+01 -7.670323159818965841e+00 -4.831514593065851670e+01 4.032261127835884196e+01 -4.831514593065851670e+01 5.316199277804653178e+00
-4.167370414029455361e+01 -3.284073341906635335e+01 4.002323426116061711e+01 -3.284073341906635335e+01 -7.848634374104408451e+00 -4.787136286755983150e+01 4.002323426116061711e+01 -4.787136286755983150e+01 4.744400788881121933e+00
-4.194479563027658031e+01 -3.263833267630406709e+01 3.961133329562615302e+01 -3.263833267630406709e+01 -8.045658993481891841e+00 -4.730364798455227771e+01 3.961133329562615302e+01 -4.730364798455227771e+01 4.075551096972731990e+00
-4.225250844854182475e+01 -3.239179901822961938e+01 3.909353955833461214e+01 -3.239179901822961938e+01 -8.257969036838462173e+00 -4.661726501219729357e+01 3.909353955833461214e+01 -4.661726501219729357e+01 3.320964412965963675e+00
-4.258998663286439523e+01 -3.210581547915032274e+01 3.847873208233266951e+01 -3.210581547915032274e+01 -8.483859879686253436e+00 -4.581916357340692514e+01 3.847873208233266951e+01 -4.581916357340692514e+01 2.493303661627805035e+00
-4.295147941711488926e+01 -3.178527114688301580e+01 3.777730720378257701e+01 -3.178527114688301580e+01 -8.720428040754731214e+00 -4.491826016550231770e+01 3.777730720378257701e+01 -4.491826016550231770e+01 1.606973856487566188e+00
-4.332857607167736802e+01 -3.143679719800686811e+01 3.700174052607902553e+01 -3.143679719800686811e+01 -8.965238342204088440e+00 -4.392570041013487270e+01 3.700174052607902553e+01 -4.392570041013487270e+01 6.787027960909869373e-01
-4.371383993807179991e+01 -3.106659396994476197e+01 3.616555665230154659e+01 -3.106659396994476197e+01 -9.214844070784138808e+00 -4.285412849993436168e+01 3.616555665230154659e+01 -4.285412849993436168e+01 -2.756246671915097424e-01
-4.409959084003421026e+01 -3.068277247811698061e+01 3.528349777444957880e+01 -3.068277247811698061e+01 -9.467165959262434427e+00 -4.171836155544913538e+01 3.528349777444957880e+01 -4.171836155544913538e+01 -1.237725967424154305e+00
2.524285134405498354e+01 1.722443004306703784e+01 1.340716896927894197e+00 1.722443004306703784e+01 6.713169260555632434e+01 -5.592753162114959053e+01 1.340716896927894197e+00 -5.592753162114959053e+01 1.532358554873998173e+02
2.493423815803559052e+01 1.716540381216436728e+01 1.214737813583826931e+00 1.716540381216436728e+01 6.664071631246976324e+01 -5.565719656478300692e+01 1.214737813583826931e+00 -5.565719656478300692e+01 1.523672637515657584e+02
2.434661805618844355e+01 1.707338386596803304e+01 1.129746815974183249e+00 1.707338386596803304e+01 6.563445880768968266e+01 -5.508526033375820674e+01 1.129746815974183249e+00 -5.508526033375820674e+01 1.506174789841180939e+02
2.348746035496349549e+01 1.695109709778516915e+01 1.085049477853049504e+00 1.695109709778516915e+01 6.413995190313013950e+01 -5.422484927784551445e+01 1.085049477853049504e+00 -5.422484927784551445e+01 1.480110093503699886e+02
2.236508123208620447e+01 1.680404810590654563e+01 1.078054403717381371e+00 1.680404810590654563e+01 6.219792962614294396e+01 -5.309964163830804296e+01 1.078054403717381371e+00 -5.309964163830804296e+01 1.445918577621966108e+02
2.101462543049000686e+01 1.663850366377090140e+01 1.106881561535558722e+00 1.663850366377090140e+01 5.988325451348269723e+01 -5.174295293772412663e+01 1.106881561535558722e+00 -5.174295293772412663e+01 1.404606821508044447e+02
1.946326025989309372e+01 1.646313563083940679e+01 1.167432142734138978e+00 1.646313563083940679e+01 5.727712362424477988e+01 -5.020491736360365564e+01 1.167432142734138978e+00 -5.020491736360365564e+01 1.357277777287152389e+02
1.776611638933081494e+01 1.628627712206301936e+01 1.254591105209074575e+00 1.628627712206301936e+01 5.448866350239071465e+01 -4.854339247828909976e+01 1.254591105209074575e+00 -4.854339247828909976e+01 1.305698675069012893e+02
1.597962865420279854e+01 1.611575313562740774e+01 1.362667541188974152e+00 1.611575313562740774e+01 5.163086237929833544e+01 -4.682334947883718002e+01 1.362667541188974152e+00 -4.682334947883718002e+01 1.251802052284327686e+02
1.414991711957302378e+01 1.596026940544476247e+01 1.485428551686123866e+00 1.596026940544476247e+01 4.879904296013843634e+01 -4.511058948635459132e+01 1.485428551686123866e+00 -4.511058948635459132e+01 1.197358695860176425e+02
6.673296721084884098e+01 3.506474002484616825e+00 3.861723245650776448e+01 3.506474002484616825e+00 1.890262117929467536e+02 7.440895560802748321e+01 3.861723245650776448e+01 7.440895560802748321e+01 2.056556608168704940e+02
6.684570918426410913e+01 3.577615061678441677e+00 3.860685606346474685e+01 3.577615061678441677e+00 1.874328077923524347e+02 7.350531955415765140e+01 3.860685606346474685e+01 7.350531955415765140e+01 2.038894493517390458e+02
6.678559602211753088e+01 3.669063977394425358e+00 3.857010170342112332e+01 3.669063977394425358e+00 1.847093780415884510e+02 7.198051415810650155e+01 3.857010170342112332e+01 7.198051415810650155e+01 2.005980829030419557e+02
6.655285018919103379e+01 3.774830090861946985e+00 3.849729215836280360e+01 3.774830090861946985e+00 1.809758787291413000e+02 6.991082894973544626e+01 3.849729215836280360e+01 6.991082894973544626e+01 1.959156918439432218e+02
6.614351499043452520e+01 3.887190696079622310e+00 3.837798747388050913e+01 3.887190696079622310e+00 1.764214208099955670e+02 6.741577518796714230e+01 3.837798747388050913e+01 6.741577518796714230e+01 1.900753874852253773e+02
6.556623477166024827e+01 3.997406105185801639e+00 3.820518000934335134e+01 3.997406105185801639e+00 1.713143921532116565e+02 6.465269903499439863e+01 3.820518000934335134e+01 6.465269903499439863e+01 1.834015393692881162e+02
6.483812343073546458e+01 4.097435805347767968e+00 3.797786867323264204e+01 4.097435805347767968e+00 1.659719321957764748e+02 6.180057340788224707e+01 3.797786867323264204e+01 6.180057340788224707e+01 1.762923117847666674e+02
6.398818084101929315e+01 4.181368589502733712e+00 3.770314055788709595e+01 4.181368589502733712e+00 1.607080817580714438e+02 5.902785181757855071e+01 3.770314055788709595e+01 5.902785181757855071e+01 1.691549900763553467e+02
6.305090493405290175e+01 4.246280634802436893e+00 3.739359670416904180e+01 4.246280634802436893e+00 1.557744643988042128e+02 5.646226082959595516e+01 3.739359670416904180e+01 5.646226082959595516e+01 1.623265130466332096e+02
6.206030104078888598e+01 4.292187831588445412e+00 3.706404691041860389e+01 4.292187831588445412e+00 1.513252164311711567e+02 5.417583136225599105e+01 3.706404691041860389e+01 5.417583136225599105e+01 1.560282490439649337e+02
4.833666013032716080e+01 -3.397079578846688985e+00 -4.227863188154910290e+01 -3.397079578846688985e+00 -5.318702720001748219e+01 4.334606548638474521e+01 -4.227863188154910290e+01 4.334606548638474521e+01 3.828643348348190756e+01
4.808576114501428833e+01 -3.296734580357686628e+00 -4.216522378871134435e+01 -3.296734580357686628e+00 -5.327992842407311258e+01 4.320660418303021544e+01 -4.216522378871134435e+01 4.320660418303021544e+01 3.780729523796951241e+01
4.768751921282920847e+01 -3.149555834392089526e+00 -4.188869121742083479e+01 -3.149555834392089526e+00 -5.340758550669630722e+01 4.295995617674424949e+01 -4.188869121742083479e+01 4.295995617674424949e+01 3.706809924546398349e+01
4.714824694640412872e+01 -2.958918581808164916e+00 -4.145463524304776826e+01 -2.958918581808164916e+00 -5.357112960968819948e+01 4.261037244655373968e+01 -4.145463524304776826e+01 4.261037244655373968e+01 3.607791304491968276e+01
4.647750448741327745e+01 -2.730168474343598550e+00 -4.087051788457069534e+01 -2.730168474343598550e+00 -5.376992217396750107e+01 4.216369124691624393e+01 -4.087051788457069534e+01 4.216369124691624393e+01 3.485027408886004707e+01
4.568793530566626515e+01 -2.469034299184854842e+00 -4.014672028819693139e+01 -2.469034299184854842e+00 -5.400370777590170235e+01 4.162697321681633866e+01 -4.014672028819693139e+01 4.162697321681633866e+01 3.340147475613064643e+01
4.479362419004191764e+01 -2.182978075310478605e+00 -3.929621432554932881e+01 -2.182978075310478605e+00 -5.427128227550892348e+01 4.100901222703070204e+01 -3.929621432554932881e+01 4.100901222703070204e+01 3.175453966274842088e+01
4.381248728390681180e+01 -1.879443577153836253e+00 -3.833458083821145124e+01 -1.879443577153836253e+00 -5.457262742824398316e+01 4.032009820104075004e+01 -3.833458083821145124e+01 4.032009820104075004e+01 2.993347863017000421e+01
4.276273264335040381e+01 -1.567169941856060511e+00 -3.727953527955289559e+01 -1.567169941856060511e+00 -5.490476937324258699e+01 3.957190764776157010e+01 -3.727953527955289559e+01 3.957190764776157010e+01 2.797087641608655417e+01
4.166541447351021787e+01 -1.254732105651666485e+00 -3.615174871926240741e+01 -1.254732105651666485e+00 -5.526865682685406256e+01 3.877786855244550424e+01 -3.615174871926240741e+01 3.877786855244550424e+01 2.589462893007801725e+01
1.059537632185511171e+02 2.046910783611873796e+01 2.248361765119326705e+01 2.046910783611873796e+01 1.459893955481942101e+02 3.166747252667669699e+01 2.248361765119326705e+01 3.166747252667669699e+01 3.043925693530871968e+01
1.059740614866868498e+02 2.053454581804627921e+01 2.250033005421468246e+01 2.053454581804627921e+01 1.457608574932848455e+02 3.152316173786847742e+01 2.250033005421468246e+01 3.152316173786847742e+01 3.020015599266448092e+01
1.059639853679719863e+02 2.056522849194287517e+01 2.246765162733591481e+01 2.056522849194287517e+01 1.454425430054459127e+02 3.129624624635927077e+01 2.246765162733591481e+01 3.129624624635927077e+01 2.982557100610877399e+01
1.059228533857785237e+02 2.056092869893251063e+01 2.238465750941888999e+01 2.056092869893251063e+01 1.450378594678176398e+02 3.098924102541927894e+01 2.238465750941888999e+01 3.098924102541927894e+01 2.931795204637580099e+01
1.058497406789683168e+02 2.052180869535519747e+01 2.225074735200555409e+01 2.052180869535519747e+01 1.445507334838283953e+02 3.060501801226675411e+01 2.225074735200555409e+01 3.060501801226675411e+01 2.867945712278775261e+01
1.057436250325993399e+02 2.044851750657099387e+01 2.206545061170987054e+01 2.044851750657099387e+01 1.439860165180446074e+02 3.014687101060397012e+01 2.206545061170987054e+01 3.014687101060397012e+01 2.791274723932085067e+01
1.056029487858074134e+02 2.034241808583601241e+01 2.182883219106783912e+01 2.034241808583601241e+01 1.433487871939086631e+02 2.961853191625124637e+01 2.182883219106783912e+01 2.961853191625124637e+01 2.702046717431731793e+01
1.054274685540825800e+02 2.020524657598840079e+01 2.154120037712549163e+01 2.020524657598840079e+01 1.426458765033351597e+02 2.902400846080692176e+01 2.154120037712549163e+01 2.902400846080692176e+01 2.600696539768952675e+01
1.052206890743690622e+02 2.003875534550030579e+01 2.120289590819685088e+01 2.003875534550030579e+01 1.418872469856009388e+02 2.836687028375129316e+01 2.120289590819685088e+01 2.836687028375129316e+01 2.488215577181230742e+01
1.049678450197256581e+02 1.984787698710814752e+01 2.081696920347418356e+01 1.984787698710814752e+01 1.410701240572917641e+02 2.765443514601898300e+01 2.081696920347418356e+01 2.765443514601898300e+01 2.363401510189065036e+01
2.281927891349230464e+00 2.948651927157614949e+01 -6.102651772024716337e+01 2.948651927157614949e+01 1.277480447059555857e+01 -5.912223933326941250e+01 -6.102651772024716337e+01 -5.912223933326941250e+01 1.142774615894642807e+02
2.016601078286887283e+00 2.948033441452304970e+01 -6.078635687726294634e+01 2.948033441452304970e+01 1.262981578140253980e+01 -5.888010573415618154e+01 -6.078635687726294634e+01 -5.888010573415618154e+01 1.137309548239965977e+02
1.360064284038375204e+00 2.931682669932621010e+01 -6.020542462871522105e+01 2.931682669932621010e+01 1.221640785062062662e+01 -5.835611682468353223e+01 -6.020542462871522105e+01 -5.835611682468353223e+01 1.124464417679258048e+02
3.290415042558931247e-01 2.900397601339035702e+01 -5.929781462875088494e+01 2.900397601339035702e+01 1.154133425779055955e+01 -5.755819917452297574e+01 -5.929781462875088494e+01 -5.755819917452297574e+01 1.104459959628034795e+02
-1.051052474894094368e+00 2.855907507485531127e+01 -5.809082555677667870e+01 2.855907507485531127e+01 1.061636044937541712e+01 -5.650524503381083719e+01 -5.809082555677667870e+01 -5.650524503381083719e+01 1.077644872061531061e+02
-2.736745928262515726e+00 2.800258012069842906e+01 -5.662305945164125376e+01 2.800258012069842906e+01 9.462724655773047999e+00 -5.522451753679840181e+01 -5.662305945164125376e+01 -5.522451753679840181e+01 1.044611159544225956e+02
-4.660645241063892108e+00 2.736406472027704595e+01 -5.494568356465457981e+01 2.736406472027704595e+01 8.123045518401060150e+00 -5.375490308357814939e+01 -5.494568356465457981e+01 -5.375490308357814939e+01 1.006435840287090002e+02
-6.752548731230017864e+00 2.667726122613938244e+01 -5.312555833326997856e+01 2.667726122613938244e+01 6.638324374102836600e+00 -5.214858196239114818e+01 -5.312555833326997856e+01 -5.214858196239114818e+01 9.642727100369251048e+01
-8.930133818674832469e+00 2.597817688078421838e+01 -5.123494705857334708e+01 2.597817688078421838e+01 5.061701230317348532e+00 -5.046495012804042091e+01 -5.123494705857334708e+01 -5.046495012804042091e+01 9.196167980331179592e+01
-1.111168219095539733e+01 2.530004640458307819e+01 -4.934435355645446464e+01 2.530004640458307819e+01 3.448733165056041106e+00 -4.876377675946152124e+01 -4.934435355645446464e+01 -4.876377675946152124e+01 8.740461314530955406e+01
7.652665338112939253e+01 -3.641285921045981411e+01 -9.473175017252993158e+00 -3.641285921045981411e+01 1.667993544525026266e+02 9.212324081246886465e+01 -9.473175017252993158e+00 9.212324081246886465e+01 1.667477119311138267e+02
7.667305414838730826e+01 -3.662816484689658836e+01 -9.686633983926174807e+00 -3.662816484689658836e+01 1.659920064898585395e+02 9.120862542355706637e+01 -9.686633983926174807e+00 9.120862542355706637e+01 1.658129919287758298e+02
7.657705943667646409e+01 -3.680245835658369202e+01 -9.815611823414553072e+00 -3.680245835658369202e+01 1.644661434091981107e+02 8.971258204507913092e+01 -9.815611823414553072e+00 8.971258204507913092e+01 1.637040468847609986e+02
7.623491167447789962e+01 -3.693109897811524434e+01 -9.854713048408850540e+00 -3.693109897811524434e+01 1.622762821135420950e+02 8.768416786075482605e+01 -9.854713048408850540e+00 8.768416786075482605e+01 1.604853496608156149e+02
7.564754222567238173e+01 -3.701085905390443287e+01 -9.800083739402444039e+00 -3.701085905390443287e+01 1.595109824615531693e+02 8.520115175462822776e+01 -9.800083739402444039e+00 8.520115175462822776e+01 1.562709762743357373e+02
7.482498733897509169e+01 -3.704069481408488684e+01 -9.651274272452893044e+00 -3.704069481408488684e+01 1.562950632712521326e+02 8.237190915482521802e+01 -9.651274272452893044e+00 8.237190915482521802e+01 1.512327954773189447e+02
7.379637622265693153e+01 -3.702209965246542112e+01 -9.413535612887974580e+00 -3.702209965246542112e+01 1.527908387858597052e+02 7.933028347421128501e+01 -9.413535612887974580e+00 7.933028347421128501e+01 1.456036803559530028e+02
7.259082202699083552e+01 -3.696229966812096279e+01 -9.098975491157666795e+00 -3.696229966812096279e+01 1.491688610015418988e+02 7.622477907777506800e+01 -9.098975491157666795e+00 7.622477907777506800e+01 1.396451193487623925e+02
7.126141249318060034e+01 -3.686917933804213732e+01 -8.724968661037671325e+00 -3.686917933804213732e+01 1.455999549004299354e+02 7.319184077404899824e+01 -8.724968661037671325e+00 7.319184077404899824e+01 1.336292794629046057e+02
6.985328665344755450e+01 -3.675348146285367079e+01 -8.311973011908987630e+00 -3.675348146285367079e+01 1.422158763556564907e+02 7.034027755710344820e+01 -8.311973011908987630e+00 7.034027755710344820e+01 1.277799128417350403e+02
-4.275570373199631291e+01 -3.892204372220106023e+01 2.212376646794906032e-01 -3.892204372220106023e+01 4.429976882465717836e+01 -8.844532634423192263e+00 2.212376646794906032e-01 -8.844532634423192263e+00 -9.469871113704964216e+01