-3.436041819999999802e+02
-3.436012561399999754e+02
-3.435927367799999956e+02
-3.435788524700000153e+02
-3.435599635500000204e+02
-3.435365522700000156e+02
-3.435091972499999997e+02
-3.434785494800000265e+02
-3.434453037900000254e+02
-3.434101766100000077e+02
-3.429037538000000040e+02
-3.429073365300000091e+02
-3.429051760199999990e+02
-3.428973785000000021e+02
-3.428842240000000174e+02
-3.428661377199999833e+02
-3.428436842899999988e+02
-3.428175269999999841e+02
-3.427884051500000169e+02
-3.427571088899999836e+02
-3.433353387199999815e+02
-3.433357615099999975e+02
-3.433325826899999811e+02
-3.433259060799999816e+02
-3.433159363799999824e+02
-3.433029638500000260e+02
-3.432873516099999733e+02
-3.432695292399999971e+02
-3.432499696900000004e+02
-3.432291809700000158e+02
-3.427123008600000276e+02
-3.427138286699999981e+02
-3.427125157199999990e+02
-3.427084389299999998e+02
-3.427017548200000192e+02
-3.426926946599999724e+02
-3.426815560200000164e+02
-3.426686908600000265e+02
-3.426544942099999957e+02
-3.426393969399999833e+02
-3.424943463399999928e+02
-3.424965501799999856e+02
-3.424992998299999840e+02
-3.425026899200000230e+02
-3.425068636299999980e+02
-3.425120068599999854e+02
-3.425183240999999725e+02
-3.425260227599999894e+02
-3.425352983399999971e+02
-3.425463050800000246e+02
-3.415593472400000223e+02
-3.415741494600000010e+02
-3.415916362699999809e+02
-3.416115687199999797e+02
-3.416336936000000151e+02
-3.416577463799999919e+02
-3.416834588500000223e+02
-3.417105600500000264e+02
-3.417387955400000124e+02
-3.417679164099999980e+02
-3.423325768899999844e+02
-3.423315509500000076e+02
-3.423305487900000230e+02
-3.423296733199999835e+02
-3.423290687200000093e+02
-3.423289091699999744e+02
-3.423293828500000018e+02
-3.423306761000000051e+02
-3.423329606699999772e+02
-3.423363753099999940e+02
-3.434633443499999998e+02
-3.434614661100000035e+02
-3.434534452199999919e+02
-3.434395431699999790e+02
-3.434201896899999724e+02
-3.433959594699999798e+02
-3.433675491600000100e+02
-3.433357419299999833e+02
-3.433013787300000104e+02
-3.432653306099999782e+02
-3.424647676000000160e+02
-3.424678186699999856e+02
-3.424657253500000138e+02
-3.424586185699999987e+02
-3.424467862199999786e+02
-3.424306569199999899e+02
-3.424107712399999741e+02
-3.423877558500000191e+02
-3.423622923899999932e+02
-3.423350781400000074e+02
-3.422850408300000140e+02
-3.422872184400000037e+02
-3.422911050999999816e+02
-3.422969493400000260e+02
-3.423051125599999978e+02
-3.423160345300000245e+02
-3.423301976399999944e+02
-3.423480674499999736e+02
-3.423700487300000077e+02
-3.423964353599999981e+02
-3.425375182000000223e+02
-3.425329307000000085e+02
-3.425249619599999846e+02
-3.425138583599999720e+02
-3.424999691400000188e+02
-3.424837254299999927e+02
-3.424656254000000217e+02
-3.424462059300000192e+02
-3.424260277700000188e+02
-3.424056502500000079e+02
-3.428019408299999782e+02
-3.428034032300000149e+02
-3.427997362599999747e+02
-3.427911742200000162e+02
-3.427781156300000021e+02
-3.427611092600000120e+02
-3.427408110000000079e+02
-3.427179572699999994e+02
-3.426933321999999862e+02
-3.426677240099999722e+02
-3.427517470600000138e+02
-3.427548523599999726e+02
-3.427525585999999862e+02
-3.427449978500000043e+02
-3.427324637599999733e+02
-3.427154089900000145e+02
-3.426944167199999924e+02
-3.426701810100000216e+02
-3.426434763199999907e+02
-3.426151306400000180e+02
-3.420981888499999855e+02
-3.420966751899999849e+02
-3.420978283300000271e+02
-3.421017104300000256e+02
-3.421083734599999957e+02
-3.421178652500000226e+02
-3.421302160100000265e+02
-3.421454459799999768e+02
-3.421635543300000109e+02
-3.421845214300000180e+02
-3.428870374800000036e+02
-3.428869695800000272e+02
-3.428817493700000227e+02
-3.428716230699999983e+02
-3.428569737600000167e+02
-3.428383014400000093e+02
-3.428162007799999742e+02
-3.427913422600000217e+02
-3.427644352199999958e+02
-3.427362123600000245e+02
-3.425861875300000179e+02
-3.425831624799999986e+02
-3.425763841099999922e+02
-3.425661020000000008e+02
-3.425526821700000255e+02
-3.425365870499999801e+02
-3.425183524400000010e+02
-3.424985667999999919e+02
-3.424778560999999968e+02
-3.424568420900000092e+02
-3.419982997800000248e+02
-3.420032020099999954e+02
-3.420100701999999728e+02
-3.420188223200000266e+02
-3.420293557100000044e+02
-3.420415550100000246e+02
-3.420552972699999827e+02
-3.420704472499999724e+02
-3.420868642899999941e+02
-3.421044024799999761e+02
-3.430986702299999820e+02
-3.431005175500000064e+02
-3.430991445700000213e+02
-3.430946733499999937e+02
-3.430873104400000102e+02
-3.430773487100000239e+02
-3.430651436699999977e+02
-3.430511044300000094e+02
-3.430356850100000088e+02
-3.430193609300000048e+02
-3.429215648699999974e+02
-3.429242451999999730e+02
-3.429225030599999968e+02
-3.429164002399999731e+02
-3.429061167799999907e+02
-3.428919396100000085e+02
-3.428742537399999719e+02
-3.428535251700000117e+02
-3.428302790999999843e+02
-3.428050887599999896e+02
-3.431991868599999975e+02
-3.432005665400000112e+02
-3.431978450099999804e+02
-3.431911311599999976e+02
-3.431806457900000282e+02
-3.431667203100000165e+02
-3.431497768699999824e+02
-3.431303165699999909e+02
-3.431089007200000083e+02
-3.430861231800000155e+02
-3.423476066299999729e+02
-3.423433170800000198e+02
-3.423387450600000079e+02
-3.423340504199999828e+02
-3.423294278100000270e+02
-3.423250945300000012e+02
-3.423212927800000216e+02
-3.423182761099999993e+02
-3.423163027499999771e+02
-3.423156298399999855e+02
-3.424619139600000040e+02
-3.424665797200000270e+02
-3.424699797800000169e+02
-3.424721163599999727e+02
-3.424730307400000129e+02
-3.424727966699999797e+02
-3.424715319100000102e+02
-3.424693778899999757e+02
-3.424665045899999996e+02
-3.424631013499999881e+02
-3.409805769399999917e+02
-3.409908509900000126e+02
-3.410046080299999858e+02
-3.410217995900000005e+02
-3.410424112200000195e+02
-3.410664461399999823e+02
-3.410939104199999861e+02
-3.411247776899999735e+02
-3.411589656699999864e+02
-3.411963059000000271e+02
-3.426204908700000260e+02
-3.426250802600000043e+02
-3.426283307499999751e+02
-3.426302588799999853e+02
-3.426309436700000219e+02
-3.426305333000000246e+02
-3.426292294900000002e+02
-3.426272887200000241e+02
-3.426250088699999878e+02
-3.426227136699999960e+02
-3.426901129699999728e+02
-3.426866919799999778e+02
-3.426797489499999756e+02
-3.426694207900000038e+02
-3.426559413300000188e+02
-3.426396306999999979e+02
-3.426208818900000210e+02
-3.426001415999999722e+02
-3.425778927200000226e+02
-3.425546357599999965e+02
-3.429415490000000091e+02
-3.429358128900000224e+02
-3.429275259300000016e+02
-3.429169644899999980e+02
-3.429044690599999967e+02
-3.428904298400000243e+02
-3.428752677599999856e+02
-3.428594158899999798e+02
-3.428432983999999806e+02
-3.428273210500000232e+02
-3.423194215999999983e+02
-3.423225677099999871e+02
-3.423277799900000105e+02
-3.423349723100000119e+02
-3.423440420100000097e+02
-3.423548720300000241e+02
-3.423673411299999998e+02
-3.423813180999999872e+02
-3.423966644600000109e+02
-3.424132393300000103e+02
-3.429601774199999795e+02
-3.429654409299999998e+02
-3.429657840899999997e+02
-3.429613501300000280e+02
-3.429524442399999771e+02
-3.429395253600000046e+02
-3.429231722600000012e+02
-3.429040650700000015e+02
-3.428829446500000131e+02
-3.428605865900000254e+02
-3.427115751700000033e+02
-3.427233133400000042e+02
-3.427318069500000206e+02
-3.427369904700000234e+02
-3.427389292600000203e+02
-3.427378006399999890e+02
-3.427338968899999827e+02
-3.427276091499999779e+02
-3.427194089100000269e+02
-3.427098265199999787e+02
-3.430728359500000124e+02
-3.430739094499999737e+02
-3.430698540800000274e+02
-3.430608006499999760e+02
-3.430470163400000274e+02
-3.430288888200000201e+02
-3.430069117400000209e+02
-3.429816614700000059e+02
-3.429537740200000258e+02
-3.429239053699999999e+02
-3.421498369199999843e+02
-3.421456289800000263e+02
-3.421375030699999797e+02
-3.421256764799999814e+02
-3.421104581999999823e+02
-3.420922541400000227e+02
-3.420715394000000060e+02
-3.420488540900000203e+02
-3.420247761499999797e+02
-3.419999044099999992e+02
-3.431024611500000105e+02
-3.431000938000000247e+02
-3.430934103499999992e+02
-3.430825778099999752e+02
-3.430678967200000216e+02
-3.430497830400000225e+02
-3.430287447399999792e+02
-3.430053657999999928e+02
-3.429802793800000131e+02
-3.429541476200000147e+02
-3.418987022700000011e+02
-3.419006924999999910e+02
-3.419003003099999773e+02
-3.418976582799999733e+02
-3.418929671199999802e+02
-3.418864967600000000e+02
-3.418785676400000284e+02
-3.418695405099999789e+02
-3.418598024899999928e+02
-3.418497530099999722e+02
-3.427080715700000155e+02
-3.427117074099999741e+02
-3.427127752399999849e+02
-3.427114708600000199e+02
-3.427081544399999871e+02
-3.427033340199999998e+02
-3.426976230600000122e+02
-3.426917108999999755e+02
-3.426863143300000161e+02
-3.426821381199999905e+02
-3.431317351000000144e+02
-3.431315148400000226e+02
-3.431262538899999868e+02
-3.431161728899999730e+02
-3.431016513299999815e+02
-3.430832173499999840e+02
-3.430615161599999965e+02
-3.430372661999999764e+02
-3.430112407199999893e+02
-3.429842246700000032e+02
-3.429429254099999866e+02
-3.429383866599999919e+02
-3.429296400599999970e+02
-3.429168257499999868e+02
-3.429001935000000003e+02
-3.428800928599999907e+02
-3.428569632599999863e+02
-3.428313057400000048e+02
-3.428036690499999963e+02
-3.427746320800000035e+02
-3.430264448600000264e+02
-3.430235633300000018e+02
-3.430160131600000000e+02
-3.430039878900000190e+02
-3.429877950000000055e+02
-3.429678414900000121e+02
-3.429446120599999972e+02
-3.429186475500000029e+02
-3.428905295000000137e+02
-3.428608561400000099e+02
-3.422561659599999757e+02
-3.422599044899999967e+02
-3.422596325499999921e+02
-3.422554906899999878e+02
-3.422477249500000198e+02
-3.422367000599999756e+02
-3.422228663700000197e+02
-3.422067559000000188e+02
-3.421889431899999749e+02
-3.421700424699999985e+02
-3.429677678099999980e+02
-3.429676649900000029e+02
-3.429633306700000048e+02
-3.429549339399999894e+02
-3.429427381900000000e+02
-3.429270941899999912e+02
-3.429084188799999993e+02
-3.428871839099999761e+02
-3.428638902100000223e+02
-3.428390558599999736e+02
-3.426762073799999939e+02
-3.426751314599999887e+02
-3.426723298399999749e+02
-3.426678721999999766e+02
-3.426619059500000049e+02
-3.426546430299999884e+02
-3.426463492699999733e+02
-3.426373296599999776e+02
-3.426279136399999743e+02
-3.426184369900000206e+02
-3.427531095200000095e+02
-3.427557119200000102e+02
-3.427558144100000277e+02
-3.427535649499999977e+02
-3.427492070600000034e+02
-3.427430646799999749e+02
-3.427355292500000132e+02
-3.427270375699999931e+02
-3.427180468799999744e+02
-3.427090187700000001e+02
-3.427871690499999886e+02
-3.427890451399999847e+02
-3.427871810699999742e+02
-3.427816459399999758e+02
-3.427726463999999851e+02
-3.427605100499999935e+02
-3.427456665899999848e+02
-3.427286350100000050e+02
-3.427099984500000005e+02
-3.426903830499999799e+02
-3.419051617800000145e+02
-3.419190218100000038e+02
-3.419356697800000120e+02
-3.419549069799999756e+02
-3.419765213300000255e+02
-3.420002901099999804e+02
-3.420259727499999940e+02
-3.420533059100000060e+02
-3.420819993999999724e+02
-3.421117424000000256e+02
-3.431808076600000277e+02
-3.431852158699999791e+02
-3.431864491100000123e+02
-3.431845650700000192e+02
-3.431797159299999862e+02
-3.431721331900000109e+02
-3.431621203199999854e+02
-3.431500405599999795e+02
-3.431363004799999885e+02
-3.431213341700000115e+02
-3.421235022899999763e+02
-3.421191418999999883e+02
-3.421148952799999847e+02
-3.421109841400000278e+02
-3.421076936000000046e+02
-3.421053666799999746e+02
-3.421043712399999777e+02
-3.421050811800000133e+02
-3.421078446399999962e+02
-3.421129617799999778e+02
-3.427354977300000201e+02
-3.427256413299999736e+02
-3.427131618500000059e+02
-3.426982643399999802e+02
-3.426812084599999935e+02
-3.426623010399999885e+02
-3.426418802300000266e+02
-3.426203143199999772e+02
-3.425979843700000060e+02
-3.425752847100000054e+02
-3.430089009600000054e+02
-3.430117443699999740e+02
-3.430113011000000256e+02
-3.430077642800000035e+02
-3.430014483300000165e+02
-3.429927888500000108e+02
-3.429823201300000051e+02
-3.429706430900000100e+02
-3.429584082399999829e+02
-3.429462881200000197e+02
-3.431401331600000049e+02
-3.431311965900000018e+02
-3.431183556799999792e+02
-3.431018312699999910e+02
-3.430819363100000032e+02
-3.430590675500000089e+02
-3.430336841499999991e+02
-3.430063002900000129e+02
-3.429774666600000046e+02
-3.429477467300000058e+02
-3.431574120700000208e+02
-3.431548855500000172e+02
-3.431497954999999820e+02
-3.431423581899999817e+02
-3.431328735899999742e+02
-3.431217115200000194e+02
-3.431092995000000201e+02
-3.430961057200000255e+02
-3.430826105300000108e+02
-3.430692878099999916e+02
-3.434935390200000143e+02
-3.434920676200000003e+02
-3.434855786400000284e+02
-3.434742747899999813e+02
-3.434584945299999958e+02
-3.434386953399999811e+02
-3.434154304799999977e+02
-3.433893208000000072e+02
-3.433610362900000155e+02
-3.433312632700000222e+02
-3.428367304600000125e+02
-3.428340558200000032e+02
-3.428295944199999781e+02
-3.428235440400000016e+02
-3.428161963100000094e+02
-3.428079182199999764e+02
-3.427991422599999964e+02
-3.427903316100000097e+02
-3.427819651099999874e+02
-3.427745077399999900e+02
-3.433903491799999870e+02
-3.433878272499999866e+02
-3.433801088000000163e+02
-3.433674118000000135e+02
-3.433500772799999936e+02
-3.433285505800000124e+02
-3.433033657999999946e+02
-3.432751143400000160e+02
-3.432444269299999746e+02
-3.432119499500000188e+02
-3.431177182499999958e+02
-3.431224564099999839e+02
-3.431229439800000023e+02
-3.431192460699999742e+02
-3.431115563199999769e+02
-3.431001890000000003e+02
-3.430855608100000040e+02
-3.430681687200000169e+02
-3.430485637799999949e+02
-3.430273201100000051e+02
-3.426266995500000121e+02
-3.426270398899999918e+02
-3.426267303899999774e+02
-3.426258176800000115e+02
-3.426243966900000260e+02
-3.426225932500000226e+02
-3.426205795000000194e+02
-3.426185533699999723e+02
-3.426167374400000085e+02
-3.426153675499999736e+02
-3.427522240399999873e+02
-3.427505729700000074e+02
-3.427467521199999965e+02
-3.427408981500000209e+02
-3.427331984100000000e+02
-3.427238941400000272e+02
-3.427132592599999725e+02
-3.427016042100000277e+02
-3.426892547200000081e+02
-3.426765446900000143e+02
-3.431890159499999982e+02
-3.431846453399999746e+02
-3.431753059600000029e+02
-3.431613209199999801e+02
-3.431431556499999829e+02
-3.431213868699999807e+02
-3.430966903799999841e+02
-3.430698072000000138e+02
-3.430415203499999848e+02
-3.430126255800000195e+02
-3.427280705100000091e+02
-3.427205992400000127e+02
-3.427107474200000183e+02
-3.426986442400000215e+02
-3.426844886599999995e+02
-3.426685400700000059e+02
-3.426511065299999927e+02
-3.426325279499999965e+02
-3.426131746799999860e+02
-3.425934157799999866e+02
-3.411665288600000281e+02
-3.411824256799999944e+02
-3.412028559999999970e+02
-3.412276684400000022e+02
-3.412567041400000107e+02
-3.412897839199999908e+02
-3.413266870900000072e+02
-3.413671290799999838e+02
-3.414107494699999847e+02
-3.414570956700000011e+02
-3.423976177000000121e+02
-3.423946205299999974e+02
-3.423940953599999943e+02
-3.423961808199999837e+02
-3.424010280699999953e+02
-3.424087805600000252e+02
-3.424195588499999872e+02
-3.424334428000000230e+02
-3.424504519199999777e+02
-3.424705266899999856e+02
-3.426250196099999812e+02
-3.426240404499999954e+02
-3.426198849200000041e+02
-3.426127644300000270e+02
-3.426029937100000211e+02
-3.425909720299999890e+02
-3.425771651300000258e+02
-3.425620716399999992e+02
-3.425462130299999899e+02
-3.425300993199999766e+02
-3.425276806200000124e+02
-3.425301022900000021e+02
-3.425303971299999830e+02
-3.425285903000000189e+02
-3.425248011799999972e+02
-3.425192234099999951e+02
-3.425121217999999885e+02
-3.425038189200000147e+02
-3.424946662099999912e+02
-3.424850355699999795e+02
-3.424414598199999773e+02
-3.424387373499999967e+02
-3.424325403299999948e+02
-3.424230822399999852e+02
-3.424106783600000199e+02
-3.423957253699999796e+02
-3.423786963800000080e+02
-3.423601159099999904e+02
-3.423405392899999811e+02
-3.423205392500000244e+02
-3.431786917700000004e+02
-3.431804650999999922e+02
-3.431777884699999959e+02
-3.431708112100000108e+02
-3.431598103399999786e+02
-3.431451792799999794e+02
-3.431274123700000018e+02
-3.431070846999999731e+02
-3.430848249000000010e+02
-3.430612958199999980e+02
-3.417059058599999730e+02
-3.417101205999999820e+02
-3.417183775299999979e+02
-3.417305876899999930e+02
-3.417466213000000153e+02
-3.417663244199999895e+02
-3.417895103899999754e+02
-3.418159708399999772e+02
-3.418454665699999850e+02
-3.418777312799999777e+02
-3.427378396199999884e+02
-3.427426591500000086e+02
-3.427434866400000146e+02
-3.427404133000000002e+02
-3.427336772599999790e+02
-3.427236536300000012e+02
-3.427108338499999718e+02
-3.426958039699999858e+02
-3.426792153600000006e+02
-3.426617458599999964e+02
-3.406975592699999993e+02
-3.407049415399999930e+02
-3.407185058499999855e+02
-3.407380802999999787e+02
-3.407634277199999815e+02
-3.407942418800000155e+02
-3.408301516600000127e+02
-3.408707257600000275e+02
-3.409154683099999943e+02
-3.409638389500000244e+02
-3.427604562099999725e+02
-3.427611137499999927e+02
-3.427600097900000264e+02
-3.427572349999999801e+02
-3.427529720800000064e+02
-3.427474864100000218e+02
-3.427411092699999813e+02
-3.427342262399999981e+02
-3.427272446700000046e+02
-3.427205824399999869e+02
-3.430565267800000129e+02
-3.430513859399999888e+02
-3.430418475700000158e+02
-3.430281415000000038e+02
-3.430106407299999773e+02
-3.429898432900000103e+02
-3.429663446600000043e+02
-3.429408071999999947e+02
-3.429139324500000043e+02
-3.428864320999999791e+02
-3.424941959700000211e+02
-3.425022261199999889e+02
-3.425120999700000084e+02
-3.425237544500000126e+02
-3.425371918700000151e+02
-3.425524702800000227e+02
-3.425696869799999718e+02
-3.425889515999999730e+02
-3.426103631999999948e+02
-3.426339815900000190e+02
-3.427099416600000268e+02
-3.427066456100000096e+02
-3.427020120600000155e+02
-3.426961244299999976e+02
-3.426890916799999900e+02
-3.426810524699999974e+02
-3.426721641500000146e+02
-3.426626048699999956e+02
-3.426525625900000023e+02
-3.426422267400000123e+02
-3.431128427699999861e+02
-3.431166656600000238e+02
-3.431172322499999723e+02
-3.431145829100000242e+02
-3.431088538700000186e+02
-3.431002584700000284e+02
-3.430890867300000195e+02
-3.430756948999999736e+02
-3.430604847399999926e+02
-3.430438982000000010e+02
-3.430801023899999791e+02
-3.430857696200000078e+02
-3.430894360899999924e+02
-3.430912235200000282e+02
-3.430913794499999767e+02
-3.430902514200000155e+02
-3.430882748899999797e+02
-3.430859351600000196e+02
-3.430837374000000182e+02
-3.430821805900000072e+02
-3.416370316399999751e+02
-3.416305012000000261e+02
-3.416287178200000199e+02
-3.416320109399999865e+02
-3.416407293999999979e+02
-3.416552111400000058e+02
-3.416757513900000163e+02
-3.417025463200000104e+02
-3.417356533600000148e+02
-3.417749487899999963e+02
-3.425593523599999912e+02
-3.425536253299999885e+02
-3.425455489299999954e+02
-3.425353322999999932e+02
-3.425232445699999744e+02
-3.425095986200000198e+02
-3.424947480000000155e+02
-3.424790734200000202e+02
-3.424629633299999796e+02
-3.424468049399999927e+02
-3.431224500499999976e+02
-3.431180507600000169e+02
-3.431095856599999934e+02
-3.430972669700000210e+02
-3.430814207399999987e+02
-3.430624591200000282e+02
-3.430408693900000117e+02
-3.430171968000000220e+02
-3.429920228799999791e+02
-3.429659461400000282e+02
-3.430391663999999992e+02
-3.430430098699999917e+02
-3.430422572699999932e+02
-3.430369186199999945e+02
-3.430271412000000169e+02
-3.430131876199999965e+02
-3.429954340400000206e+02
-3.429743475999999873e+02
-3.429504654899999991e+02
-3.429243762099999913e+02
-3.426154531299999917e+02
-3.426162491900000191e+02
-3.426143277599999806e+02
-3.426097754099999975e+02
-3.426027571100000273e+02
-3.425935161099999959e+02
-3.425823620400000209e+02
-3.425696585900000173e+02
-3.425558104500000240e+02
-3.425412439599999743e+02
-3.423449989200000232e+02
-3.423659403500000167e+02
-3.423880954200000133e+02
-3.424110155199999781e+02
-3.424342927600000053e+02
-3.424575637699999788e+02
-3.424805245100000093e+02
-3.425029311700000108e+02
-3.425245951900000136e+02
-3.425453868299999840e+02
-3.430528724700000112e+02
-3.430577726800000278e+02
-3.430599037399999816e+02
-3.430592616700000121e+02
-3.430559296999999788e+02
-3.430500791200000208e+02
-3.430419593899999882e+02
-3.430318872899999860e+02
-3.430202410499999814e+02
-3.430074430000000234e+02
-3.425512234099999773e+02
-3.425463525200000277e+02
-3.425363471699999991e+02
-3.425215046499999971e+02
-3.425022771499999976e+02
-3.424792530199999874e+02
-3.424531244899999933e+02
-3.424246587700000077e+02
-3.423946678199999951e+02
-3.423639772700000208e+02
-3.423111730699999953e+02
-3.423090696799999932e+02
-3.423057419799999934e+02
-3.423014688499999920e+02
-3.422966583499999729e+02
-3.422918145900000013e+02
-3.422875115100000016e+02
-3.422843591299999844e+02
-3.422829521799999952e+02
-3.422838465199999973e+02
-3.423691807100000233e+02
-3.423702779299999861e+02
-3.423700570600000219e+02
-3.423685524699999974e+02
-3.423658418599999891e+02
-3.423620569199999863e+02
-3.423573623999999995e+02
-3.423519495599999800e+02
-3.423460216500000115e+02
-3.423397830399999862e+02
-3.425052502500000173e+02
-3.424956787300000087e+02
-3.424845656200000121e+02
-3.424721189699999968e+02
-3.424586140200000273e+02
-3.424443765199999916e+02
-3.424297811600000045e+02
-3.424152400400000147e+02
-3.424011928900000044e+02
-3.423880858399999738e+02
-3.430356854899999917e+02
-3.430348658500000170e+02
-3.430300296500000172e+02
-3.430213725400000158e+02
-3.430092155699999807e+02
-3.429939915699999915e+02
-3.429762152100000208e+02
-3.429564666300000226e+02
-3.429353679499999998e+02
-3.429135608999999931e+02
-3.423578698700000018e+02
-3.423574440300000106e+02
-3.423558317399999851e+02
-3.423531987499999900e+02
-3.423498347400000057e+02
-3.423461206200000220e+02
-3.423425050999999826e+02
-3.423394768599999907e+02
-3.423375217299999917e+02
-3.423371055700000056e+02
-3.422111622699999884e+02
-3.422076336499999911e+02
-3.422030841000000123e+02
-3.421975765999999908e+02
-3.421912230699999782e+02
-3.421841912699999853e+02
-3.421767011200000184e+02
-3.421690153700000110e+02
-3.421614296999999851e+02
-3.421542698800000153e+02
-3.424279743899999744e+02
-3.424229531199999883e+02
-3.424137966299999789e+02
-3.424007994300000064e+02
-3.423843564599999922e+02
-3.423649492499999951e+02
-3.423431201299999884e+02
-3.423194526500000165e+02
-3.422945491500000230e+02
-3.422690028800000164e+02
-3.405176144600000043e+02
-3.405413472700000170e+02
-3.405716717700000231e+02
-3.406079623300000208e+02
-3.406495614099999898e+02
-3.406957869199999891e+02
-3.407459225399999809e+02
-3.407992302700000096e+02
-3.408549533099999849e+02
-3.409123156800000061e+02
-3.421368964900000265e+02
-3.421516090299999746e+02
-3.421695245299999897e+02
-3.421904767199999924e+02
-3.422143096400000104e+02
-3.422408801400000016e+02
-3.422700365300000271e+02
-3.423016177900000230e+02
-3.423354333300000008e+02
-3.423712576799999852e+02
-3.428151931099999956e+02
-3.428129161499999782e+02
-3.428078801400000089e+02
-3.428003269000000159e+02
-3.427905793799999969e+02
-3.427790341799999965e+02
-3.427661444899999879e+02
-3.427524011400000177e+02
-3.427383216100000141e+02
-3.427244269500000087e+02
-3.421168016799999805e+02
-3.421228798000000211e+02
-3.421305215599999769e+02
-3.421395719099999724e+02
-3.421499426799999810e+02
-3.421616138699999965e+02
-3.421746190000000070e+02
-3.421890335599999844e+02
-3.422049554800000237e+02
-3.422224785700000211e+02
-3.430357708700000217e+02
-3.430327799600000276e+02
-3.430249239500000158e+02
-3.430124714199999971e+02
-3.429958245199999851e+02
-3.429755021199999874e+02
-3.429521092699999940e+02
-3.429263146399999869e+02
-3.428988258499999802e+02
-3.428703626800000279e+02
-3.428455769700000246e+02
-3.428404685099999938e+02
-3.428319847700000196e+02
-3.428203043699999739e+02
-3.428056916900000033e+02
-3.427884975399999803e+02
-3.427691437500000120e+02
-3.427481040600000028e+02
-3.427259019599999874e+02
-3.427030862500000126e+02
-3.424080548399999770e+02
-3.424194868600000063e+02
-3.424310186199999748e+02
-3.424425115999999889e+02
-3.424538864300000114e+02
-3.424651353799999924e+02
-3.424762923800000181e+02
-3.424874405900000056e+02
-3.424986780199999998e+02
-3.425101175300000023e+02
-3.420901288800000088e+02
-3.421077488299999914e+02
-3.421258574199999885e+02
-3.421440355600000203e+02
-3.421619825899999796e+02
-3.421795215899999789e+02
-3.421965976600000090e+02
-3.422132679200000211e+02
-3.422296758499999783e+02
-3.422460218300000179e+02
-3.423157107900000256e+02
-3.423451732999999990e+02
-3.423767524500000263e+02
-3.424096921199999883e+02
-3.424432459099999733e+02
-3.424767145999999798e+02
-3.425094776500000080e+02
-3.425410015400000248e+02
-3.425708730100000139e+02
-3.425987991700000066e+02
-3.430999934100000246e+02
-3.430949498900000094e+02
-3.430850843000000054e+02
-3.430707151500000123e+02
-3.430522925999999870e+02
-3.430303724099999840e+02
-3.430055956499999752e+02
-3.429786598300000264e+02
-3.429502846500000146e+02
-3.429211882000000173e+02
-3.429532274499999858e+02
-3.429473093799999788e+02
-3.429385166399999889e+02
-3.429270883400000116e+02
-3.429133321599999817e+02
-3.428976107099999808e+02
-3.428803381800000238e+02
-3.428619577499999878e+02
-3.428429315700000188e+02
-3.428237318100000266e+02
-3.428905680500000130e+02
-3.428817678500000170e+02
-3.428698570799999743e+02
-3.428550713199999791e+02
-3.428377404400000046e+02
-3.428182768400000100e+02
-3.427971493300000247e+02
-3.427748811499999988e+02
-3.427520153899999968e+02
-3.427291057900000055e+02
-3.427956338100000266e+02
-3.427900586999999746e+02
-3.427813670300000126e+02
-3.427696678699999779e+02
-3.427551600900000039e+02
-3.427381169099999738e+02
-3.427188732999999843e+02
-3.426978164299999889e+02
-3.426753644799999847e+02
-3.426519594600000005e+02
-3.419176493499999765e+02
-3.419228707500000155e+02
-3.419276848700000073e+02
-3.419320369000000142e+02
-3.419359087999999929e+02
-3.419393133899999953e+02
-3.419423008699999968e+02
-3.419449495000000070e+02
-3.419473688100000004e+02
-3.419496924900000181e+02
-3.431361106300000188e+02
-3.431358528700000079e+02
-3.431314045099999817e+02
-3.431229122299999972e+02
-3.431106386999999813e+02
-3.430949500199999989e+02
-3.430763030800000024e+02
-3.430552255700000046e+02
-3.430322895900000049e+02
-3.430080978899999877e+02
-3.423973708600000236e+02
-3.424045011100000124e+02
-3.424088370100000134e+02
-3.424103859800000009e+02
-3.424092320899999891e+02
-3.424055283499999973e+02
-3.423994960800000058e+02
-3.423914121999999907e+02
-3.423816053400000214e+02
-3.423704336600000033e+02
-3.408521903399999928e+02
-3.408509786299999860e+02
-3.408584605699999770e+02
-3.408746171500000059e+02
-3.408993787900000143e+02
-3.409325863899999831e+02
-3.409739690100000189e+02
-3.410231124000000023e+02
-3.410794309999999996e+02
-3.411421338900000251e+02
-3.422092062099999907e+02
-3.422139313399999878e+02
-3.422167968599999881e+02
-3.422178327099999819e+02
-3.422171405799999775e+02
-3.422148879100000158e+02
-3.422112997099999916e+02
-3.422066433800000027e+02
-3.422012209499999926e+02
-3.421953484499999831e+02
-3.429403938899999957e+02
-3.429368129499999895e+02
-3.429301347499999792e+02
-3.429205944400000021e+02
-3.429085321200000180e+02
-3.428943875599999842e+02
-3.428786726000000158e+02
-3.428619517800000267e+02
-3.428448192500000005e+02
-3.428278718899999831e+02
-3.430523921399999949e+02
-3.430513536700000259e+02
-3.430481542599999898e+02
-3.430429243300000053e+02
-3.430358694199999832e+02
-3.430272592300000269e+02
-3.430174165500000072e+02
-3.430066962999999873e+02
-3.429954740100000095e+02
-3.429841235700000084e+02
-3.429123453099999779e+02
-3.429140342000000032e+02
-3.429118295100000182e+02
-3.429059113700000125e+02
-3.428965717099999893e+02
-3.428842099099999814e+02
-3.428693140600000220e+02
-3.428524427300000070e+02
-3.428342022799999995e+02
-3.428152221600000189e+02
-3.421930326899999955e+02
-3.421925931200000264e+02
-3.421875428299999840e+02
-3.421780315799999812e+02
-3.421643462100000193e+02
-3.421468946800000026e+02
-3.421261957799999891e+02
-3.421028456099999744e+02
-3.420774989700000219e+02
-3.420508404600000176e+02
-3.422009475899999984e+02
-3.422091614799999775e+02
-3.422167464099999847e+02
-3.422236306500000182e+02
-3.422297987100000114e+02
-3.422353136199999994e+02
-3.422402971399999956e+02
-3.422449427000000242e+02
-3.422494985000000156e+02
-3.422542637899999818e+02
-3.433324213099999724e+02
-3.433337342400000125e+02
-3.433306481399999939e+02
-3.433233353499999794e+02
-3.433120952799999941e+02
-3.432973446199999898e+02
-3.432795930199999930e+02
-3.432594205099999840e+02
-3.432374631100000215e+02
-3.432143871000000104e+02
-3.430991260900000270e+02
-3.430986116400000014e+02
-3.430945203699999979e+02
-3.430870153600000094e+02
-3.430763417000000004e+02
-3.430628255699999727e+02
-3.430468564500000070e+02
-3.430288587800000073e+02
-3.430092902200000253e+02
-3.429886078399999860e+02
-3.418473111499999959e+02
-3.418614012400000206e+02
-3.418783787300000085e+02
-3.418980217499999981e+02
-3.419200890500000014e+02
-3.419443221799999719e+02
-3.419704542399999809e+02
-3.419982133899999894e+02
-3.420273342500000240e+02
-3.420575559800000178e+02
-3.422896546900000203e+02
-3.422814703199999826e+02
-3.422743459399999892e+02
-3.422685274400000139e+02
-3.422643238499999825e+02
-3.422620996300000229e+02
-3.422622391799999946e+02
-3.422651340499999719e+02
-3.422711343799999781e+02
-3.422805417899999725e+02
-3.427753547300000037e+02
-3.427743591999999921e+02
-3.427716904299999783e+02
-3.427674367800000255e+02
-3.427617415899999855e+02
-3.427547933999999827e+02
-3.427468312199999900e+02
-3.427381216200000154e+02
-3.427289655899999730e+02
-3.427196759799999768e+02
-3.428967208600000163e+02
-3.428959606500000064e+02
-3.428924295900000061e+02