1.935418365560830078e-01 8.175483483637363546e-01 3.121117536165554651e-02 8.175483483637363546e-01 2.145940094158972578e+00 -3.822157424010665938e+00 3.121117536165554651e-02 -3.822157424010665938e+00 -4.276075688163781807e-01
2.499787301271878537e-01 8.704229003669117226e-01 2.443187661131680788e-01 8.704229003669117226e-01 2.064910385702670048e+00 -3.850619990649858160e+00 2.443187661131680788e-01 -3.850619990649858160e+00 -4.578965136198387409e-01
3.173919756360243927e-01 9.228272956149288220e-01 4.606993711986664408e-01 9.228272956149288220e-01 1.996791905061096273e+00 -3.884760604255191208e+00 4.606993711986664408e-01 -3.884760604255191208e+00 -4.698131790678868325e-01
3.954741628965277034e-01 9.744541239217230366e-01 6.802625758575434611e-01 9.744541239217230366e-01 1.942326053271231201e+00 -3.924362269401208358e+00 6.802625758575434611e-01 -3.924362269401208358e+00 -4.633213992562794648e-01
4.830860659250451050e-01 1.024995975101228973e+00 9.024116426697903481e-01 1.024995975101228973e+00 1.901115005386403656e+00 -3.969316488375180363e+00 9.024116426697903481e-01 -3.969316488375180363e+00 -4.397954785462482863e-01
5.784736383657942405e-01 1.074055024206774567e+00 1.126495585359034601e+00 1.074055024206774567e+00 1.872399277417510666e+00 -4.019370099847407118e+00 1.126495585359034601e+00 -4.019370099847407118e+00 -4.012968734796407144e-01
6.797562531981423684e-01 1.121378109908658827e+00 1.351827251744660119e+00 1.121378109908658827e+00 1.855057726333021906e+00 -4.074324191344551593e+00 1.351827251744660119e+00 -4.074324191344551593e+00 -3.503210314492194999e-01
7.848182050238773355e-01 1.166657822020817470e+00 1.577755655550294289e+00 1.166657822020817470e+00 1.847770296628069797e+00 -4.133961767441156177e+00 1.577755655550294289e+00 -4.133961767441156177e+00 -2.896708100338123981e-01
8.915618713969090114e-01 1.209659082165670752e+00 1.803720225260171173e+00 1.209659082165670752e+00 1.849180766893544492e+00 -4.198047749759641789e+00 1.803720225260171173e+00 -4.198047749759641789e+00 -2.222394815728543638e-01
9.978353810147825298e-01 1.250219143774125685e+00 2.029232721167011366e+00 1.250219143774125685e+00 1.857661671438513462e+00 -4.266437474683038467e+00 2.029232721167011366e+00 -4.266437474683038467e+00 -1.513723922088172635e-01
2.824654357470144106e+01 -2.358061270024024714e-01 1.771503133242342098e+00 -2.358061270024024714e-01 8.435433955819139129e+00 -1.275332878104544498e+01 1.771503133242342098e+00 -1.275332878104544498e+01 -1.601382154642874411e+01
2.823416093879837874e+01 -3.254328249673983375e-01 1.716898031770845323e+00 -3.254328249673983375e-01 8.600553636021398773e+00 -1.280352044663230160e+01 1.716898031770845323e+00 -1.280352044663230160e+01 -1.580646153249657004e+01
2.825049243838769542e+01 -4.111463955690899952e-01 1.660291696214005741e+00 -4.111463955690899952e-01 8.802410256218877294e+00 -1.283898874716270733e+01 1.660291696214005741e+00 -1.283898874716270733e+01 -1.552528814350590736e+01
2.829543086450052769e+01 -4.926788163853332292e-01 1.601326763342298065e+00 -4.926788163853332292e-01 9.040503507890242929e+00 -1.285950139653747293e+01 1.601326763342298065e+00 -1.285950139653747293e+01 -1.517242769067242669e+01
2.836786839112534864e+01 -5.696905923480789502e-01 1.539735210733577775e+00 -5.696905923480789502e-01 9.313100179372295173e+00 -1.286493331762626013e+01 1.539735210733577775e+00 -1.286493331762626013e+01 -1.475066760718643089e+01
2.846655424695881464e+01 -6.419137010351828598e-01 1.475302620450129609e+00 -6.419137010351828598e-01 9.618145432095264624e+00 -1.285521303778316771e+01 1.475302620450129609e+00 -1.285521303778316771e+01 -1.426331350292102407e+01
2.858973735217625389e+01 -7.090622518630247395e-01 1.407635892939475886e+00 -7.090622518630247395e-01 9.953227064259850820e+00 -1.283041202965409688e+01 1.407635892939475886e+00 -1.283041202965409688e+01 -1.371460013214609397e+01
2.873523779107756226e+01 -7.709575632168416126e-01 1.336484873940948503e+00 -7.709575632168416126e-01 1.031568271980609275e+01 -1.279070897485381408e+01 1.336484873940948503e+00 -1.279070897485381408e+01 -1.310906600787660636e+01
2.890307343182421462e+01 -8.272958763515370073e-01 1.261510068386498151e+00 -8.272958763515370073e-01 1.070465472698312581e+01 -1.273621108235117383e+01 1.261510068386498151e+00 -1.273621108235117383e+01 -1.244806911038476116e+01
2.908613274614864963e+01 -8.782380047203972584e-01 1.182443453853980975e+00 -8.782380047203972584e-01 1.111342465707586946e+01 -1.266731145169865691e+01 1.182443453853980975e+00 -1.266731145169865691e+01 -1.174388486660476083e+01
-5.435360674762706346e+00 1.280972532215723048e+00 -9.868723529094829416e-01 1.280972532215723048e+00 -1.356184011468449313e+01 -4.682473048128524162e+00 -9.868723529094829416e-01 -4.682473048128524162e+00 -2.794512928177399047e+01
-5.466439646348029591e+00 1.260584432442757086e+00 -9.098649543987769039e-01 1.260584432442757086e+00 -1.345220807637462812e+01 -4.626221765632173799e+00 -9.098649543987769039e-01 -4.626221765632173799e+00 -2.784521287223680019e+01
-5.456061588340852531e+00 1.238172243342150036e+00 -8.294534056552200774e-01 1.238172243342150036e+00 -1.329834048584977069e+01 -4.570301697753073711e+00 -8.294534056552200774e-01 -4.570301697753073711e+00 -2.763634525443631773e+01
-5.403895286123923114e+00 1.213901572222527259e+00 -7.457297107391597235e-01 1.213901572222527259e+00 -1.310025574392199488e+01 -4.514676042867084682e+00 -7.457297107391597235e-01 -4.514676042867084682e+00 -2.731972248115705426e+01
-5.310621569743810610e+00 1.187993228828722270e+00 -6.590250842678463394e-01 1.187993228828722270e+00 -1.285933391149650440e+01 -4.459455205846622583e+00 -6.590250842678463394e-01 -4.459455205846622583e+00 -2.689736864172665065e+01
-5.177344487924684380e+00 1.160668022905568808e+00 -5.697443441068079650e-01 1.160668022905568808e+00 -1.257728626409576300e+01 -4.404804794000316548e+00 -5.697443441068079650e-01 -4.404804794000316548e+00 -2.637211746120380695e+01
-5.005407299947614241e+00 1.132146764197899724e+00 -4.783107089336422479e-01 1.132146764197899724e+00 -1.225595288292671547e+01 -4.350890414636786829e+00 -4.783107089336422479e-01 -4.350890414636786829e+00 -2.574720748251274927e+01
-4.796558082959200497e+00 1.102723865698827188e+00 -3.851657982380164436e-01 1.102723865698827188e+00 -1.189767067112218690e+01 -4.297804071816383242e+00 -3.851657982380164436e-01 -4.297804071816383242e+00 -2.502676048755703064e+01
-4.552710521414666367e+00 1.072601736341114886e+00 -2.908064339458060199e-01 1.072601736341114886e+00 -1.150477653181499527e+01 -4.245784976096008911e+00 -2.908064339458060199e-01 -4.245784976096008911e+00 -2.421500866311263422e+01
-4.275778299769235957e+00 1.042074789117874545e+00 -1.956926363587475903e-01 1.042074789117874545e+00 -1.107966257057417181e+01 -4.194961933160150203e+00 -1.956926363587475903e-01 -4.194961933160150203e+00 -2.331612899351932811e+01
-2.799347113845647783e+01 1.225082603440717222e+01 1.789806932118878757e+00 1.225082603440717222e+01 -5.051116076165553803e-01 -2.051825248893060305e+01 1.789806932118878757e+00 -2.051825248893060305e+01 -2.220240209708747159e+01
-2.789118270604336303e+01 1.229641713267599101e+01 1.875010271676889939e+00 1.229641713267599101e+01 -4.203154967073116643e-01 -2.050092676096486244e+01 1.875010271676889939e+00 -2.050092676096486244e+01 -2.194153512676571793e+01
-2.773782409899619239e+01 1.233584427003392392e+01 1.959695320227378579e+00 1.233584427003392392e+01 -3.116779994520506580e-01 -2.046149962360692953e+01 1.959695320227378579e+00 -2.046149962360692953e+01 -2.158778300373874615e+01
-2.753415424343312523e+01 1.236894085294283663e+01 2.044028671308477652e+00 1.236894085294283663e+01 -1.798469796101748452e-01 -2.039980448331867535e+01 2.044028671308477652e+00 -2.039980448331867535e+01 -2.114457015073483248e+01
-2.728133929412108927e+01 1.239544773589896742e+01 2.127991814527060654e+00 1.239544773589896742e+01 -2.589603998298009926e-02 -2.031576729852758589e+01 2.127991814527060654e+00 -2.031576729852758589e+01 -2.061450653318471282e+01
-2.698080455133076327e+01 1.241514279418480804e+01 2.211510708310624462e+00 1.241514279418480804e+01 1.489901542694830605e-01 -2.020922147569554284e+01 2.211510708310624462e+00 -2.020922147569554284e+01 -2.000053530359538456e+01
-2.663464168948536681e+01 1.242780390308284844e+01 2.294529821479792453e+00 1.242780390308284844e+01 3.432937509108998642e-01 -2.008003744207065111e+01 2.294529821479792453e+00 -2.008003744207065111e+01 -1.930630300941263400e+01
-2.624503493497373796e+01 1.243322744826870618e+01 2.376956602068934998e+00 1.243322744826870618e+01 5.554783873118297466e-01 -1.992810413529416991e+01 2.376956602068934998e+00 -1.992810413529416991e+01 -1.853564130201349869e+01
-2.581450170126099053e+01 1.243124683620424520e+01 2.458661477326171685e+00 1.243124683620424520e+01 7.838411073046999133e-01 -1.975319943064857853e+01 2.458661477326171685e+00 -1.975319943064857853e+01 -1.769267799906502248e+01
-2.534581854731599293e+01 1.242167696295821244e+01 2.539477853713370425e+00 1.242167696295821244e+01 1.026567892363183132e+00 -1.955523077616825844e+01 2.539477853713370425e+00 -1.955523077616825844e+01 -1.678180006373802868e+01
2.714570641517817862e+01 1.246898755682800619e+01 1.854947839996836478e+01 1.246898755682800619e+01 6.499906847232889362e+00 1.015694051011561427e+01 1.854947839996836478e+01 1.015694051011561427e+01 4.451333383567701674e+01
2.704273189763715735e+01 1.246154021382846899e+01 1.860178627828740261e+01 1.246154021382846899e+01 6.461628916033835601e+00 1.018664164345264034e+01 1.860178627828740261e+01 1.018664164345264034e+01 4.432392072569110297e+01
2.685785425483343047e+01 1.243009195500103026e+01 1.860602173402173776e+01 1.243009195500103026e+01 6.385990735711501998e+00 1.017742952723046024e+01 1.860602173402173776e+01 1.017742952723046024e+01 4.396491290900952720e+01
2.659206175977167774e+01 1.237480160993573186e+01 1.856193769892020029e+01 1.237480160993573186e+01 6.273045249462565920e+00 1.012859825216002285e+01 1.856193769892020029e+01 1.012859825216002285e+01 4.343812810205159991e+01
2.624644857184993540e+01 1.229623390606381506e+01 1.846951652525056176e+01 1.229623390606381506e+01 6.122368911713595097e+00 1.003958309081007982e+01 1.846951652525056176e+01 1.003958309081007982e+01 4.274561344175558730e+01
2.582256769150412268e+01 1.219537711638995958e+01 1.832928764497961893e+01 1.219537711638995958e+01 5.933202869978853933e+00 9.910189918126143027e+00 1.832928764497961893e+01 9.910189918126143027e+00 4.189006903115212310e+01
2.532273097165590414e+01 1.207371365042118505e+01 1.814218638791536620e+01 1.207371365042118505e+01 5.704770624040381932e+00 9.740506972769344074e+00 1.814218638791536620e+01 9.740506972769344074e+00 4.087495382575759351e+01
2.474956792440700681e+01 1.193304357684458061e+01 1.790976575449372632e+01 1.193304357684458061e+01 5.436066253161273565e+00 9.530993095777567703e+00 1.790976575449372632e+01 9.530993095777567703e+00 3.970457387223522261e+01
2.410653750527380978e+01 1.177562580538512726e+01 1.763405523392074059e+01 1.177562580538512726e+01 5.126348552588019913e+00 9.282530673762135365e+00 1.763405523392074059e+01 9.282530673762135365e+00 3.838408230839512925e+01
2.339771634040060633e+01 1.160408984814455557e+01 1.731740197458251274e+01 1.160408984814455557e+01 4.774788078905982225e+00 8.996372695711121636e+00 1.731740197458251274e+01 8.996372695711121636e+00 3.692002644289329538e+01
-4.965135079027177767e+01 -7.089244809143135484e+00 -5.649071953744826402e+00 -7.089244809143135484e+00 -5.093154545624209817e+01 4.789184328325355011e+00 -5.649071953744826402e+00 4.789184328325355011e+00 -5.878866225986822514e+01
-4.957499491409349446e+01 -7.082405809546505893e+00 -5.618665606106400645e+00 -7.082405809546505893e+00 -5.073469107012545720e+01 4.863072724535537183e+00 -5.618665606106400645e+00 4.863072724535537183e+00 -5.835537666326467843e+01
-4.943382397355623681e+01 -7.073118758957899210e+00 -5.579108210712256266e+00 -7.073118758957899210e+00 -5.047121472487005889e+01 4.928878666676975051e+00 -5.579108210712256266e+00 4.928878666676975051e+00 -5.772813159798739235e+01
-4.922882884644247525e+01 -7.061286512496684153e+00 -5.530380338586266653e+00 -7.061286512496684153e+00 -5.014255416470928139e+01 4.986543867821287002e+00 -5.530380338586266653e+00 4.986543867821287002e+00 -5.691275575687439670e+01
-4.896088383667790822e+01 -7.046870212210606610e+00 -5.472734566418080426e+00 -7.046870212210606610e+00 -4.974981684128234605e+01 5.035602032541432571e+00 -5.472734566418080426e+00 5.035602032541432571e+00 -5.591237720508210884e+01
-4.863138783054368020e+01 -7.029675568338396907e+00 -5.406481757825726930e+00 -7.029675568338396907e+00 -4.929479022039292602e+01 5.075567436434239355e+00 -5.406481757825726930e+00 5.075567436434239355e+00 -5.473247491387827779e+01
-4.824306088469752751e+01 -7.009488862142662313e+00 -5.332010492331740181e+00 -7.009488862142662313e+00 -4.878083551491095449e+01 5.106032071001045836e+00 -5.332010492331740181e+00 5.106032071001045836e+00 -5.338295766108757334e+01
-4.779687444794579676e+01 -6.986212948742767992e+00 -5.249709349458657748e+00 -6.986212948742767992e+00 -4.820964304575944936e+01 5.126374209005795990e+00 -5.249709349458657748e+00 5.126374209005795990e+00 -5.186621521077358210e+01
-4.729440226735475505e+01 -6.959517535544558875e+00 -5.160336059275424603e+00 -6.959517535544558875e+00 -4.758344714519301277e+01 5.136282986830457808e+00 -5.160336059275424603e+00 5.136282986830457808e+00 -5.019036887495731492e+01
-4.674710743883920827e+01 -6.929558054357047858e+00 -5.064104340519432590e+00 -6.929558054357047858e+00 -4.691460464202825875e+01 5.135194964167358656e+00 -5.064104340519432590e+00 5.135194964167358656e+00 -4.838493126837535385e+01
1.445104610349009278e+00 1.188107719447454613e+01 -1.103360340936706940e+01 1.188107719447454613e+01 4.468877301835640026e+01 -7.963210699717139462e+00 -1.103360340936706940e+01 -7.963210699717139462e+00 4.197533897958448534e+01
1.357490037474284206e+00 1.175554959808595434e+01 -1.115505509219902613e+01 1.175554959808595434e+01 4.467758182466857164e+01 -8.022856072668751892e+00 -1.115505509219902613e+01 -8.022856072668751892e+00 4.182393284582985160e+01
1.244559122206842394e+00 1.162304727030949891e+01 -1.125310540926616909e+01 1.162304727030949891e+01 4.457882876388476490e+01 -8.084961048628677815e+00 -1.125310540926616909e+01 -8.084961048628677815e+00 4.151490129642812121e+01
1.106944333891678678e+00 1.148504597295017149e+01 -1.132785977212599704e+01 1.148504597295017149e+01 4.439325171690747851e+01 -8.148858021066089918e+00 -1.132785977212599704e+01 -8.148858021066089918e+00 4.105003632785679457e+01
9.445226923783773820e-01 1.134312687937045894e+01 -1.137931818077850643e+01 1.134312687937045894e+01 4.412150072167462866e+01 -8.213896952043077349e+00 -1.137931818077850643e+01 -8.213896952043077349e+00 4.043123534815084241e+01
7.568725514369420981e-01 1.119901171167618159e+01 -1.140723467492286858e+01 1.119901171167618159e+01 4.376457718798244656e+01 -8.279357529250059855e+00 -1.140723467492286858e+01 -8.279357529250059855e+00 3.966087011735400836e+01
5.434141475011270428e-01 1.105433434900857215e+01 -1.141139843144408594e+01 1.105433434900857215e+01 4.332425554371550902e+01 -8.344484303191631369e+00 -1.141139843144408594e+01 -8.344484303191631369e+00 3.874196243344792379e+01
3.034271682613547960e-01 1.091081651347345627e+01 -1.139156349004132629e+01 1.091081651347345627e+01 4.280271429439545727e+01 -8.408627235929873933e+00 -1.139156349004132629e+01 -8.408627235929873933e+00 3.767825440672383053e+01
3.608588985054847487e-02 1.077007451561915019e+01 -1.134739604744917685e+01 1.077007451561915019e+01 4.220279955207477940e+01 -8.471083583748130863e+00 -1.134739604744917685e+01 -8.471083583748130863e+00 3.647427873415416144e+01
-2.594178430054522311e-01 1.063367196021522609e+01 -1.127863257477388537e+01 1.063367196021522609e+01 4.152797232955801832e+01 -8.531308720265988299e+00 -1.127863257477388537e+01 -8.531308720265988299e+00 3.513535869939264700e+01
5.409615511250414066e+00 4.244187803833700201e+00 6.104089392177543871e+00 4.244187803833700201e+00 1.967034320241896950e+00 -6.659075624706280117e+00 6.104089392177543871e+00 -6.659075624706280117e+00 -8.974729651396252450e+00
5.440632850197109072e+00 4.221105553347144657e+00 6.050622440776423971e+00 4.221105553347144657e+00 1.956894036355477207e+00 -6.564451050472045246e+00 6.050622440776423971e+00 -6.564451050472045246e+00 -8.962890282509256679e+00
5.493123731491516004e+00 4.194010570199653287e+00 5.986888677882458154e+00 4.194010570199653287e+00 1.975403217638353359e+00 -6.470874847833911758e+00 5.986888677882458154e+00 -6.470874847833911758e+00 -8.898560032327853975e+00
5.566853175293128508e+00 4.163101683487037796e+00 5.912761575889220467e+00 4.163101683487037796e+00 2.022616090207564277e+00 -6.378148187696066174e+00 5.912761575889220467e+00 -6.378148187696066174e+00 -8.783130704522731591e+00
5.660592056282380824e+00 4.128668099166843852e+00 5.828241134796712686e+00 4.128668099166843852e+00 2.097375830232930838e+00 -6.286108391707389664e+00 5.828241134796712686e+00 -6.286108391707389664e+00 -8.618735193030781616e+00
5.772659364831044471e+00 4.091053249313654661e+00 5.733273128487893722e+00 4.091053249313654661e+00 2.198109880320302523e+00 -6.194574706144416076e+00 5.733273128487893722e+00 -6.194574706144416076e+00 -8.408410160406225131e+00
5.900904131629877369e+00 4.050528264512670340e+00 5.627749104728684060e+00 4.050528264512670340e+00 2.322576894298705064e+00 -6.103257925049602406e+00 5.627749104728684060e+00 -6.103257925049602406e+00 -8.155915284097147833e+00
6.043193462741987432e+00 4.007400426093782109e+00 5.511578686657351511e+00 4.007400426093782109e+00 2.468571676741859289e+00 -6.011796540976014569e+00 5.511578686657351511e+00 -6.011796540976014569e+00 -7.865209070647445344e+00
6.197231785879360189e+00 3.961940864642186977e+00 5.384508819061044171e+00 3.961940864642186977e+00 2.633654052382978783e+00 -5.919810971104378261e+00 5.384508819061044171e+00 -5.919810971104378261e+00 -7.540485006441518756e+00
6.360524699658170356e+00 3.914384559998390856e+00 5.246322597471603899e+00 3.914384559998390856e+00 2.815148866114774329e+00 -5.826795105008987008e+00 5.246322597471603899e+00 -5.826795105008987008e+00 -7.186442688289474745e+00
3.534293767894555316e+01 -1.205524042177736277e+01 2.162729545232203954e+00 -1.205524042177736277e+01 4.687543971316370772e+01 -8.813195854028148091e+00 2.162729545232203954e+00 -8.813195854028148091e+00 1.688648403457459679e+01
3.534933011993256002e+01 -1.192588034560837151e+01 1.931733131522621827e+00 -1.192588034560837151e+01 4.675436549120883711e+01 -8.743243789205733307e+00 1.931733131522621827e+00 -8.743243789205733307e+00 1.671743176369012929e+01
3.534391044170444474e+01 -1.178283210776069367e+01 1.692919874214805720e+00 -1.178283210776069367e+01 4.661531252897803768e+01 -8.673482802782384482e+00 1.692919874214805720e+00 -8.673482802782384482e+00 1.649459960884981058e+01
3.532660916120702410e+01 -1.162701635870256744e+01 1.446567705525581671e+00 -1.162701635870256744e+01 4.645920147693953339e+01 -8.604364534610446924e+00 1.446567705525581671e+00 -8.604364534610446924e+00 1.621911666968450660e+01
3.529643614491784120e+01 -1.145980538875457277e+01 1.193423568287670600e+00 -1.145980538875457277e+01 4.628632763807370765e+01 -8.536219029197400943e+00 1.193423568287670600e+00 -8.536219029197400943e+00 1.589183411360823328e+01
3.525196699022566804e+01 -1.128269308358214751e+01 9.344254837328597185e-01 -1.128269308358214751e+01 4.609660415856279769e+01 -8.469185252651659113e+00 9.344254837328597185e-01 -8.469185252651659113e+00 1.551308198512848158e+01
3.519181203604637176e+01 -1.109713858732363079e+01 6.704767315658342053e-01 -1.109713858732363079e+01 4.588985733077129225e+01 -8.403280575736772562e+00 6.704767315658342053e-01 -8.403280575736772562e+00 1.508299925035366407e+01
3.511418209373413646e+01 -1.090472263946221965e+01 4.025153330183820488e-01 -1.090472263946221965e+01 4.566560077331974554e+01 -8.338348661580777588e+00 4.025153330183820488e-01 -8.338348661580777588e+00 1.460129060630339914e+01
3.501742694075154816e+01 -1.070697386719045774e+01 1.314098262680847562e-01 -1.070697386719045774e+01 4.542334810482870466e+01 -8.274111577966847264e+00 1.314098262680847562e-01 -8.274111577966847264e+00 1.406745230083468812e+01
3.489803768286120089e+01 -1.050573357144481790e+01 -1.422665534878538307e-01 -1.050573357144481790e+01 4.516084112603646616e+01 -8.209961348170676132e+00 -1.422665534878538307e-01 -8.209961348170676132e+00 1.347863552872506965e+01
4.041126722988413889e+01 -8.429049267293937220e+00 -7.002903575315049700e+00 -8.429049267293937220e+00 3.244743144792697365e+01 1.388154063445927022e+01 -7.002903575315049700e+00 1.388154063445927022e+01 5.754089000240490748e+01
4.044080514240180690e+01 -8.459589050528581566e+00 -6.985491753199370102e+00 -8.459589050528581566e+00 3.234318507246256758e+01 1.375090014769251923e+01 -6.985491753199370102e+00 1.375090014769251923e+01 5.745564462329689803e+01
4.037716907824092516e+01 -8.468916812376267700e+00 -6.941478536184735759e+00 -8.468916812376267700e+00 3.216815134875405136e+01 1.356823147817534725e+01 -6.941478536184735759e+00 1.356823147817534725e+01 5.714440830297913010e+01
4.021956445028114757e+01 -8.456911637405635673e+00 -6.870570272509276322e+00 -8.456911637405635673e+00 3.192283121215993091e+01 1.333396646673403474e+01 -6.870570272509276322e+00 1.333396646673403474e+01 5.660692193695583541e+01
3.996711030323685065e+01 -8.423884451011609542e+00 -6.772749688539938084e+00 -8.423884451011609542e+00 3.160763922987342411e+01 1.304895152138809244e+01 -6.772749688539938084e+00 1.304895152138809244e+01 5.584384192328296592e+01
3.961949571171310680e+01 -8.370526198516238026e+00 -6.648362256937748960e+00 -8.370526198516238026e+00 3.122302451635386333e+01 1.271432670191890679e+01 -6.648362256937748960e+00 1.271432670191890679e+01 5.485753474968854704e+01
3.917685886477433854e+01 -8.297856024269549380e+00 -6.497995281226450537e+00 -8.297856024269549380e+00 3.076955710149194445e+01 1.233173300346634349e+01 -6.497995281226450537e+00 1.233173300346634349e+01 5.365142059551672560e+01
3.864011526497224480e+01 -8.207273092548692972e+00 -6.322702453022170488e+00 -8.207273092548692972e+00 3.024778974154530786e+01 1.190307052566604717e+01 -6.322702453022170488e+00 1.190307052566604717e+01 5.223064700341678446e+01
3.801111319104332864e+01 -8.100383851227439536e+00 -6.123900210235113661e+00 -8.100383851227439536e+00 2.965898341172668751e+01 1.143099940800791181e+01 -6.123900210235113661e+00 1.143099940800791181e+01 5.060155339671852914e+01
3.729163182719186409e+01 -7.979192041739734620e+00 -5.903385010702610458e+00 -7.979192041739734620e+00 2.900384633099120535e+01 1.091878436713862577e+01 -5.903385010702610458e+00 1.091878436713862577e+01 4.877122196497299456e+01
-9.755302880917836816e+00 2.015802136873987571e+00 -1.934146968699415581e+01 2.015802136873987571e+00 3.670700131991839044e+01 -1.442328320183477430e+01 -1.934146968699415581e+01 -1.442328320183477430e+01 6.842737804124581658e+00
-9.838341125214830285e+00 2.022189694127602522e+00 -1.936914910175982030e+01 2.022189694127602522e+00 3.666892646883803053e+01 -1.443022542092273852e+01 -1.936914910175982030e+01 -1.443022542092273852e+01 6.659073167686608841e+00
-9.895023986221696433e+00 2.025589234402636052e+00 -1.936814713199454729e+01 2.025589234402636052e+00 3.660131140199933952e+01 -1.442319374024859080e+01 -1.936814713199454729e+01 -1.442319374024859080e+01 6.455172320453568702e+00
-9.924939940641989367e+00 2.025947080747376283e+00 -1.933864270087070736e+01 2.025947080747376283e+00 3.650465710428497346e+01 -1.440184820578483027e+01 -1.933864270087070736e+01 -1.440184820578483027e+01 6.232269832314817570e+00
-9.928876250434132800e+00 2.023263233161823660e+00 -1.928061791607106201e+01 2.023263233161823660e+00 3.637851626776401304e+01 -1.436593832509013779e+01 -1.928061791607106201e+01 -1.436593832509013779e+01 5.989954179973903337e+00
-9.907995916218533594e+00 2.017680830183874452e+00 -1.919382228515429745e+01 2.017680830183874452e+00 3.622254893840893430e+01 -1.431517782108872439e+01 -1.919382228515429745e+01 -1.431517782108872439e+01 5.727795947817137190e+00
-9.863873461912051610e+00 2.009289333399713495e+00 -1.907798742336185072e+01 2.009289333399713495e+00 3.603630780828883218e+01 -1.424935198597373898e+01 -1.907798742336185072e+01 -1.424935198597373898e+01 5.445186797058462425e+00
-9.798369688507335695e+00 1.998249773664474427e+00 -1.893266602276280253e+01 1.998249773664474427e+00 3.581934556947277315e+01 -1.416829978889005481e+01 -1.893266602276280253e+01 -1.416829978889005481e+01 5.141303681104974821e+00
-9.713595889438350284e+00 1.984687397198815928e+00 -1.875716028298490556e+01 1.984687397198815928e+00 3.557126859098153915e+01 -1.407187809129977296e+01 -1.875716028298490556e+01 -1.407187809129977296e+01 4.815162522508638077e+00
-9.611752819725252195e+00 1.968816911809582404e+00 -1.855075451133868825e+01 1.968816911809582404e+00 3.529173691878762753e+01 -1.395999743161670814e+01 -1.855075451133868825e+01 -1.395999743161670814e+01 4.465832920773128656e+00
3.152618597805173906e+01 6.061454130035359711e+00 1.228160646111720844e+01 6.061454130035359711e+00 3.759801162656235363e+01 1.921175383556503080e+00 1.228160646111720844e+01 1.921175383556503080e+00 1.676046115835989525e+01
3.126700277898318703e+01 6.083174953239433691e+00 1.218988661843955335e+01 6.083174953239433691e+00 3.751572043704403114e+01 2.030966811456196730e+00 1.218988661843955335e+01 2.030966811456196730e+00 1.631043503515908455e+01
3.099915918738311049e+01 6.098138575012659324e+00 1.207297131926392630e+01 6.098138575012659324e+00 3.741731323481077709e+01 2.120783463033172556e+00 1.207297131926392630e+01 2.120783463033172556e+00 1.581137991552978050e+01
3.072382505466200797e+01 6.106187851135712386e+00 1.193141929859235795e+01 6.106187851135712386e+00 3.730306938736362099e+01 2.190904705788447426e+00 1.193141929859235795e+01 2.190904705788447426e+00 1.526460533463301061e+01
3.044161149722836512e+01 6.107322781608593765e+00 1.176591151470858065e+01 6.107322781608593765e+00 3.717248254110697303e+01 2.241574986285411963e+00 1.176591151470858065e+01 2.241574986285411963e+00 1.467114146012876574e+01
3.015246613367573403e+01 6.101578287368931264e+00 1.157730353058445694e+01 6.101578287368931264e+00 3.702453998884963937e+01 2.273230816244404373e+00 1.157730353058445694e+01 2.273230816244404373e+00 1.403125019904925175e+01
2.985617943837836208e+01 6.089111512636045553e+00 1.136641598825422506e+01 6.089111512636045553e+00 3.685819410246281791e+01 2.286448391136272740e+00 1.136641598825422506e+01 2.286448391136272740e+00 1.334487916998803136e+01
2.955205299258369323e+01 6.070114522566887771e+00 1.113401714834568068e+01 6.070114522566887771e+00 3.667210042584784446e+01 2.281908669244745447e+00 1.113401714834568068e+01 2.281908669244745447e+00 1.261152201934950945e+01
2.923919631238224781e+01 6.044866684662473233e+00 1.088094511336187686e+01 6.044866684662473233e+00 3.646480974009320164e+01 2.260467213541688558e+00 1.088094511336187686e+01 2.260467213541688558e+00 1.183009619806724366e+01
2.891661415105163968e+01 6.013682287361447720e+00 1.060781099971128683e+01 6.013682287361447720e+00 3.623504743097551284e+01 2.222874824186084286e+00 1.060781099971128683e+01 2.222874824186084286e+00 1.099969376176292890e+01
2.498647090854992570e+01 -9.153077317538750590e-02 -9.207209188862007565e+00 -9.153077317538750590e-02 1.116541354458708923e+01 -1.967198326815811882e+01 -9.207209188862007565e+00 -1.967198326815811882e+01 -1.495827358935461504e+01
2.504210445662058859e+01 -2.618995755897318006e-02 -9.260339942353656539e+00 -2.618995755897318006e-02 1.120889066184539828e+01 -1.951959883250441052e+01 -9.260339942353656539e+00 -1.951959883250441052e+01 -1.481470256603986257e+01
2.512525086795627871e+01 3.570057695922829177e-02 -9.300527672450977335e+00 3.570057695922829177e-02 1.128808623316707127e+01 -1.934581550320012511e+01 -9.300527672450977335e+00 -1.934581550320012511e+01 -1.459821083495510763e+01
2.523607103649421290e+01 9.389055092131545766e-02 -9.327379082862975679e+00 9.389055092131545766e-02 1.140325053801000976e+01 -1.915031149237081820e+01 -9.327379082862975679e+00 -1.915031149237081820e+01 -1.431055035230566475e+01
2.537317054811180128e+01 1.479151596197570695e-01 -9.340375737569715398e+00 1.479151596197570695e-01 1.155334670433433608e+01 -1.893263987241310176e+01 -9.340375737569715398e+00 -1.893263987241310176e+01 -1.395424178977467733e+01
2.553515498868644684e+01 1.978280343669605590e-01 -9.339213725800886934e+00 1.978280343669605590e-01 1.173721272037122354e+01 -1.869369449853376253e+01 -9.339213725800886934e+00 -1.869369449853376253e+01 -1.353268179714795671e+01
2.571957519495154187e+01 2.432895101843453867e-01 -9.323249471807599775e+00 2.432895101843453867e-01 1.195264970231196422e+01 -1.843317145996248740e+01 -9.323249471807599775e+00 -1.843317145996248740e+01 -1.305028601914704645e+01
2.592405351205702857e+01 2.842280786553683103e-01 -9.291893031153376725e+00 2.842280786553683103e-01 1.219749452055612515e+01 -1.815117801932409591e+01 -9.291893031153376725e+00 -1.815117801932409591e+01 -1.251168462574312557e+01
2.614590837438252890e+01 3.206079855717577365e-01 -9.244465073881052319e+00 3.206079855717577365e-01 1.246942315156605297e+01 -1.784776780793099249e+01 -9.244465073881052319e+00 -1.784776780793099249e+01 -1.192199046871903612e+01
2.638240458499526042e+01 3.523934767252418498e-01 -9.180268392929329835e+00 3.523934767252418498e-01 1.276593280076272663e+01 -1.752286931736664144e+01 -9.180268392929329835e+00 -1.752286931736664144e+01 -1.128620913723281127e+01
-2.471034392530780366e+01 4.482027154204417663e+00 1.423221965314434634e+01 4.482027154204417663e+00 -3.684209674062737605e+01 1.404053564028720480e+01 1.423221965314434634e+01 1.404053564028720480e+01 -5.536110596018053087e+01