 vasp.6.1.1 19Jun20 (build Dec 21 2021 08:45:49) complex                        
  
 executed on             LinuxIFC date 2023.10.06  05:24:35
 running on   40 total cores
 distrk:  each k-point on   40 cores,    1 groups
 distr:  one band on NCORE=   1 cores,   40 groups


--------------------------------------------------------------------------------------------------------


 INCAR:
 POTCAR:   PAW_PBE Te 08Apr2002                   
 POTCAR:   PAW_PBE Mo 08Apr2002                   
 -----------------------------------------------------------------------------
|                                                                             |
|           W    W    AA    RRRRR   N    N  II  N    N   GGGG   !!!           |
|           W    W   A  A   R    R  NN   N  II  NN   N  G    G  !!!           |
|           W    W  A    A  R    R  N N  N  II  N N  N  G       !!!           |
|           W WW W  AAAAAA  RRRRR   N  N N  II  N  N N  G  GGG   !            |
|           WW  WW  A    A  R   R   N   NN  II  N   NN  G    G                |
|           W    W  A    A  R    R  N    N  II  N    N   GGGG   !!!           |
|                                                                             |
|     For optimal performance we recommend to set                             |
|       NCORE = 4 - approx SQRT(number of cores).                             |
|     NCORE specifies how many cores store one orbital (NPAR=cpu/NCORE).      |
|     This setting can greatly improve the performance of VASP for DFT.       |
|     The default, NCORE=1 might be grossly inefficient on modern             |
|     multi-core architectures or massively parallel machines. Do your        |
|     own testing!!!!                                                         |
|     Unfortunately you need to use the default for GW and RPA                |
|     calculations (for HF NCORE is supported but not extensively tested      |
|     yet).                                                                   |
|                                                                             |
 -----------------------------------------------------------------------------

 POTCAR:   PAW_PBE Te 08Apr2002                   
   VRHFIN =Te: s2p4                                                                                 
   LEXCH  = PE                                                                                      
   EATOM  =   223.2721 eV,   16.4100 Ry                                                             
                                                                                                    
   TITEL  = PAW_PBE Te 08Apr2002                                                                    
   LULTRA =        F    use ultrasoft PP ?                                                          
   IUNSCR =        1    unscreen: 0-lin 1-nonlin 2-no                                               
   RPACOR =    2.200    partial core radius                                                         
   POMASS =  127.600; ZVAL   =    6.000    mass and valenz                                          
   RCORE  =    2.300    outmost cutoff radius                                                       
   RWIGS  =    2.900; RWIGS  =    1.535    wigner-seitz radius (au A)                               
   ENMAX  =  174.982; ENMIN  =  131.236 eV                                                          
   ICORE  =        3    local potential                                                             
   LCOR   =        T    correct aug charges                                                         
   LPAW   =        T    paw PP                                                                      
   EAUG   =  368.792                                                                                
   DEXC   =    -.169                                                                                
   RMAX   =    3.486    core radius for proj-oper                                                   
   RAUG   =    1.300    factor for augmentation sphere                                              
   RDEP   =    2.397    radius for radial grids                                                     
   QCUT   =   -3.586; QGAM   =    7.172    optimization parameters                                  
                                                                                                    
   Description                                                                                      
     l     E      TYP  RCUT    TYP  RCUT                                                            
     0   .000     23  2.300                                                                         
     0   .000     23  2.300                                                                         
     1   .000     23  2.300                                                                         
     1   .000     23  2.300                                                                         
     2   .000     23  2.300                                                                         
     3  -.100     23  2.300                                                                         
  local pseudopotential read in
  partial core-charges read in
  atomic valenz-charges read in
  non local Contribution for L=           0  read in
    real space projection operators read in
  non local Contribution for L=           0  read in
    real space projection operators read in
  non local Contribution for L=           1  read in
    real space projection operators read in
  non local Contribution for L=           1  read in
    real space projection operators read in
  non local Contribution for L=           2  read in
    real space projection operators read in
    PAW grid and wavefunctions read in
 
   number of l-projection  operators is LMAX  =           5
   number of lm-projection operators is LMMAX =          13
 
 POTCAR:   PAW_PBE Mo 08Apr2002                   
   VRHFIN =Mo: 4p5s4d                                                                               
   LEXCH  = PE                                                                                      
   EATOM  =   217.5180 eV,   15.9871 Ry                                                             
                                                                                                    
   TITEL  = PAW_PBE Mo 08Apr2002                                                                    
   LULTRA =        F    use ultrasoft PP ?                                                          
   IUNSCR =        1    unscreen: 0-lin 1-nonlin 2-no                                               
   RPACOR =    2.200    partial core radius                                                         
   POMASS =   95.940; ZVAL   =    6.000    mass and valenz                                          
   RCORE  =    2.750    outmost cutoff radius                                                       
   RWIGS  =    2.750; RWIGS  =    1.455    wigner-seitz radius (au A)                               
   ENMAX  =  224.584; ENMIN  =  168.438 eV                                                          
   RCLOC  =    2.111    cutoff for local pot                                                        
   LCOR   =        T    correct aug charges                                                         
   LPAW   =        T    paw PP                                                                      
   EAUG   =  345.278                                                                                
   DEXC   =    -.088                                                                                
   RMAX   =    3.077    core radius for proj-oper                                                   
   RAUG   =    1.300    factor for augmentation sphere                                              
   RDEP   =    2.815    radius for radial grids                                                     
   QCUT   =   -4.063; QGAM   =    8.126    optimization parameters                                  
                                                                                                    
   Description                                                                                      
     l     E      TYP  RCUT    TYP  RCUT                                                            
     2   .000     23  2.500                                                                         
     2   .000     23  2.500                                                                         
     0   .000     23  2.600                                                                         
     0  1.000     23  2.600                                                                         
     1   .400     23  2.750                                                                         
     1  2.000     23  2.750                                                                         
     3   .000      7   .000                                                                         
  local pseudopotential read in
  partial core-charges read in
  atomic valenz-charges read in
  non local Contribution for L=           2  read in
    real space projection operators read in
  non local Contribution for L=           2  read in
    real space projection operators read in
  non local Contribution for L=           0  read in
    real space projection operators read in
  non local Contribution for L=           0  read in
    real space projection operators read in
  non local Contribution for L=           1  read in
    real space projection operators read in
  non local Contribution for L=           1  read in
    real space projection operators read in
    PAW grid and wavefunctions read in
 
   number of l-projection  operators is LMAX  =           6
   number of lm-projection operators is LMMAX =          18
 
 -----------------------------------------------------------------------------
|                                                                             |
|               ----> ADVICE to this user running VASP <----                  |
|                                                                             |
|     You have a (more or less) 'large supercell' and for larger cells it     |
|     might be more efficient to use real-space projection operators.         |
|     Therefore, try LREAL= Auto in the INCAR file.                           |
|     Mind: If you want to do very accurate calculations, keep the            |
|     reciprocal projection scheme (i.e. LREAL=.FALSE.).                      |
|                                                                             |
 -----------------------------------------------------------------------------

 PAW_PBE Te 08Apr2002                   :
 energy of atom  1       EATOM= -223.2721
 kinetic energy error for atom=    0.0006 (will be added to EATOM!!)
 PAW_PBE Mo 08Apr2002                   :
 energy of atom  2       EATOM= -217.5180
 kinetic energy error for atom=    0.0009 (will be added to EATOM!!)
 
 
 POSCAR: Te Mo
  positions in cartesian coordinates
  No initial velocities read in
 exchange correlation table for  LEXCH =        8
   RHO(1)=    0.500       N(1)  =     2000
   RHO(2)=  100.500       N(2)  =     4000
 


--------------------------------------------------------------------------------------------------------


 ion  position               nearest neighbor table
   1  0.223  0.111  0.683-  37 2.72  40 2.74  41 2.77   5 3.48   9 3.49   4 3.53   7 3.54   2 3.58
                             3 3.58
   2  0.222  0.444  0.683-  38 2.72  41 2.75  42 2.78   7 3.48   6 3.49   8 3.53   5 3.54   1 3.58
                             3 3.59
   3  0.222  0.778  0.683-  39 2.72  42 2.76  40 2.79   8 3.48   4 3.49   9 3.53   6 3.54   1 3.58
                             2 3.59
   4  0.556  0.112  0.683-  40 2.73  43 2.76  44 2.77   8 3.48   3 3.49   1 3.53   7 3.53   5 3.58
                             6 3.59
   5  0.556  0.445  0.683-  41 2.72  44 2.75  45 2.77   9 3.47   1 3.48   8 3.53   2 3.54   4 3.58
                             6 3.59
   6  0.556  0.778  0.683-  42 2.73  45 2.75  43 2.77   7 3.48   2 3.49   9 3.53   3 3.54   5 3.59
                             4 3.59
   7  0.889  0.111  0.683-  43 2.72  37 2.75  38 2.78   2 3.48   6 3.48   4 3.53   1 3.54   8 3.59
                             9 3.59
   8  0.889  0.445  0.683-  44 2.73  38 2.75  39 2.77   3 3.48   4 3.48   5 3.53   2 3.53   9 3.57
                             7 3.59
   9  0.888  0.777  0.683-  45 2.73  39 2.75  37 2.78   5 3.47   1 3.49   6 3.53   3 3.53   8 3.57
                             7 3.59
  10  0.111  1.000  0.438-  54 2.72  48 2.75  46 2.78  18 3.48  14 3.49  13 3.54  16 3.54  12 3.59
                            11 3.59
  11  0.111  0.333  0.438-  52 2.73  46 2.76  47 2.78  15 3.48  16 3.49  17 3.53  14 3.53  12 3.58
                            10 3.59
  12  0.111  0.666  0.438-  53 2.73  47 2.76  48 2.79  17 3.48  13 3.49  15 3.53  18 3.54  11 3.58
                            10 3.59
  13  0.445  1.000  0.438-  48 2.74  51 2.75  49 2.79  17 3.48  12 3.49  16 3.52  10 3.54  15 3.58
                            14 3.59
  14  0.445  0.333  0.438-  46 2.73  49 2.75  50 2.78  18 3.48  10 3.49  17 3.53  11 3.53  15 3.59
                            13 3.59
  15  0.444  0.667  0.438-  47 2.73  50 2.75  51 2.78  16 3.48  11 3.48  18 3.53  12 3.53  13 3.58
                            14 3.59
  16  0.777  1.000  0.438-  51 2.72  54 2.75  52 2.78  15 3.48  11 3.49  13 3.52  10 3.54  17 3.58
                            18 3.59
  17  0.778  0.333  0.438-  49 2.73  52 2.75  53 2.78  12 3.48  13 3.48  11 3.53  14 3.53  16 3.58
                            18 3.59
  18  0.778  0.667  0.438-  50 2.73  53 2.76  54 2.78  14 3.48  10 3.48  15 3.53  12 3.54  16 3.59
                            17 3.59
  19  0.222  0.111  0.562-  41 2.74  37 2.74  40 2.79  27 3.49  23 3.49  22 3.53  25 3.54  21 3.58
                            20 3.59
  20  0.222  0.444  0.562-  42 2.73  38 2.73  41 2.80  25 3.48  24 3.49  26 3.53  23 3.54  21 3.59
                            19 3.59
  21  0.222  0.778  0.562-  39 2.73  40 2.74  42 2.80  22 3.48  26 3.48  27 3.54  24 3.54  19 3.58
                            20 3.59
  22  0.555  0.111  0.562-  44 2.73  40 2.73  43 2.81  26 3.48  21 3.48  19 3.53  25 3.53  24 3.58
                            23 3.59
  23  0.556  0.445  0.562-  45 2.72  41 2.73  44 2.79  27 3.47  19 3.49  26 3.53  20 3.54  24 3.59
                            22 3.59
  24  0.556  0.778  0.562-  43 2.72  42 2.73  45 2.80  25 3.47  20 3.49  27 3.53  21 3.54  22 3.58
                            23 3.59
  25  0.888  0.110  0.562-  38 2.74  43 2.74  37 2.81  24 3.47  20 3.48  22 3.53  19 3.54  27 3.58
                            26 3.59
  26  0.889  0.444  0.562-  44 2.74  39 2.74  38 2.80  22 3.48  21 3.48  20 3.53  23 3.53  25 3.59
                            27 3.59
  27  0.888  0.778  0.562-  45 2.73  37 2.73  39 2.81  23 3.47  19 3.49  24 3.53  21 3.54  25 3.58
                            26 3.59
  28  0.111  0.000  0.317-  46 2.73  54 2.74  48 2.79  32 3.48  36 3.49  31 3.53  34 3.54  29 3.58
                            30 3.59
  29  0.111  0.333  0.317-  47 2.72  52 2.73  46 2.80  33 3.48  34 3.49  35 3.52  32 3.54  28 3.58
                            30 3.59
  30  0.112  0.667  0.317-  48 2.73  53 2.74  47 2.80  31 3.47  35 3.49  33 3.53  36 3.54  29 3.59
                            28 3.59
  31  0.444  1.000  0.317-  48 2.72  49 2.72  51 2.80  30 3.47  35 3.49  28 3.53  34 3.53  32 3.58
                            33 3.59
  32  0.445  0.333  0.317-  46 2.73  50 2.73  49 2.79  28 3.48  36 3.48  35 3.54  29 3.54  31 3.58
                            33 3.59
  33  0.445  0.666  0.317-  47 2.73  51 2.73  50 2.79  34 3.48  29 3.48  36 3.53  30 3.53  32 3.59
                            31 3.59
  34  0.777  0.999  0.317-  51 2.73  52 2.73  54 2.80  33 3.48  29 3.49  31 3.53  28 3.54  35 3.58
                            36 3.59
  35  0.778  0.333  0.317-  53 2.72  49 2.73  52 2.79  30 3.49  31 3.49  29 3.52  32 3.54  34 3.58
                            36 3.59
  36  0.778  0.666  0.317-  50 2.73  54 2.73  53 2.80  32 3.48  28 3.49  33 3.53  30 3.54  35 3.59
                            34 3.59
  37  0.000  1.000  0.623-   1 2.72  27 2.73  19 2.74   7 2.75   9 2.78  25 2.81  45 3.48  41 3.48

  38  1.000  0.333  0.622-   2 2.72  20 2.73  25 2.74   8 2.75   7 2.78  26 2.80  43 3.48  42 3.48

  39  0.001  0.667  0.622-   3 2.72  21 2.73  26 2.74   9 2.75   8 2.77  27 2.81  40 3.48
  40  0.334  0.001  0.622-  22 2.73   4 2.73  21 2.74   1 2.74   3 2.79  19 2.79  44 3.47  39 3.48

  41  0.334  0.333  0.622-   5 2.72  23 2.73  19 2.74   2 2.75   1 2.77  20 2.80  45 3.48  37 3.48

  42  0.333  0.667  0.622-  20 2.73   6 2.73  24 2.73   3 2.76   2 2.78  21 2.80  43 3.48  38 3.48

  43  0.666  0.999  0.623-  24 2.72   7 2.72  25 2.74   4 2.76   6 2.77  22 2.81  42 3.48  38 3.48

  44  0.666  0.333  0.622-  22 2.73   8 2.73  26 2.74   5 2.75   4 2.77  23 2.79  40 3.47
  45  0.667  0.667  0.622-  23 2.72   9 2.73  27 2.73   6 2.75   5 2.77  24 2.80  41 3.48  37 3.48

  46  0.222  0.222  0.378-  28 2.73  14 2.73  32 2.73  11 2.76  10 2.78  29 2.80  50 3.48  54 3.48

  47  0.222  0.555  0.378-  29 2.72  33 2.73  15 2.73  12 2.76  11 2.78  30 2.80  52 3.48  51 3.49

  48  0.223  0.890  0.378-  31 2.72  30 2.73  13 2.74  10 2.75  12 2.79  28 2.79  49 3.47  53 3.49

  49  0.555  0.222  0.377-  31 2.72  35 2.73  17 2.73  14 2.75  13 2.79  32 2.79  48 3.47  53 3.49

  50  0.556  0.555  0.378-  18 2.73  36 2.73  32 2.73  15 2.75  14 2.78  33 2.79  46 3.48  54 3.48

  51  0.555  0.889  0.378-  16 2.72  34 2.73  33 2.73  13 2.75  15 2.78  31 2.80  52 3.48  47 3.49

  52  0.889  0.222  0.378-  29 2.73  11 2.73  34 2.73  17 2.75  16 2.78  35 2.79  47 3.48  51 3.48

  53  0.889  0.555  0.378-  35 2.72  12 2.73  30 2.74  18 2.76  17 2.78  36 2.80  49 3.49  48 3.49

  54  0.889  0.889  0.378-  10 2.72  36 2.73  28 2.74  16 2.75  18 2.78  34 2.80  46 3.48  50 3.48

 

IMPORTANT INFORMATION: All symmetrisations will be switched off!
NOSYMM: (Re-)initialisation of all symmetry stuff for point group C_1.


----------------------------------------------------------------------------------------

                                     Primitive cell                                     

  volume of cell :    2974.0145

  direct lattice vectors                    reciprocal lattice vectors
    10.599107605  0.000000000  0.000000000     0.094347566  0.057684847  0.000231761
    -5.612883814  9.180260567  0.000000000     0.000000000  0.108929370  0.001957398
     0.260721861 -0.549228442 30.564603811     0.000000000  0.000000000  0.032717584

  length of vectors
    10.599107605 10.760188139 30.570649877     0.110585073  0.108946955  0.032717584

  position of ions in fractional coordinates (direct lattice)
     0.222999884  0.111456516  0.682574005
     0.221777175  0.443871631  0.682662974
     0.222156650  0.777989507  0.682885186
     0.556014736  0.111978306  0.682926418
     0.555817546  0.444625684  0.682622828
     0.555679563  0.777758487  0.682824273
     0.888851887  0.111249200  0.682747163
     0.889077985  0.445171160  0.682585142
     0.888469337  0.777060016  0.683015150
     0.110991211  0.999626973  0.438061885
     0.111051251  0.333421037  0.438172480
     0.110926011  0.666134335  0.438171934
     0.444736925  0.999824051  0.438350009
     0.444528315  0.333364120  0.438108696
     0.444373673  0.666531736  0.438135552
     0.776898577  0.999614128  0.438058787
     0.777673010  0.333122998  0.438032909
     0.777564489  0.666560600  0.438181561
     0.222447987  0.110794089  0.561625811
     0.221524609  0.444146565  0.562103376
     0.221792342  0.777570695  0.561769322
     0.555248744  0.110882960  0.561783370
     0.555898146  0.444962251  0.562043075
     0.556004258  0.778284467  0.562051475
     0.888251969  0.110485216  0.561755566
     0.888502276  0.443863267  0.561757918
     0.888240908  0.777591319  0.561802574
     0.111282057  0.000390186  0.317170158
     0.110646026  0.333148630  0.317183197
     0.112164080  0.667107273  0.317179294
     0.443743752  0.999636625  0.317235283
     0.444604982  0.332865869  0.317106936
     0.444564182  0.666070064  0.317424431
     0.776721147  0.999453771  0.317221969
     0.778412695  0.333377801  0.317412030
     0.777624487  0.666426621  0.317427286
     0.000267231  0.999758414  0.622590002
     0.999576010  0.333324812  0.622372694
     0.000884982  0.667315126  0.622453136
     0.333628882  0.000843674  0.622243497
     0.333572942  0.333278405  0.622442078
     0.333342304  0.666676884  0.622341853
     0.666457078  0.999499992  0.622536168
     0.665798107  0.332898678  0.622259521
     0.666809574  0.666575808  0.622483540
     0.222488869  0.222304518  0.377633495
     0.222292641  0.554717107  0.377538171
     0.222592605  0.889644309  0.377525784
     0.554864490  0.221759220  0.377474481
     0.555580912  0.555436662  0.377711912
     0.555435796  0.888920824  0.377691448
     0.889080064  0.222348683  0.377541929
     0.888907360  0.555332242  0.377721350
     0.888942668  0.889226810  0.377711623

  ion indices of the primitive-cell ions
   primitive index   ion index
                 1           1
                 2           2
                 3           3
                 4           4
                 5           5
                 6           6
                 7           7
                 8           8
                 9           9
                10          10
                11          11
                12          12
                13          13
                14          14
                15          15
                16          16
                17          17
                18          18
                19          19
                20          20
                21          21
                22          22
                23          23
                24          24
                25          25
                26          26
                27          27
                28          28
                29          29
                30          30
                31          31
                32          32
                33          33
                34          34
                35          35
                36          36
                37          37
                38          38
                39          39
                40          40
                41          41
                42          42
                43          43
                44          44
                45          45
                46          46
                47          47
                48          48
                49          49
                50          50
                51          51
                52          52
                53          53
                54          54

----------------------------------------------------------------------------------------

 
 

Automatic generation of k-mesh.
 generate k-points for:    3    3    1
Space group operators:
 irot       det(A)        alpha          n_x          n_y          n_z        tau_x        tau_y        tau_z
    1     1.000000     0.000000     1.000000     0.000000     0.000000     0.000000     0.000000     0.000000
 
 Subroutine IBZKPT returns following result:
 ===========================================
 
 Found      5 irreducible k-points:
 
 Following reciprocal coordinates:
            Coordinates               Weight
  0.000000  0.000000  0.000000      1.000000
  0.333333 -0.000000 -0.000000      2.000000
  0.000000  0.333333  0.000000      2.000000
  0.333333  0.333333  0.000000      2.000000
 -0.333333  0.333333  0.000000      2.000000
 
 Following cartesian coordinates:
            Coordinates               Weight
  0.000000  0.000000  0.000000      1.000000
  0.031449  0.019228  0.000077      2.000000
  0.000000  0.036310  0.000652      2.000000
  0.031449  0.055538  0.000730      2.000000
 -0.031449  0.017082  0.000575      2.000000
 


--------------------------------------------------------------------------------------------------------




 Dimension of arrays:
   k-points           NKPTS =      5   k-points in BZ     NKDIM =      5   number of bands    NBANDS=    200
   number of dos      NEDOS =    301   number of ions     NIONS =     54
   non local maximal  LDIM  =      6   non local SUM 2l+1 LMDIM =     18
   total plane-waves  NPLWV = ******
   max r-space proj   IRMAX =      1   max aug-charges    IRDMAX=  36754
   dimension x,y,z NGX =    84 NGY =   84 NGZ =  240
   dimension x,y,z NGXF=   168 NGYF=  168 NGZF=  480
   support grid    NGXF=   168 NGYF=  168 NGZF=  480
   ions per type =              36  18
   NGX,Y,Z   is equivalent  to a cutoff of  13.18, 12.98, 13.05 a.u.
   NGXF,Y,Z  is equivalent  to a cutoff of  26.35, 25.96, 26.10 a.u.

 SYSTEM =  dpgen_md                                
 POSCAR =  Te Mo                                   

 Startparameter for this run:
   NWRITE =      2    write-flag & timer
   PREC   = a         normal or accurate (medium, high low for compatibility)
   ISTART =      0    job   : 0-new  1-cont  2-samecut
   ICHARG =      2    charge: 1-file 2-atom 10-const
   ISPIN  =      1    spin polarized calculation?
   LNONCOLLINEAR =      F non collinear calculations
   LSORBIT =      F    spin-orbit coupling
   INIWAV =      1    electr: 0-lowe 1-rand  2-diag
   LASPH  =      F    aspherical Exc in radial PAW
   METAGGA=      F    non-selfconsistent MetaGGA calc.

 Electronic Relaxation 1
   ENCUT  =  550.0 eV  40.42 Ry    6.36 a.u.  20.27 20.58 58.46*2*pi/ulx,y,z
   ENINI  =  550.0     initial cutoff
   ENAUG  =  368.8 eV  augmentation charge cutoff
   NELM   =    100;   NELMIN=  6; NELMDL= -5     # of ELM steps 
   EDIFF  = 0.1E-05   stopping-criterion for ELM
   LREAL  =      F    real-space projection
   NLSPLINE    = F    spline interpolate recip. space projectors
   LCOMPAT=      F    compatible to vasp.4.4
   GGA_COMPAT  = T    GGA compatible to vasp.4.4-vasp.4.6
   LMAXPAW     = -100 max onsite density
   LMAXMIX     =    2 max onsite mixed and CHGCAR
   VOSKOWN=      0    Vosko Wilk Nusair interpolation
   ROPT   =    0.00000   0.00000
 Ionic relaxation
   EDIFFG = 0.1E-04   stopping-criterion for IOM
   NSW    =     10    number of steps for IOM
   NBLOCK =      1;   KBLOCK =      1    inner block; outer block 
   IBRION =      0    ionic relax: 0-MD 1-quasi-New 2-CG
   NFREE  =      0    steps in history (QN), initial steepest desc. (CG)
   ISIF   =      2    stress and relaxation
   IWAVPR =     11    prediction:  0-non 1-charg 2-wave 3-comb
   ISYM   =      0    0-nonsym 1-usesym 2-fastsym
   LCORR  =      T    Harris-Foulkes like correction to forces

   POTIM  = 2.0000    time-step for ionic-motion
   TEIN   =  100.0    initial temperature
   TEBEG  =  100.0;   TEEND  = 100.0 temperature during run
   SMASS  =   0.04    Nose mass-parameter (am)
   estimated Nose-frequenzy (Omega)   =  0.79E+14 period in steps = 0.40E+02 mass=   0.327E-28a.u.
   SCALEE = 1.0000    scale energy and forces
   NPACO  =    256;   APACO  = 16.0  distance and # of slots for P.C.
   PSTRESS=    0.0 pullay stress

  Mass of Ions in am
   POMASS = 127.60 95.94
  Ionic Valenz
   ZVAL   =   6.00  6.00
  Atomic Wigner-Seitz radii
   RWIGS  =  -1.00 -1.00
  virtual crystal weights 
   VCA    =   1.00  1.00
   NELECT =     324.0000    total number of electrons
   NUPDOWN=      -1.0000    fix difference up-down

 DOS related values:
   EMIN   =  10.00;   EMAX   =-10.00  energy-range for DOS
   EFERMI =   0.00
   ISMEAR =     0;   SIGMA  =   0.10  broadening in eV -4-tet -1-fermi 0-gaus

 Electronic relaxation 2 (details)
   IALGO  =     68    algorithm
   LDIAG  =      T    sub-space diagonalisation (order eigenvalues)
   LSUBROT=      F    optimize rotation matrix (better conditioning)
   TURBO    =      0    0=normal 1=particle mesh
   IRESTART =      0    0=no restart 2=restart with 2 vectors
   NREBOOT  =      0    no. of reboots
   NMIN     =      0    reboot dimension
   EREF     =   0.00    reference energy to select bands
   IMIX   =      4    mixing-type and parameters
     AMIX     =   0.40;   BMIX     =  1.00
     AMIX_MAG =   1.60;   BMIX_MAG =  1.00
     AMIN     =   0.10
     WC   =   100.;   INIMIX=   1;  MIXPRE=   1;  MAXMIX= -45

 Intra band minimization:
   WEIMIN = 0.0010     energy-eigenvalue tresh-hold
   EBREAK =  0.13E-08  absolut break condition
   DEPER  =   0.30     relativ break condition  

   TIME   =   0.40     timestep for ELM

  volume/ion in A,a.u.               =      55.07       371.66
  Fermi-wavevector in a.u.,A,eV,Ry     =   0.781884  1.477546  8.317814  0.611342
  Thomas-Fermi vector in A             =   1.885493
 
 Write flags
   LWAVE        =      F    write WAVECAR
   LDOWNSAMPLE  =      F    k-point downsampling of WAVECAR
   LCHARG       =      F    write CHGCAR
   LVTOT        =      F    write LOCPOT, total local potential
   LVHAR        =      F    write LOCPOT, Hartree potential only
   LELF         =      F    write electronic localiz. function (ELF)
   LORBIT       =      0    0 simple, 1 ext, 2 COOP (PROOUT), +10 PAW based schemes


 Dipole corrections
   LMONO  =      F    monopole corrections only (constant potential shift)
   LDIPOL =      F    correct potential (dipole corrections)
   IDIPOL =      0    1-x, 2-y, 3-z, 4-all directions 
   EPSILON=  1.0000000 bulk dielectric constant

 Exchange correlation treatment:
   GGA     =    --    GGA type
   LEXCH   =     8    internal setting for exchange type
   VOSKOWN=      0    Vosko Wilk Nusair interpolation
   LHFCALC =     F    Hartree Fock is set to
   LHFONE  =     F    Hartree Fock one center treatment
   AEXX    =    0.0000 exact exchange contribution

 Linear response parameters
   LEPSILON=     F    determine dielectric tensor
   LRPA    =     F    only Hartree local field effects (RPA)
   LNABLA  =     F    use nabla operator in PAW spheres
   LVEL    =     F    velocity operator in full k-point grid
   LINTERFAST=   F  fast interpolation
   KINTER  =     0    interpolate to denser k-point grid
   CSHIFT  =0.1000    complex shift for real part using Kramers Kronig
   OMEGAMAX=  -1.0    maximum frequency
   DEG_THRESHOLD= 0.2000000E-02 threshold for treating states as degnerate
   RTIME   =   -0.100 relaxation time in fs
  (WPLASMAI=    0.000 imaginary part of plasma frequency in eV, 0.658/RTIME)
   DFIELD  = 0.0000000 0.0000000 0.0000000 field for delta impulse in time
 
 Orbital magnetization related:
   ORBITALMAG=     F  switch on orbital magnetization
   LCHIMAG   =     F  perturbation theory with respect to B field
   DQ        =  0.001000  dq finite difference perturbation B field
   LLRAUG    =     F  two centre corrections for induced B field



--------------------------------------------------------------------------------------------------------


 molecular dynamics for ions
   using nose mass (canonical ensemble)
 charge density and potential will be updated during run
 non-spin polarized calculation
 RMM-DIIS sequential band-by-band and
  variant of blocked Davidson during initial phase
 perform sub-space diagonalisation
    before iterative eigenvector-optimisation
 modified Broyden-mixing scheme, WC =      100.0
 initial mixing is a Kerker type mixing with AMIX =  0.4000 and BMIX =      1.0000
 Hartree-type preconditioning will be used
 using additional bands           38
 reciprocal scheme for non local part
 use partial core corrections
 calculate Harris-corrections to forces 
   (improved forces if not selfconsistent)
 use gradient corrections 
 use of overlap-Matrix (Vanderbilt PP)
 Gauss-broadening in eV      SIGMA  =   0.10


--------------------------------------------------------------------------------------------------------


  energy-cutoff  :      550.00
  volume of cell :     2974.01
      direct lattice vectors                 reciprocal lattice vectors
    10.599107605  0.000000000  0.000000000     0.094347566  0.057684847  0.000231761
    -5.612883814  9.180260567  0.000000000     0.000000000  0.108929370  0.001957398
     0.260721861 -0.549228442 30.564603811     0.000000000  0.000000000  0.032717584

  length of vectors
    10.599107605 10.760188139 30.570649877     0.110585073  0.108946955  0.032717584


 
 k-points in units of 2pi/SCALE and weight: read from INCAR                         
   0.00000000  0.00000000  0.00000000       0.111
   0.03144919  0.01922828  0.00007725       0.222
   0.00000000  0.03630979  0.00065247       0.222
   0.03144919  0.05553807  0.00072972       0.222
  -0.03144919  0.01708151  0.00057521       0.222
 
 k-points in reciprocal lattice and weights: read from INCAR                         
   0.00000000  0.00000000  0.00000000       0.111
   0.33333333 -0.00000000 -0.00000000       0.222
   0.00000000  0.33333333  0.00000000       0.222
   0.33333333  0.33333333  0.00000000       0.222
  -0.33333333  0.33333333  0.00000000       0.222
 
 position of ions in fractional coordinates (direct lattice) 
   0.22299988  0.11145652  0.68257400
   0.22177718  0.44387163  0.68266297
   0.22215665  0.77798951  0.68288519
   0.55601474  0.11197831  0.68292642
   0.55581755  0.44462568  0.68262283
   0.55567956  0.77775849  0.68282427
   0.88885189  0.11124920  0.68274716
   0.88907799  0.44517116  0.68258514
   0.88846934  0.77706002  0.68301515
   0.11099121  0.99962697  0.43806188
   0.11105125  0.33342104  0.43817248
   0.11092601  0.66613434  0.43817193
   0.44473693  0.99982405  0.43835001
   0.44452832  0.33336412  0.43810870
   0.44437367  0.66653174  0.43813555
   0.77689858  0.99961413  0.43805879
   0.77767301  0.33312300  0.43803291
   0.77756449  0.66656060  0.43818156
   0.22244799  0.11079409  0.56162581
   0.22152461  0.44414657  0.56210338
   0.22179234  0.77757070  0.56176932
   0.55524874  0.11088296  0.56178337
   0.55589815  0.44496225  0.56204307
   0.55600426  0.77828447  0.56205147
   0.88825197  0.11048522  0.56175557
   0.88850228  0.44386327  0.56175792
   0.88824091  0.77759132  0.56180257
   0.11128206  0.00039019  0.31717016
   0.11064603  0.33314863  0.31718320
   0.11216408  0.66710727  0.31717929
   0.44374375  0.99963662  0.31723528
   0.44460498  0.33286587  0.31710694
   0.44456418  0.66607006  0.31742443
   0.77672115  0.99945377  0.31722197
   0.77841270  0.33337780  0.31741203
   0.77762449  0.66642662  0.31742729
   0.00026723  0.99975841  0.62259000
   0.99957601  0.33332481  0.62237269
   0.00088498  0.66731513  0.62245314
   0.33362888  0.00084367  0.62224350
   0.33357294  0.33327840  0.62244208
   0.33334230  0.66667688  0.62234185
   0.66645708  0.99949999  0.62253617
   0.66579811  0.33289868  0.62225952
   0.66680957  0.66657581  0.62248354
   0.22248887  0.22230452  0.37763349
   0.22229264  0.55471711  0.37753817
   0.22259260  0.88964431  0.37752578
   0.55486449  0.22175922  0.37747448
   0.55558091  0.55543666  0.37771191
   0.55543580  0.88892082  0.37769145
   0.88908006  0.22234868  0.37754193
   0.88890736  0.55533224  0.37772135
   0.88894267  0.88922681  0.37771162
 
 position of ions in cartesian coordinates  (Angst):
   1.91596926  0.64831080 20.86260403
   0.03722541  3.69991931 20.86532332
  -1.83405938  6.76708643 20.87211517
   5.44279264  0.65290742 20.87337540
   3.57351237  3.70686376 20.86409630
   1.70226668  6.76499905 20.87025338
   8.97461507  0.64631249 20.86789654
   7.10270410  3.71189207 20.86294443
   5.23351150  6.75848208 20.87608746
  -4.32016996  8.93624003 13.38918795
  -0.58016824  2.82023521 13.39256825
  -2.44897690  5.87463028 13.39255157
  -0.78379428  8.93789102 13.39799435
   2.95469389  2.81974773 13.39061871
   1.08303070  5.87829851 13.39143955
   2.73792516  8.93612382 13.38909328
   6.48706398  2.81757579 13.38830231
   4.61440600  5.87853822 13.39284580
   1.88230393  0.70865774 17.16587042
   0.00157274  3.76865804 17.18046700
  -1.86714753  6.82976190 17.17025675
   5.40923723  0.70938706 17.17068613
   3.54103977  3.77617937 17.17862390
   1.67126778  6.83615955 17.17888065
   8.94099948  0.70575094 17.16983630
   7.07244085  3.76624702 17.16990820
   5.19650545  6.82993297 17.17127309
   1.25999362 -0.17061687  9.69418023
  -0.61447883  2.88418520  9.69457875
  -2.47286088  5.95001470  9.69445947
  -0.82484628  9.00269005  9.69617074
   2.92675531  2.88163126  9.69224787
   1.05616921  5.94035822  9.70195196
   2.70543983  9.00101872  9.69576379
   6.46202531  2.88616336  9.70157293
   4.58431065  5.94362993  9.70203922
  -5.44637258  8.83609861 19.02921675
   8.88596641  2.71818384 19.02257480
  -3.57389511  5.78425777 19.02503348
   3.69366546 -0.33400868 19.01862597
   1.82720680  2.71771970 19.02469550
  -0.04659082  5.77845966 19.02163219
   1.61608174  8.83375579 19.02757134
   5.35058084  2.71433398 19.01911573
   3.48846893  5.77745394 19.02596279
   1.20887133  1.83340635 11.54221816
  -0.65902660  4.88509288 11.53930462
  -2.53575795  7.95981867 11.53892602
   4.73477555  1.82848770 11.53735796
   2.86953817  4.89160316 11.54461495
   0.99618687  7.95308591 11.54398946
   8.27387138  1.83386208 11.53941948
   6.40308962  4.89063937 11.54490341
   4.52934989  7.95588386 11.54460611
 


--------------------------------------------------------------------------------------------------------


 k-point   1 :   0.0000 0.0000 0.0000  plane waves:   87093
 k-point   2 :   0.3333-0.0000-0.0000  plane waves:   87138
 k-point   3 :   0.0000 0.3333 0.0000  plane waves:   87118
 k-point   4 :   0.3333 0.3333 0.0000  plane waves:   87122
 k-point   5 :  -0.3333 0.3333 0.0000  plane waves:   87030

 maximum and minimum number of plane-waves per node :     87138    87030

 maximum number of plane-waves:     87138
 maximum index in each direction: 
   IXMAX=   20   IYMAX=   20   IZMAX=   58
   IXMIN=  -20   IYMIN=  -20   IZMIN=  -58


 serial   3D FFT for wavefunctions
 parallel 3D FFT for charge:
    minimum data exchange during FFTs selected (reduces bandwidth)


 total amount of memory used by VASP MPI-rank0   377278. kBytes
=======================================================================

   base      :      30000. kBytes
   nonl-proj :     200816. kBytes
   fftplans  :      19943. kBytes
   grid      :      90496. kBytes
   one-center:        839. kBytes
   wavefun   :      35184. kBytes
 
     INWAV:  cpu time    0.0001: real time    0.0001
 Broyden mixing: mesh for mixing (old mesh)
   NGX = 41   NGY = 41   NGZ =117
  (NGX  =168   NGY  =168   NGZ  =480)
  gives a total of 196677 points

 initial charge density was supplied:
 charge density of overlapping atoms calculated
 number of electron     324.0000000 magnetization 
 keeping initial charge density in first step


--------------------------------------------------------------------------------------------------------


 Maximum index for augmentation-charges         2191 (set IRDMAX)


--------------------------------------------------------------------------------------------------------


 First call to EWALD:  gamma=   0.123
 Maximum number of real-space cells 4x 4x 2
 Maximum number of reciprocal cells 2x 2x 5

    FEWALD:  cpu time    0.0022: real time    0.0024


--------------------------------------- Iteration      1(   1)  ---------------------------------------


    POTLOK:  cpu time    0.3491: real time    0.3505
    SETDIJ:  cpu time    0.0118: real time    0.0119
     EDDAV:  cpu time   50.3662: real time   50.5072
       DOS:  cpu time    0.0010: real time    0.0010
    --------------------------------------------
      LOOP:  cpu time   50.7281: real time   50.8707

 eigenvalue-minimisations  :  2000
 total energy-change (2. order) : 0.2088955E+04  (-0.1144523E+05)
 number of electron     324.0000000 magnetization 
 augmentation part      324.0000000 magnetization 

 Free energy of the ion-electron system (eV)
  ---------------------------------------------------
  alpha Z        PSCENC =       241.31226704
  Ewald energy   TEWEN  =     60956.45383543
  -Hartree energ DENC   =    -72620.29824748
  -exchange      EXHF   =         0.00000000
  -V(xc)+E(xc)   XCENC  =     -2103.42872442
  PAW double counting   =      7476.04436201    -4809.59211051
  entropy T*S    EENTRO =        -0.12155363
  eigenvalues    EBANDS =       995.50262651
  atomic energy  EATOM  =     11953.08265402
  Solvation  Ediel_sol  =         0.00000000
  ---------------------------------------------------
  free energy    TOTEN  =      2088.95510897 eV

  energy without entropy =     2089.07666261  energy(sigma->0) =     2089.01588579


--------------------------------------------------------------------------------------------------------




--------------------------------------- Iteration      1(   2)  ---------------------------------------


     EDDAV:  cpu time   70.4579: real time   70.6561
       DOS:  cpu time    0.0006: real time    0.0006
    --------------------------------------------
      LOOP:  cpu time   70.4584: real time   70.6567

 eigenvalue-minimisations  :  3040
 total energy-change (2. order) :-0.2184878E+04  (-0.2104599E+04)
 number of electron     324.0000000 magnetization 
 augmentation part      324.0000000 magnetization 

 Free energy of the ion-electron system (eV)
  ---------------------------------------------------
  alpha Z        PSCENC =       241.31226704
  Ewald energy   TEWEN  =     60956.45383543
  -Hartree energ DENC   =    -72620.29824748
  -exchange      EXHF   =         0.00000000
  -V(xc)+E(xc)   XCENC  =     -2103.42872442
  PAW double counting   =      7476.04436201    -4809.59211051
  entropy T*S    EENTRO =        -0.00191790
  eigenvalues    EBANDS =     -1189.49508920
  atomic energy  EATOM  =     11953.08265402
  Solvation  Ediel_sol  =         0.00000000
  ---------------------------------------------------
  free energy    TOTEN  =       -95.92297101 eV

  energy without entropy =      -95.92105311  energy(sigma->0) =      -95.92201206


--------------------------------------------------------------------------------------------------------




--------------------------------------- Iteration      1(   3)  ---------------------------------------


     EDDAV:  cpu time   60.4390: real time   60.6025
       DOS:  cpu time    0.0004: real time    0.0004
    --------------------------------------------
      LOOP:  cpu time   60.4394: real time   60.6029

 eigenvalue-minimisations  :  2520
 total energy-change (2. order) :-0.2289196E+03  (-0.2255097E+03)
 number of electron     324.0000000 magnetization 
 augmentation part      324.0000000 magnetization 

 Free energy of the ion-electron system (eV)
  ---------------------------------------------------
  alpha Z        PSCENC =       241.31226704
  Ewald energy   TEWEN  =     60956.45383543
  -Hartree energ DENC   =    -72620.29824748
  -exchange      EXHF   =         0.00000000
  -V(xc)+E(xc)   XCENC  =     -2103.42872442
  PAW double counting   =      7476.04436201    -4809.59211051
  entropy T*S    EENTRO =        -0.00000000
  eigenvalues    EBANDS =     -1418.41663881
  atomic energy  EATOM  =     11953.08265402
  Solvation  Ediel_sol  =         0.00000000
  ---------------------------------------------------
  free energy    TOTEN  =      -324.84260271 eV

  energy without entropy =     -324.84260271  energy(sigma->0) =     -324.84260271


--------------------------------------------------------------------------------------------------------




--------------------------------------- Iteration      1(   4)  ---------------------------------------


     EDDAV:  cpu time   72.5370: real time   72.7199
       DOS:  cpu time    0.0004: real time    0.0004
    --------------------------------------------
      LOOP:  cpu time   72.5374: real time   72.7203

 eigenvalue-minimisations  :  3120
 total energy-change (2. order) :-0.1163858E+02  (-0.1156076E+02)
 number of electron     324.0000000 magnetization 
 augmentation part      324.0000000 magnetization 

 Free energy of the ion-electron system (eV)
  ---------------------------------------------------
  alpha Z        PSCENC =       241.31226704
  Ewald energy   TEWEN  =     60956.45383543
  -Hartree energ DENC   =    -72620.29824748
  -exchange      EXHF   =         0.00000000
  -V(xc)+E(xc)   XCENC  =     -2103.42872442
  PAW double counting   =      7476.04436201    -4809.59211051
  entropy T*S    EENTRO =        -0.00000000
  eigenvalues    EBANDS =     -1430.05521481
  atomic energy  EATOM  =     11953.08265402
  Solvation  Ediel_sol  =         0.00000000
  ---------------------------------------------------
  free energy    TOTEN  =      -336.48117871 eV

  energy without entropy =     -336.48117871  energy(sigma->0) =     -336.48117871


--------------------------------------------------------------------------------------------------------




--------------------------------------- Iteration      1(   5)  ---------------------------------------


     EDDAV:  cpu time   70.2079: real time   70.4055
       DOS:  cpu time    0.0004: real time    0.0004
    CHARGE:  cpu time    1.1891: real time    1.1904
    MIXING:  cpu time    0.0074: real time    0.0078
    --------------------------------------------
      LOOP:  cpu time   71.4048: real time   71.6040

 eigenvalue-minimisations  :  3000
 total energy-change (2. order) :-0.3208406E+00  (-0.3201214E+00)
 number of electron     323.9999999 magnetization 
 augmentation part      -25.8529819 magnetization 

 Broyden mixing:
  rms(total) = 0.19575E+01    rms(broyden)= 0.19575E+01
  rms(prec ) = 0.20712E+01
  weight for this iteration     100.00

 Free energy of the ion-electron system (eV)
  ---------------------------------------------------
  alpha Z        PSCENC =       241.31226704
  Ewald energy   TEWEN  =     60956.45383543
  -Hartree energ DENC   =    -72620.29824748
  -exchange      EXHF   =         0.00000000
  -V(xc)+E(xc)   XCENC  =     -2103.42872442
  PAW double counting   =      7476.04436201    -4809.59211051
  entropy T*S    EENTRO =        -0.00000000
  eigenvalues    EBANDS =     -1430.37605538
  atomic energy  EATOM  =     11953.08265402
  Solvation  Ediel_sol  =         0.00000000
  ---------------------------------------------------
  free energy    TOTEN  =      -336.80201928 eV

  energy without entropy =     -336.80201928  energy(sigma->0) =     -336.80201928


--------------------------------------------------------------------------------------------------------




--------------------------------------- Iteration      1(   6)  ---------------------------------------


    POTLOK:  cpu time    0.3083: real time    0.3162
    SETDIJ:  cpu time    0.0128: real time    0.0128
    EDDIAG:  cpu time    2.6109: real time    2.6141
  RMM-DIIS:  cpu time   43.6773: real time   43.8350
    ORTHCH:  cpu time    0.2201: real time    0.2203
       DOS:  cpu time    0.0005: real time    0.0005
    CHARGE:  cpu time    1.1876: real time    1.1930
    MIXING:  cpu time    0.0156: real time    0.0158
    --------------------------------------------
      LOOP:  cpu time   48.0333: real time   48.2077

 eigenvalue-minimisations  :  2145
 total energy-change (2. order) : 0.9123723E+01  (-0.6392897E+01)
 number of electron     324.0000000 magnetization 
 augmentation part      -19.6822678 magnetization 

 Broyden mixing:
  rms(total) = 0.72892E+00    rms(broyden)= 0.72891E+00
  rms(prec ) = 0.85565E+00
  weight for this iteration     100.00

 eigenvalues of (default mixing * dielectric matrix)
  average eigenvalue GAMMA=   0.9934
  0.9934

 Free energy of the ion-electron system (eV)
  ---------------------------------------------------
  alpha Z        PSCENC =       241.31226704
  Ewald energy   TEWEN  =     60956.45383543
  -Hartree energ DENC   =    -72590.09594920
  -exchange      EXHF   =         0.00000000
  -V(xc)+E(xc)   XCENC  =     -2096.90821323
  PAW double counting   =      7630.48087833    -4974.86052678
  entropy T*S    EENTRO =        -0.00000000
  eigenvalues    EBANDS =     -1447.14324171
  atomic energy  EATOM  =     11953.08265402
  Solvation  Ediel_sol  =         0.00000000
  ---------------------------------------------------
  free energy    TOTEN  =      -327.67829609 eV

  energy without entropy =     -327.67829609  energy(sigma->0) =     -327.67829609


--------------------------------------------------------------------------------------------------------




--------------------------------------- Iteration      1(   7)  ---------------------------------------


    POTLOK:  cpu time    0.3043: real time    0.3046
    SETDIJ:  cpu time    0.0117: real time    0.0117
    EDDIAG:  cpu time    2.6054: real time    2.6082
  RMM-DIIS:  cpu time   40.8795: real time   41.0428
    ORTHCH:  cpu time    0.2367: real time    0.2369
       DOS:  cpu time    0.0005: real time    0.0005
    CHARGE:  cpu time    1.1729: real time    1.1821
    MIXING:  cpu time    0.0071: real time    0.0072
    --------------------------------------------
      LOOP:  cpu time   45.2180: real time   45.3939

 eigenvalue-minimisations  :  2017
 total energy-change (2. order) : 0.3676787E+01  (-0.1180224E+01)
 number of electron     324.0000000 magnetization 
 augmentation part      -21.8122738 magnetization 

 Broyden mixing:
  rms(total) = 0.48404E+00    rms(broyden)= 0.48404E+00
  rms(prec ) = 0.51363E+00
  weight for this iteration     100.00

 eigenvalues of (default mixing * dielectric matrix)
  average eigenvalue GAMMA=   1.4568
  0.7138  2.1998

 Free energy of the ion-electron system (eV)
  ---------------------------------------------------
  alpha Z        PSCENC =       241.31226704
  Ewald energy   TEWEN  =     60956.45383543
  -Hartree energ DENC   =    -72677.59647414
  -exchange      EXHF   =         0.00000000
  -V(xc)+E(xc)   XCENC  =     -2095.99443113
  PAW double counting   =      7893.58664160    -5242.26953422
  entropy T*S    EENTRO =        -0.00000000
  eigenvalues    EBANDS =     -1352.57646799
  atomic energy  EATOM  =     11953.08265402
  Solvation  Ediel_sol  =         0.00000000
  ---------------------------------------------------
  free energy    TOTEN  =      -324.00150940 eV

  energy without entropy =     -324.00150940  energy(sigma->0) =     -324.00150940


--------------------------------------------------------------------------------------------------------




--------------------------------------- Iteration      1(   8)  ---------------------------------------


    POTLOK:  cpu time    0.3006: real time    0.3009
    SETDIJ:  cpu time    0.0114: real time    0.0114
    EDDIAG:  cpu time    2.5697: real time    2.5805
  RMM-DIIS:  cpu time   40.8371: real time   40.9520
    ORTHCH:  cpu time    0.2444: real time    0.2487
       DOS:  cpu time    0.0005: real time    0.0005
    CHARGE:  cpu time    1.1938: real time    1.1949
    MIXING:  cpu time    0.0075: real time    0.0075
    --------------------------------------------
      LOOP:  cpu time   45.1649: real time   45.2964

 eigenvalue-minimisations  :  2024
 total energy-change (2. order) : 0.4690751E+00  (-0.8956498E+00)
 number of electron     324.0000000 magnetization 
 augmentation part      -21.7177126 magnetization 

 Broyden mixing:
  rms(total) = 0.15814E+00    rms(broyden)= 0.15814E+00
  rms(prec ) = 0.18359E+00
  weight for this iteration     100.00

 eigenvalues of (default mixing * dielectric matrix)
  average eigenvalue GAMMA=   1.2228
  2.1375  0.7655  0.7655

 Free energy of the ion-electron system (eV)
  ---------------------------------------------------
  alpha Z        PSCENC =       241.31226704
  Ewald energy   TEWEN  =     60956.45383543
  -Hartree energ DENC   =    -72740.49825379
  -exchange      EXHF   =         0.00000000
  -V(xc)+E(xc)   XCENC  =     -2092.13892059
  PAW double counting   =      8181.98805779    -5536.78894919
  entropy T*S    EENTRO =        -0.00000000
  eigenvalues    EBANDS =     -1286.94312504
  atomic energy  EATOM  =     11953.08265402
  Solvation  Ediel_sol  =         0.00000000
  ---------------------------------------------------
  free energy    TOTEN  =      -323.53243432 eV

  energy without entropy =     -323.53243432  energy(sigma->0) =     -323.53243432


--------------------------------------------------------------------------------------------------------




--------------------------------------- Iteration      1(   9)  ---------------------------------------


    POTLOK:  cpu time    0.3049: real time    0.3052
    SETDIJ:  cpu time    0.0114: real time    0.0114
    EDDIAG:  cpu time    2.5982: real time    2.6052
  RMM-DIIS:  cpu time   45.4186: real time   45.5553
    ORTHCH:  cpu time    0.2190: real time    0.2243
       DOS:  cpu time    0.0005: real time    0.0004
    CHARGE:  cpu time    1.1859: real time    1.1912
    MIXING:  cpu time    0.0074: real time    0.0074
    --------------------------------------------
      LOOP:  cpu time   49.7459: real time   49.9006

 eigenvalue-minimisations  :  2219
 total energy-change (2. order) :-0.9362186E-02  (-0.1491551E+00)
 number of electron     324.0000000 magnetization 
 augmentation part      -21.2960232 magnetization 

 Broyden mixing:
  rms(total) = 0.10646E+00    rms(broyden)= 0.10646E+00
  rms(prec ) = 0.11902E+00
  weight for this iteration     100.00

 eigenvalues of (default mixing * dielectric matrix)
  average eigenvalue GAMMA=   1.1124
  2.0020  1.2937  0.7367  0.4173

 Free energy of the ion-electron system (eV)
  ---------------------------------------------------
  alpha Z        PSCENC =       241.31226704
  Ewald energy   TEWEN  =     60956.45383543
  -Hartree energ DENC   =    -72736.26394269
  -exchange      EXHF   =         0.00000000
  -V(xc)+E(xc)   XCENC  =     -2091.83729477
  PAW double counting   =      8176.13261218    -5531.02202544
  entropy T*S    EENTRO =        -0.00000000
  eigenvalues    EBANDS =     -1291.39990228
  atomic energy  EATOM  =     11953.08265402
  Solvation  Ediel_sol  =         0.00000000
  ---------------------------------------------------
  free energy    TOTEN  =      -323.54179650 eV

  energy without entropy =     -323.54179650  energy(sigma->0) =     -323.54179650


--------------------------------------------------------------------------------------------------------




--------------------------------------- Iteration      1(  10)  ---------------------------------------


    POTLOK:  cpu time    0.3129: real time    0.3132
    SETDIJ:  cpu time    0.0116: real time    0.0116
    EDDIAG:  cpu time    2.5930: real time    2.6001
  RMM-DIIS:  cpu time   47.6792: real time   47.7939
    ORTHCH:  cpu time    0.2313: real time    0.2316
       DOS:  cpu time    0.0005: real time    0.0005
    CHARGE:  cpu time    1.2085: real time    1.2098
    MIXING:  cpu time    0.0115: real time    0.0115
    --------------------------------------------
      LOOP:  cpu time   52.0486: real time   52.1721

 eigenvalue-minimisations  :  2326
 total energy-change (2. order) :-0.5332392E-02  (-0.5207354E-01)
 number of electron     324.0000000 magnetization 
 augmentation part      -21.0172566 magnetization 

 Broyden mixing:
  rms(total) = 0.79706E-01    rms(broyden)= 0.79705E-01
  rms(prec ) = 0.88845E-01
  weight for this iteration     100.00

 eigenvalues of (default mixing * dielectric matrix)
  average eigenvalue GAMMA=   1.2671
  2.3456  1.7866  0.9123  0.9123  0.3786

 Free energy of the ion-electron system (eV)
  ---------------------------------------------------
  alpha Z        PSCENC =       241.31226704
  Ewald energy   TEWEN  =     60956.45383543
  -Hartree energ DENC   =    -72736.86325380
  -exchange      EXHF   =         0.00000000
  -V(xc)+E(xc)   XCENC  =     -2091.61739798
  PAW double counting   =      8183.78066060    -5538.65074664
  entropy T*S    EENTRO =        -0.00000000
  eigenvalues    EBANDS =     -1291.04514759
  atomic energy  EATOM  =     11953.08265402
  Solvation  Ediel_sol  =         0.00000000
  ---------------------------------------------------
  free energy    TOTEN  =      -323.54712889 eV

  energy without entropy =     -323.54712889  energy(sigma->0) =     -323.54712889


--------------------------------------------------------------------------------------------------------




--------------------------------------- Iteration      1(  11)  ---------------------------------------


    POTLOK:  cpu time    0.3127: real time    0.3130
    SETDIJ:  cpu time    0.0116: real time    0.0116
    EDDIAG:  cpu time    2.6161: real time    2.6273
  RMM-DIIS:  cpu time   43.1282: real time   43.2402
    ORTHCH:  cpu time    0.2213: real time    0.2215
       DOS:  cpu time    0.0005: real time    0.0005
    CHARGE:  cpu time    1.1743: real time    1.1754
    MIXING:  cpu time    0.0076: real time    0.0076
    --------------------------------------------
      LOOP:  cpu time   47.4722: real time   47.5972

 eigenvalue-minimisations  :  2129
 total energy-change (2. order) : 0.1527186E-01  (-0.2042498E-01)
 number of electron     324.0000000 magnetization 
 augmentation part      -21.3421811 magnetization 

 Broyden mixing:
  rms(total) = 0.41431E-01    rms(broyden)= 0.41431E-01
  rms(prec ) = 0.47253E-01
  weight for this iteration     100.00

 eigenvalues of (default mixing * dielectric matrix)
  average eigenvalue GAMMA=   1.1947
  2.5372  1.7198  1.1919  0.7534  0.5920  0.3738

 Free energy of the ion-electron system (eV)
  ---------------------------------------------------
  alpha Z        PSCENC =       241.31226704
  Ewald energy   TEWEN  =     60956.45383543
  -Hartree energ DENC   =    -72757.22769456
  -exchange      EXHF   =         0.00000000
  -V(xc)+E(xc)   XCENC  =     -2091.30885885
  PAW double counting   =      8236.87437729    -5591.99382907
  entropy T*S    EENTRO =        -0.00000000
  eigenvalues    EBANDS =     -1270.72460833
  atomic energy  EATOM  =     11953.08265402
  Solvation  Ediel_sol  =         0.00000000
  ---------------------------------------------------
  free energy    TOTEN  =      -323.53185703 eV

  energy without entropy =     -323.53185703  energy(sigma->0) =     -323.53185703


--------------------------------------------------------------------------------------------------------




--------------------------------------- Iteration      1(  12)  ---------------------------------------


    POTLOK:  cpu time    0.3102: real time    0.3105
    SETDIJ:  cpu time    0.0129: real time    0.0129
    EDDIAG:  cpu time    2.6034: real time    2.6143
  RMM-DIIS:  cpu time   51.2467: real time   51.3855
    ORTHCH:  cpu time    0.2427: real time    0.2429
       DOS:  cpu time    0.0005: real time    0.0005
    CHARGE:  cpu time    1.1702: real time    1.1756
    MIXING:  cpu time    0.0093: real time    0.0093
    --------------------------------------------
      LOOP:  cpu time   55.5959: real time   55.7516

 eigenvalue-minimisations  :  2483
 total energy-change (2. order) :-0.1979441E-03  (-0.5346328E-02)
 number of electron     324.0000000 magnetization 
 augmentation part      -21.3485998 magnetization 

 Broyden mixing:
  rms(total) = 0.31762E-01    rms(broyden)= 0.31762E-01
  rms(prec ) = 0.36324E-01
  weight for this iteration     100.00

 eigenvalues of (default mixing * dielectric matrix)
  average eigenvalue GAMMA=   1.1702
  2.5223  1.6578  1.6578  0.8003  0.8003  0.3918  0.3615

 Free energy of the ion-electron system (eV)
  ---------------------------------------------------
  alpha Z        PSCENC =       241.31226704
  Ewald energy   TEWEN  =     60956.45383543
  -Hartree energ DENC   =    -72761.18489286
  -exchange      EXHF   =         0.00000000
  -V(xc)+E(xc)   XCENC  =     -2091.19316398
  PAW double counting   =      8241.88872888    -5597.04621994
  entropy T*S    EENTRO =        -0.00000000
  eigenvalues    EBANDS =     -1266.84526359
  atomic energy  EATOM  =     11953.08265402
  Solvation  Ediel_sol  =         0.00000000
  ---------------------------------------------------
  free energy    TOTEN  =      -323.53205498 eV

  energy without entropy =     -323.53205498  energy(sigma->0) =     -323.53205498


--------------------------------------------------------------------------------------------------------




--------------------------------------- Iteration      1(  13)  ---------------------------------------


    POTLOK:  cpu time    0.3136: real time    0.3140
    SETDIJ:  cpu time    0.0147: real time    0.0147
    EDDIAG:  cpu time    2.6056: real time    2.6167
  RMM-DIIS:  cpu time   48.2115: real time   48.3631
    ORTHCH:  cpu time    0.2389: real time    0.2391
       DOS:  cpu time    0.0005: real time    0.0005
    CHARGE:  cpu time    1.1654: real time    1.1665
    MIXING:  cpu time    0.0079: real time    0.0079
    --------------------------------------------
      LOOP:  cpu time   52.5580: real time   52.7224

 eigenvalue-minimisations  :  2367
 total energy-change (2. order) : 0.2707231E-02  (-0.2869439E-02)
 number of electron     324.0000000 magnetization 
 augmentation part      -21.2284863 magnetization 

 Broyden mixing:
  rms(total) = 0.94904E-02    rms(broyden)= 0.94903E-02
  rms(prec ) = 0.12907E-01
  weight for this iteration     100.00

 eigenvalues of (default mixing * dielectric matrix)
  average eigenvalue GAMMA=   1.3265
  2.6283  2.6283  1.8022  1.1894  0.8040  0.8040  0.3935  0.3623

 Free energy of the ion-electron system (eV)
  ---------------------------------------------------
  alpha Z        PSCENC =       241.31226704
  Ewald energy   TEWEN  =     60956.45383543
  -Hartree energ DENC   =    -72762.96147735
  -exchange      EXHF   =         0.00000000
  -V(xc)+E(xc)   XCENC  =     -2091.10296391
  PAW double counting   =      8236.83867712    -5591.98085917
  entropy T*S    EENTRO =        -0.00000000
  eigenvalues    EBANDS =     -1265.17148093
  atomic energy  EATOM  =     11953.08265402
  Solvation  Ediel_sol  =         0.00000000
  ---------------------------------------------------
  free energy    TOTEN  =      -323.52934775 eV

  energy without entropy =     -323.52934775  energy(sigma->0) =     -323.52934775


--------------------------------------------------------------------------------------------------------




--------------------------------------- Iteration      1(  14)  ---------------------------------------


    POTLOK:  cpu time    0.3099: real time    0.3102
    SETDIJ:  cpu time    0.0113: real time    0.0114
    EDDIAG:  cpu time    2.6154: real time    2.6266
  RMM-DIIS:  cpu time   48.6839: real time   48.8478
    ORTHCH:  cpu time    0.2287: real time    0.2289
       DOS:  cpu time    0.0005: real time    0.0005
    CHARGE:  cpu time    1.1670: real time    1.1723
    MIXING:  cpu time    0.0157: real time    0.0157
    --------------------------------------------
      LOOP:  cpu time   53.0325: real time   53.2133

 eigenvalue-minimisations  :  2355
 total energy-change (2. order) :-0.7726219E-03  (-0.8800963E-03)
 number of electron     324.0000000 magnetization 
 augmentation part      -21.2275660 magnetization 

 Broyden mixing:
  rms(total) = 0.66969E-02    rms(broyden)= 0.66969E-02
  rms(prec ) = 0.86398E-02
  weight for this iteration     100.00

 eigenvalues of (default mixing * dielectric matrix)
  average eigenvalue GAMMA=   1.2936
  3.2112  2.5579  1.4968  1.4968  0.8004  0.8004  0.5229  0.3934  0.3628

 Free energy of the ion-electron system (eV)
  ---------------------------------------------------
  alpha Z        PSCENC =       241.31226704
  Ewald energy   TEWEN  =     60956.45383543
  -Hartree energ DENC   =    -72773.01660386
  -exchange      EXHF   =         0.00000000
  -V(xc)+E(xc)   XCENC  =     -2091.04209908
  PAW double counting   =      8233.73337609    -5588.77953534
  entropy T*S    EENTRO =        -0.00000000
  eigenvalues    EBANDS =     -1255.27401468
  atomic energy  EATOM  =     11953.08265402
  Solvation  Ediel_sol  =         0.00000000
  ---------------------------------------------------
  free energy    TOTEN  =      -323.53012037 eV

  energy without entropy =     -323.53012037  energy(sigma->0) =     -323.53012037


--------------------------------------------------------------------------------------------------------




--------------------------------------- Iteration      1(  15)  ---------------------------------------


    POTLOK:  cpu time    0.3127: real time    0.3132
    SETDIJ:  cpu time    0.0114: real time    0.0114
    EDDIAG:  cpu time    2.5886: real time    2.5957
  RMM-DIIS:  cpu time   54.3111: real time   54.4986
    ORTHCH:  cpu time    0.2162: real time    0.2164
       DOS:  cpu time    0.0005: real time    0.0005
    CHARGE:  cpu time    1.1613: real time    1.1626
    MIXING:  cpu time    0.0081: real time    0.0081
    --------------------------------------------
      LOOP:  cpu time   58.6099: real time   58.8065

 eigenvalue-minimisations  :  2632
 total energy-change (2. order) :-0.5147449E-03  (-0.2356208E-03)
 number of electron     324.0000000 magnetization 
 augmentation part      -21.2278090 magnetization 

 Broyden mixing:
  rms(total) = 0.46936E-02    rms(broyden)= 0.46936E-02
  rms(prec ) = 0.61272E-02
  weight for this iteration     100.00

 eigenvalues of (default mixing * dielectric matrix)
  average eigenvalue GAMMA=   1.3027
  3.5304  2.4338  1.7020  1.7020  0.9082  0.8090  0.8090  0.3956  0.3618  0.3752

 Free energy of the ion-electron system (eV)
  ---------------------------------------------------
  alpha Z        PSCENC =       241.31226704
  Ewald energy   TEWEN  =     60956.45383543
  -Hartree energ DENC   =    -72775.74128586
  -exchange      EXHF   =         0.00000000
  -V(xc)+E(xc)   XCENC  =     -2091.02559937
  PAW double counting   =      8233.76893982    -5588.80068272
  entropy T*S    EENTRO =        -0.00000000
  eigenvalues    EBANDS =     -1252.58076348
  atomic energy  EATOM  =     11953.08265402
  Solvation  Ediel_sol  =         0.00000000
  ---------------------------------------------------
  free energy    TOTEN  =      -323.53063511 eV

  energy without entropy =     -323.53063511  energy(sigma->0) =     -323.53063511


--------------------------------------------------------------------------------------------------------




--------------------------------------- Iteration      1(  16)  ---------------------------------------


    POTLOK:  cpu time    0.3152: real time    0.3156
    SETDIJ:  cpu time    0.0162: real time    0.0162
    EDDIAG:  cpu time    2.5833: real time    2.5903
  RMM-DIIS:  cpu time   45.3398: real time   45.4773
    ORTHCH:  cpu time    0.2238: real time    0.2241
       DOS:  cpu time    0.0004: real time    0.0004
    CHARGE:  cpu time    1.1684: real time    1.1695
    MIXING:  cpu time    0.0090: real time    0.0090
    --------------------------------------------
      LOOP:  cpu time   49.6562: real time   49.8024

 eigenvalue-minimisations  :  2197
 total energy-change (2. order) :-0.1063703E-02  (-0.6622323E-04)
 number of electron     324.0000000 magnetization 
 augmentation part      -21.2357172 magnetization 

 Broyden mixing:
  rms(total) = 0.31790E-02    rms(broyden)= 0.31790E-02
  rms(prec ) = 0.42637E-02
  weight for this iteration     100.00

 eigenvalues of (default mixing * dielectric matrix)
  average eigenvalue GAMMA=   1.3988
  4.1446  2.5521  1.9008  1.9008  1.0708  1.0708  0.8090  0.8090  0.3948  0.3610
  0.3729

 Free energy of the ion-electron system (eV)
  ---------------------------------------------------
  alpha Z        PSCENC =       241.31226704
  Ewald energy   TEWEN  =     60956.45383543
  -Hartree energ DENC   =    -72778.21752490
  -exchange      EXHF   =         0.00000000
  -V(xc)+E(xc)   XCENC  =     -2091.01349087
  PAW double counting   =      8234.08724839    -5589.11897498
  entropy T*S    EENTRO =        -0.00000000
  eigenvalues    EBANDS =     -1250.11771295
  atomic energy  EATOM  =     11953.08265402
  Solvation  Ediel_sol  =         0.00000000
  ---------------------------------------------------
  free energy    TOTEN  =      -323.53169882 eV

  energy without entropy =     -323.53169882  energy(sigma->0) =     -323.53169882


--------------------------------------------------------------------------------------------------------




--------------------------------------- Iteration      1(  17)  ---------------------------------------


    POTLOK:  cpu time    0.3146: real time    0.3191
    SETDIJ:  cpu time    0.0116: real time    0.0116
    EDDIAG:  cpu time    2.6157: real time    2.6225
  RMM-DIIS:  cpu time   43.1852: real time   43.3217
    ORTHCH:  cpu time    0.2374: real time    0.2376
       DOS:  cpu time    0.0045: real time    0.0046
    CHARGE:  cpu time    1.1726: real time    1.1739
    MIXING:  cpu time    0.0123: real time    0.0123
    --------------------------------------------
      LOOP:  cpu time   47.5539: real time   47.7031

 eigenvalue-minimisations  :  2110
 total energy-change (2. order) :-0.1881786E-02  (-0.6819836E-04)
 number of electron     324.0000000 magnetization 
 augmentation part      -21.2401552 magnetization 

 Broyden mixing:
  rms(total) = 0.26818E-02    rms(broyden)= 0.26817E-02
  rms(prec ) = 0.32190E-02
  weight for this iteration     100.00

 eigenvalues of (default mixing * dielectric matrix)
  average eigenvalue GAMMA=   1.4052
  4.7199  2.7657  2.2496  1.4851  1.4851  0.9986  0.8105  0.8105  0.4090  0.3951
  0.3604  0.3733

 Free energy of the ion-electron system (eV)
  ---------------------------------------------------
  alpha Z        PSCENC =       241.31226704
  Ewald energy   TEWEN  =     60956.45383543
  -Hartree energ DENC   =    -72782.11155682
  -exchange      EXHF   =         0.00000000
  -V(xc)+E(xc)   XCENC  =     -2090.99904433
  PAW double counting   =      8232.58406859    -5587.61680728
  entropy T*S    EENTRO =        -0.00000000
  eigenvalues    EBANDS =     -1246.23899727
  atomic energy  EATOM  =     11953.08265402
  Solvation  Ediel_sol  =         0.00000000
  ---------------------------------------------------
  free energy    TOTEN  =      -323.53358060 eV

  energy without entropy =     -323.53358060  energy(sigma->0) =     -323.53358060


--------------------------------------------------------------------------------------------------------




--------------------------------------- Iteration      1(  18)  ---------------------------------------


    POTLOK:  cpu time    0.3161: real time    0.3164
    SETDIJ:  cpu time    0.0114: real time    0.0114
    EDDIAG:  cpu time    2.6113: real time    2.6142
  RMM-DIIS:  cpu time   46.5828: real time   46.7093
    ORTHCH:  cpu time    0.2278: real time    0.2280
       DOS:  cpu time    0.0004: real time    0.0004
    CHARGE:  cpu time    1.1623: real time    1.1635
    MIXING:  cpu time    0.0087: real time    0.0087
    --------------------------------------------
      LOOP:  cpu time   50.9208: real time   51.0519

 eigenvalue-minimisations  :  2279
 total energy-change (2. order) :-0.6869362E-03  (-0.2614462E-04)
 number of electron     324.0000000 magnetization 
 augmentation part      -21.2400596 magnetization 

 Broyden mixing:
  rms(total) = 0.17872E-02    rms(broyden)= 0.17872E-02
  rms(prec ) = 0.22041E-02
  weight for this iteration     100.00

 eigenvalues of (default mixing * dielectric matrix)
  average eigenvalue GAMMA=   1.5050
  5.5192  3.0187  2.3661  1.8066  1.8066  0.9659  0.9659  0.8090  0.8090  0.3952
  0.3808  0.3635  0.3579

 Free energy of the ion-electron system (eV)
  ---------------------------------------------------
  alpha Z        PSCENC =       241.31226704
  Ewald energy   TEWEN  =     60956.45383543
  -Hartree energ DENC   =    -72783.34209303
  -exchange      EXHF   =         0.00000000
  -V(xc)+E(xc)   XCENC  =     -2090.99417504
  PAW double counting   =      8232.22380499    -5587.25806062
  entropy T*S    EENTRO =        -0.00000000
  eigenvalues    EBANDS =     -1245.01250035
  atomic energy  EATOM  =     11953.08265402
  Solvation  Ediel_sol  =         0.00000000
  ---------------------------------------------------
  free energy    TOTEN  =      -323.53426754 eV

  energy without entropy =     -323.53426754  energy(sigma->0) =     -323.53426754


--------------------------------------------------------------------------------------------------------




--------------------------------------- Iteration      1(  19)  ---------------------------------------


    POTLOK:  cpu time    0.3160: real time    0.3174
    SETDIJ:  cpu time    0.0115: real time    0.0115
    EDDIAG:  cpu time    2.6084: real time    2.6154
  RMM-DIIS:  cpu time   46.3333: real time   46.5011
    ORTHCH:  cpu time    0.2226: real time    0.2228
       DOS:  cpu time    0.0005: real time    0.0005
    CHARGE:  cpu time    1.1731: real time    1.1744
    MIXING:  cpu time    0.0087: real time    0.0087
    --------------------------------------------
      LOOP:  cpu time   50.6741: real time   50.8517

 eigenvalue-minimisations  :  2230
 total energy-change (2. order) :-0.8361063E-03  (-0.1513690E-04)
 number of electron     324.0000000 magnetization 
 augmentation part      -21.2337940 magnetization 

 Broyden mixing:
  rms(total) = 0.11336E-02    rms(broyden)= 0.11336E-02
  rms(prec ) = 0.12743E-02
  weight for this iteration     100.00

 eigenvalues of (default mixing * dielectric matrix)
  average eigenvalue GAMMA=   1.5407
  6.2589  3.1842  2.4512  1.8496  1.8496  1.0388  1.0388  0.8068  0.8068  0.7876
  0.3955  0.3820  0.3631  0.3568

 Free energy of the ion-electron system (eV)
  ---------------------------------------------------
  alpha Z        PSCENC =       241.31226704
  Ewald energy   TEWEN  =     60956.45383543
  -Hartree energ DENC   =    -72784.24146414
  -exchange      EXHF   =         0.00000000
  -V(xc)+E(xc)   XCENC  =     -2090.99088042
  PAW double counting   =      8232.71676654    -5587.75377930
  entropy T*S    EENTRO =        -0.00000000
  eigenvalues    EBANDS =     -1244.11450283
  atomic energy  EATOM  =     11953.08265402
  Solvation  Ediel_sol  =         0.00000000
  ---------------------------------------------------
  free energy    TOTEN  =      -323.53510365 eV

  energy without entropy =     -323.53510365  energy(sigma->0) =     -323.53510365


--------------------------------------------------------------------------------------------------------




--------------------------------------- Iteration      1(  20)  ---------------------------------------


    POTLOK:  cpu time    0.3100: real time    0.3103
    SETDIJ:  cpu time    0.0115: real time    0.0115
    EDDIAG:  cpu time    2.5986: real time    2.6097
  RMM-DIIS:  cpu time   44.8135: real time   44.9485
    ORTHCH:  cpu time    0.2231: real time    0.2235
       DOS:  cpu time    0.0005: real time    0.0005
    CHARGE:  cpu time    1.1660: real time    1.1711
    MIXING:  cpu time    0.0088: real time    0.0088
    --------------------------------------------
      LOOP:  cpu time   49.1320: real time   49.2840

 eigenvalue-minimisations  :  2167
 total energy-change (2. order) :-0.2786874E-03  (-0.5750683E-05)
 number of electron     324.0000000 magnetization 
 augmentation part      -21.2344695 magnetization 

 Broyden mixing:
  rms(total) = 0.60589E-03    rms(broyden)= 0.60589E-03
  rms(prec ) = 0.71200E-03
  weight for this iteration     100.00

 eigenvalues of (default mixing * dielectric matrix)
  average eigenvalue GAMMA=   1.5385
  6.8159  3.2561  2.5014  1.7734  1.7734  1.2701  1.1218  0.9669  0.8080  0.8080
  0.4851  0.3952  0.3819  0.3633  0.3566

 Free energy of the ion-electron system (eV)
  ---------------------------------------------------
  alpha Z        PSCENC =       241.31226704
  Ewald energy   TEWEN  =     60956.45383543
  -Hartree energ DENC   =    -72784.53385437
  -exchange      EXHF   =         0.00000000
  -V(xc)+E(xc)   XCENC  =     -2090.99267157
  PAW double counting   =      8233.10780582    -5588.14442046
  entropy T*S    EENTRO =        -0.00000000
  eigenvalues    EBANDS =     -1243.82099825
  atomic energy  EATOM  =     11953.08265402
  Solvation  Ediel_sol  =         0.00000000
  ---------------------------------------------------
  free energy    TOTEN  =      -323.53538233 eV

  energy without entropy =     -323.53538233  energy(sigma->0) =     -323.53538233


--------------------------------------------------------------------------------------------------------




--------------------------------------- Iteration      1(  21)  ---------------------------------------


    POTLOK:  cpu time    0.3223: real time    0.3227
    SETDIJ:  cpu time    0.0161: real time    0.0161
    EDDIAG:  cpu time    2.6298: real time    2.6327
  RMM-DIIS:  cpu time   47.9327: real time   48.0534
    ORTHCH:  cpu time    0.2296: real time    0.2299
       DOS:  cpu time    0.0005: real time    0.0005
    CHARGE:  cpu time    1.1724: real time    1.1777
    MIXING:  cpu time    0.0090: real time    0.0090
    --------------------------------------------
      LOOP:  cpu time   52.3125: real time   52.4419

 eigenvalue-minimisations  :  2289
 total energy-change (2. order) :-0.1196557E-03  (-0.2126848E-05)
 number of electron     324.0000000 magnetization 
 augmentation part      -21.2358730 magnetization 

 Broyden mixing:
  rms(total) = 0.36666E-03    rms(broyden)= 0.36666E-03
  rms(prec ) = 0.44707E-03
  weight for this iteration     100.00

 eigenvalues of (default mixing * dielectric matrix)
  average eigenvalue GAMMA=   1.5560
  7.2667  3.2966  2.5313  2.0764  1.7554  1.7554  0.9665  0.9665  0.8058  0.8058
  0.7728  0.3566  0.3628  0.3796  0.3955  0.4017

 Free energy of the ion-electron system (eV)
  ---------------------------------------------------
  alpha Z        PSCENC =       241.31226704
  Ewald energy   TEWEN  =     60956.45383543
  -Hartree energ DENC   =    -72784.66399335
  -exchange      EXHF   =         0.00000000
  -V(xc)+E(xc)   XCENC  =     -2090.99399164
  PAW double counting   =      8233.22835874    -5588.26438600
  entropy T*S    EENTRO =        -0.00000000
  eigenvalues    EBANDS =     -1243.69024625
  atomic energy  EATOM  =     11953.08265402
  Solvation  Ediel_sol  =         0.00000000
  ---------------------------------------------------
  free energy    TOTEN  =      -323.53550199 eV

  energy without entropy =     -323.53550199  energy(sigma->0) =     -323.53550199


--------------------------------------------------------------------------------------------------------




--------------------------------------- Iteration      1(  22)  ---------------------------------------


    POTLOK:  cpu time    0.3117: real time    0.3121
    SETDIJ:  cpu time    0.0113: real time    0.0114
    EDDIAG:  cpu time    2.5943: real time    2.6052
  RMM-DIIS:  cpu time   35.5202: real time   35.6171
    ORTHCH:  cpu time    0.2336: real time    0.2338
       DOS:  cpu time    0.0006: real time    0.0006
    CHARGE:  cpu time    1.1698: real time    1.1711
    MIXING:  cpu time    0.0122: real time    0.0122
    --------------------------------------------
      LOOP:  cpu time   39.8536: real time   39.9635

 eigenvalue-minimisations  :  1669
 total energy-change (2. order) :-0.9695337E-04  (-0.6417468E-06)
 number of electron     324.0000000 magnetization 
 augmentation part      -21.2367569 magnetization 

 Broyden mixing:
  rms(total) = 0.33295E-03    rms(broyden)= 0.33295E-03
  rms(prec ) = 0.37849E-03
  weight for this iteration     100.00

 eigenvalues of (default mixing * dielectric matrix)
  average eigenvalue GAMMA=   1.5852
  7.4769  3.4926  2.6038  2.3475  1.8867  1.8867  1.0344  1.0327  1.0327  0.8056
  0.8056  0.6602  0.3564  0.3629  0.3954  0.3787  0.3889

[...]
  0.000   0.000   0.000  -0.000  -0.000   0.011   0.000   0.000
 -0.000   0.000  -0.000   0.000  -0.000   0.000   0.011   0.000
 -0.000   0.000  -0.000  -0.000   0.000   0.000   0.000   0.011
  0.001   0.000   0.000  -0.000  -0.000   0.000  -0.000   0.000
 -0.000   0.000  -0.014  -0.001  -0.000  -0.000   0.000  -0.000
 -0.009  -0.000   0.000  -0.018  -0.000  -0.000  -0.000  -0.000
 -0.000   0.000  -0.000  -0.000  -0.014  -0.000   0.000  -0.000
 -0.000   0.000   0.001  -0.000  -0.000   0.000   0.000   0.000
 total augmentation occupancy for first ion, spin component:           1
  1.936   0.195  -0.002   0.200   0.003   0.009   0.038   0.004  -0.001   0.001   0.007   0.000   0.001
  0.195   1.323  -0.015  -0.926  -0.013   0.004   0.363  -0.001   0.005   0.002  -0.022   0.003   0.002
 -0.002  -0.015   1.323   0.016  -0.002  -0.460  -0.008   0.004  -0.004  -0.112  -0.000   0.001  -0.041
  0.200  -0.926   0.016   1.493   0.000  -0.008  -0.534  -0.006   0.002  -0.004  -0.038  -0.002  -0.004
  0.003  -0.013  -0.002   0.000   1.341   0.004  -0.007  -0.477  -0.044   0.001   0.000  -0.118  -0.001
  0.009   0.004  -0.460  -0.008   0.004   0.290   0.002   0.003  -0.000   0.036  -0.001  -0.001   0.006
  0.038   0.363  -0.008  -0.534  -0.007   0.002   0.280   0.003  -0.000   0.002   0.044   0.001   0.000
  0.004  -0.001   0.004  -0.006  -0.477   0.003   0.003   0.295   0.009  -0.001   0.000   0.038  -0.001
 -0.001   0.005  -0.004   0.002  -0.044  -0.000  -0.000   0.009   0.020   0.000  -0.000   0.000  -0.000
  0.001   0.002  -0.112  -0.004   0.001   0.036   0.002  -0.001   0.000   0.017   0.001   0.000  -0.001
  0.007  -0.022  -0.000  -0.038   0.000  -0.001   0.044   0.000  -0.000   0.001   0.019   0.000  -0.001
  0.000   0.003   0.001  -0.002  -0.118  -0.001   0.001   0.038   0.000   0.000   0.000   0.018   0.000
  0.001   0.002  -0.041  -0.004  -0.001   0.006   0.000  -0.001  -0.000  -0.001  -0.001   0.000   0.020


------------------------ aborting loop because EDIFF is reached ----------------------------------------


    CHARGE:  cpu time    1.1692: real time    1.1705
    FORLOC:  cpu time    0.0861: real time    0.0862
    FORNL :  cpu time   14.0135: real time   14.0632
    STRESS:  cpu time   73.9718: real time   74.2159
    FORCOR:  cpu time    0.3547: real time    0.3550
    FORHAR:  cpu time    0.1457: real time    0.1458
    MIXING:  cpu time    0.0077: real time    0.0077
    OFIELD:  cpu time    0.0000: real time    0.0000

  Number of pair interactions contributing to vdW energy:  265559
  Edisp (eV):  -18.82482
    FORVDW:  cpu time    0.0292: real time    0.0292

  FORCE on cell =-STRESS in cart. coord.  units (eV):
  Direction    XX          YY          ZZ          XY          YZ          ZX
  --------------------------------------------------------------------------------------
  Alpha Z   241.31227   241.31227   241.31227
  Ewald   70193.44147 70214.14198-79296.61578    52.82593    48.65887   -12.59086
  Hartree 72549.41486 72556.19776-72171.17591    16.26351     8.05558     0.00476
  E(xc)   -1349.60794 -1349.66394 -1367.95489    -0.71727    -1.37786     0.77879
  Local  ************************146417.48939   -67.63242   -55.60668    13.10996
  n-local  3539.70595  3539.61712  3719.56328    -2.40554     9.64735    -5.86326
  augment  -760.70429  -760.39522  -800.43175     1.48514    -1.41567     1.07372
  Kinetic  3280.21796  3281.30913  3239.29186    15.01722     7.89379    -1.35381
  Fock        0.00000     0.00000     0.00000     0.00000     0.00000     0.00000
  vdW       -12.01926   -11.85250    -9.03159     0.05185    -0.00615     0.56832
  -------------------------------------------------------------------------------------
  Total     -13.96674   -11.42872   -27.55312    14.88843    15.84924    -4.27237
  in kB      -7.52424    -6.15694   -14.84357     8.02078     8.53839    -2.30164
  external pressure =       -9.51 kB  Pullay stress =        0.00 kB

  kinetic pressure (ideal gas correction) =      0.24 kB
  total pressure  =     -9.27 kB
  Total+kin.    -7.296      -5.956     -14.566       8.025       8.550      -2.252

 VOLUME and BASIS-vectors are now :
 -----------------------------------------------------------------------------
  energy-cutoff  :      550.00
  volume of cell :     2974.01
      direct lattice vectors                 reciprocal lattice vectors
    10.599107605  0.000000000  0.000000000     0.094347566  0.057684847  0.000231761
    -5.612883814  9.180260567  0.000000000     0.000000000  0.108929370  0.001957398
     0.260721861 -0.549228442 30.564603811     0.000000000  0.000000000  0.032717584

  length of vectors
    10.599107605 10.760188139 30.570649877     0.110585073  0.108946955  0.032717584


 FORCES acting on ions
    electron-ion (+dipol)            ewald-force                    non-local-force                 convergence-correction
 -----------------------------------------------------------------------------------------------
   0.584E+00 -.107E+01 -.825E+03   -.649E+00 0.101E+01 0.830E+03   -.310E-01 0.368E+00 -.551E+01   -.169E-03 0.273E-04 -.757E-03
   -.718E+00 -.103E+01 -.821E+03   0.717E+00 0.980E+00 0.826E+03   -.109E+00 0.305E+00 -.569E+01   0.159E-03 0.106E-03 -.713E-03
   -.206E+00 0.960E+00 -.823E+03   0.181E+00 -.107E+01 0.828E+03   -.454E-02 0.244E+00 -.551E+01   -.360E-04 -.154E-03 -.750E-03
   -.125E+01 0.997E+00 -.826E+03   0.124E+01 -.107E+01 0.832E+03   0.577E-01 0.163E+00 -.556E+01   0.190E-03 0.205E-03 -.807E-03
   -.214E+00 -.118E+01 -.826E+03   0.168E+00 0.113E+01 0.831E+03   0.626E-02 0.209E+00 -.587E+01   0.204E-03 -.328E-03 -.637E-03
   -.594E+00 -.890E-01 -.825E+03   0.528E+00 0.154E-01 0.830E+03   0.134E-01 0.301E+00 -.547E+01   -.246E-03 0.237E-03 -.671E-03
   -.297E+01 -.527E-01 -.824E+03   0.293E+01 0.137E-01 0.830E+03   0.781E-01 0.197E+00 -.555E+01   -.206E-04 -.251E-03 -.789E-03
   -.162E+01 -.358E+01 -.824E+03   0.165E+01 0.355E+01 0.830E+03   -.849E-01 0.328E+00 -.537E+01   -.360E-03 0.454E-04 -.701E-03
   -.326E+01 -.812E+00 -.822E+03   0.326E+01 0.726E+00 0.828E+03   0.237E+00 0.297E+00 -.559E+01   0.255E-03 0.169E-03 -.637E-03
   -.960E+00 -.684E+00 0.101E+03   0.966E+00 0.620E+00 -.955E+02   -.124E+00 0.304E+00 -.597E+01   -.252E-04 -.426E-03 -.482E-03
   -.272E+01 0.101E+01 0.991E+02   0.277E+01 -.113E+01 -.939E+02   -.827E-01 0.227E+00 -.574E+01   -.304E-03 -.861E-04 -.211E-03
   -.540E+00 -.248E+01 0.103E+03   0.553E+00 0.241E+01 -.979E+02   -.122E+00 0.336E+00 -.589E+01   0.107E-03 0.327E-03 -.135E-03
   0.130E+01 0.143E+01 0.976E+02   -.135E+01 -.154E+01 -.924E+02   -.165E+00 0.444E-01 -.576E+01   -.478E-03 0.498E-03 -.343E-03
   0.227E+01 -.907E+00 0.101E+03   -.231E+01 0.854E+00 -.958E+02   -.312E+00 0.233E+00 -.590E+01   0.500E-03 0.455E-03 -.797E-03
   -.170E+01 0.121E+01 0.995E+02   0.168E+01 -.136E+01 -.943E+02   0.169E-01 0.130E+00 -.584E+01   0.623E-03 -.588E-03 -.397E-03
   -.202E+01 -.148E+01 0.101E+03   0.209E+01 0.138E+01 -.957E+02   -.213E+00 0.436E+00 -.581E+01   0.521E-03 0.173E-03 -.378E-03
   -.642E+00 -.428E+00 0.998E+02   0.662E+00 0.336E+00 -.945E+02   -.157E+00 0.149E+00 -.589E+01   -.191E-03 -.483E-03 -.449E-03
   0.105E-01 -.557E+00 0.102E+03   -.175E-01 0.402E+00 -.963E+02   -.234E+00 0.278E+00 -.578E+01   -.721E-03 0.632E-04 -.761E-03
   -.768E+00 0.103E+01 -.100E+03   0.730E+00 -.982E+00 0.947E+02   0.158E+00 -.161E+00 0.544E+01   -.148E-03 0.711E-04 0.100E-02
   -.157E+01 -.913E+00 -.102E+03   0.156E+01 0.980E+00 0.963E+02   0.565E-01 -.626E-02 0.578E+01   0.214E-03 0.431E-04 0.845E-03
   -.221E+01 -.116E+01 -.988E+02   0.223E+01 0.126E+01 0.935E+02   0.259E+00 -.652E-01 0.590E+01   -.317E-04 -.968E-04 0.940E-03
   0.871E+00 0.266E+01 -.998E+02   -.949E+00 -.255E+01 0.946E+02   0.115E+00 -.528E+00 0.567E+01   0.152E-03 0.210E-03 0.106E-02
   -.211E+01 0.654E+00 -.100E+03   0.205E+01 -.580E+00 0.948E+02   0.358E+00 -.400E+00 0.562E+01   0.100E-03 -.375E-03 0.841E-03
   -.206E+01 0.130E+01 -.997E+02   0.195E+01 -.124E+01 0.945E+02   0.429E+00 -.194E+00 0.579E+01   -.245E-03 0.234E-03 0.864E-03
   -.567E+01 0.145E+01 -.988E+02   0.567E+01 -.140E+01 0.935E+02   0.409E+00 -.203E+00 0.575E+01   -.261E-04 -.263E-03 0.919E-03
   -.897E+00 -.114E+01 -.975E+02   0.876E+00 0.123E+01 0.922E+02   0.663E-01 -.322E+00 0.561E+01   -.311E-03 0.333E-04 0.927E-03
   -.250E+01 -.136E+01 -.997E+02   0.243E+01 0.149E+01 0.945E+02   0.393E+00 -.169E+00 0.592E+01   0.228E-03 0.215E-03 0.834E-03
   0.115E+01 0.390E+01 0.822E+03   -.124E+01 -.381E+01 -.827E+03   -.513E-01 -.523E+00 0.543E+01   -.548E-04 -.478E-03 0.356E-03
   0.131E+00 0.600E+01 0.827E+03   -.209E+00 -.593E+01 -.832E+03   0.800E-01 -.814E+00 0.537E+01   -.338E-03 -.123E-03 0.245E-04
   0.168E+01 -.113E+01 0.822E+03   -.179E+01 0.124E+01 -.827E+03   0.825E-01 -.225E+00 0.581E+01   0.106E-03 0.350E-03 0.616E-04
   0.308E-02 0.215E+01 0.825E+03   -.947E-01 -.213E+01 -.831E+03   0.615E-01 -.352E+00 0.557E+01   -.425E-03 0.463E-03 0.279E-03
   -.314E+01 0.236E+00 0.823E+03   0.310E+01 -.124E+00 -.829E+03   0.211E+00 -.312E+00 0.560E+01   0.546E-03 0.499E-03 0.683E-03
   -.283E+01 -.236E+01 0.823E+03   0.280E+01 0.244E+01 -.828E+03   0.158E+00 -.111E+00 0.550E+01   0.628E-03 -.538E-03 0.195E-03
   -.522E+01 0.342E+00 0.823E+03   0.526E+01 -.280E+00 -.828E+03   0.262E+00 -.171E+00 0.572E+01   0.519E-03 0.236E-03 0.248E-03
   -.124E+01 -.237E+01 0.823E+03   0.118E+01 0.244E+01 -.828E+03   0.167E+00 -.543E-01 0.564E+01   -.202E-03 -.530E-03 0.391E-03
   -.316E+01 -.129E+00 0.823E+03   0.313E+01 0.197E+00 -.829E+03   0.111E+00 -.333E+00 0.573E+01   -.689E-03 0.913E-04 0.710E-03
   0.379E+01 0.124E+01 -.463E+03   -.390E+01 -.129E+01 0.463E+03   -.334E+00 -.111E+00 -.221E+00   0.175E-04 0.442E-04 0.372E-03
   -.154E+01 -.942E+00 -.459E+03   0.149E+01 0.906E+00 0.459E+03   0.298E+00 0.521E-01 -.183E-02   0.910E-05 -.657E-04 0.476E-03
   0.368E+01 -.271E+01 -.460E+03   -.378E+01 0.274E+01 0.460E+03   -.194E+00 0.152E+00 0.103E-01   0.190E-04 0.121E-04 0.523E-03
   0.113E+01 0.251E+01 -.462E+03   -.110E+01 -.256E+01 0.462E+03   0.503E-01 -.822E-01 -.236E+00   0.757E-04 0.940E-04 0.301E-03
   0.238E+01 -.112E+01 -.459E+03   -.237E+01 0.112E+01 0.459E+03   -.758E-03 -.464E-01 0.377E+00   0.215E-04 -.119E-03 0.419E-03
   0.355E+01 0.155E+01 -.464E+03   -.362E+01 -.158E+01 0.464E+03   -.185E+00 -.218E+00 -.363E+00   -.259E-04 0.178E-04 0.385E-03
   0.264E+01 0.233E+01 -.464E+03   -.276E+01 -.235E+01 0.464E+03   -.143E+00 -.639E-01 -.163E+00   -.782E-04 0.677E-04 0.362E-03
   0.588E+01 -.258E+01 -.463E+03   -.597E+01 0.265E+01 0.463E+03   -.232E+00 0.353E+00 -.104E+00   -.155E-04 -.890E-04 0.361E-03
   0.274E+01 0.240E+00 -.463E+03   -.287E+01 -.265E+00 0.463E+03   -.157E+00 0.736E-01 -.162E+00   0.638E-04 -.355E-04 0.394E-03
   0.235E+01 0.848E+00 0.464E+03   -.242E+01 -.736E+00 -.464E+03   0.178E+00 0.119E+00 0.528E+00   0.292E-03 0.807E-04 -.185E-03
   0.389E+01 -.246E+01 0.461E+03   -.393E+01 0.253E+01 -.461E+03   -.185E+00 0.334E+00 0.329E+00   0.240E-03 -.398E-04 -.246E-03
   0.386E+01 0.232E+01 0.461E+03   -.380E+01 -.232E+01 -.461E+03   -.372E-01 -.104E+00 0.196E+00   -.191E-03 0.258E-03 -.320E-03
   0.303E+01 -.188E+01 0.462E+03   -.302E+01 0.192E+01 -.462E+03   0.218E-01 0.114E+00 0.104E+00   -.182E-03 0.280E-03 -.324E-03
   0.340E+00 -.250E+00 0.461E+03   -.320E+00 0.261E+00 -.461E+03   0.967E-01 0.117E+00 0.212E+00   0.282E-03 -.236E-04 -.241E-03
   0.150E+01 0.112E+01 0.459E+03   -.157E+01 -.114E+01 -.459E+03   0.965E-01 0.319E-01 -.286E-01   0.313E-03 0.308E-04 -.370E-03
   0.711E+00 0.211E+01 0.462E+03   -.671E+00 -.211E+01 -.462E+03   0.172E-01 -.164E+00 0.104E+00   0.655E-06 -.163E-03 -.345E-03
   0.225E+01 -.192E+01 0.462E+03   -.227E+01 0.191E+01 -.462E+03   0.976E-01 -.794E-01 -.116E+00   -.441E-03 -.524E-04 -.357E-03
   0.878E+00 -.767E+00 0.463E+03   -.872E+00 0.829E+00 -.463E+03   0.198E+00 -.130E+00 0.184E-01   -.974E-05 -.176E-03 -.361E-03
 -----------------------------------------------------------------------------------------------
   -.168E+01 0.466E-01 0.386E+00   -.175E-13 -.533E-14 -.568E-12   0.168E+01 -.479E-01 -.387E+00   0.423E-03 0.154E-03 0.160E-02
 
 
 POSITION                                       TOTAL-FORCE (eV/Angst)
 -----------------------------------------------------------------------------------
      1.92515      0.64743     20.85656        -0.082680      0.295831     -0.248309
      0.04639      3.69385     20.83310        -0.102611      0.239911     -0.333917
     -1.84205      6.77142     20.84388        -0.025498      0.130007     -0.218328
      5.43790      0.65439     20.86806         0.054011      0.086585     -0.327080
      3.57459      3.70270     20.88349        -0.033563      0.146708     -0.638381
      1.70885      6.77232     20.85661        -0.042176      0.222376     -0.189676
      8.97481      0.66037     20.85223         0.042346      0.155279     -0.269852
      7.11027      3.69861     20.83905        -0.053193      0.288598     -0.126596
      5.21622      6.76455     20.84619         0.234513      0.202073     -0.304257
     -4.31495      8.91898     13.39647        -0.119287      0.211738     -0.619008
     -0.57727      2.79969     13.39098        -0.027729      0.090279     -0.471131
     -2.42532      5.85566     13.38164        -0.104763      0.235424     -0.535865
      4.83825     -0.21526     13.40702        -0.211226     -0.074469     -0.490309
      2.97367      2.79707     13.38771        -0.348355      0.155430     -0.574462
      1.07629      5.87810     13.39469        -0.009626     -0.041996     -0.503627
      2.73933      8.91880     13.39523        -0.143160      0.305552     -0.502557
      6.49351      2.83274     13.40294        -0.138922      0.037822     -0.571506
      4.62354      5.88023     13.38697        -0.241215      0.103849     -0.441473
      1.89743      0.70191     17.20566         0.133499     -0.100047      0.032693
      0.01654      3.75774     17.19382         0.064775      0.076362      0.325413
     -1.87016      6.82088     17.16360         0.283070      0.053909      0.559322
      5.42751      0.74014     17.18476         0.056119     -0.381524      0.370302
      3.53948      3.79902     17.18689         0.307564     -0.295145      0.278551
      1.64518      6.84323     17.17608         0.314985     -0.114749      0.477249
      8.92003      0.70787     17.17389         0.401326     -0.123550      0.404945
      7.07911      3.77818     17.17247         0.057488     -0.211936      0.278126
      5.17638      6.83455     17.16848         0.324156     -0.024500      0.555834
      1.28961     -0.16911      9.72401        -0.137597     -0.418799      0.142810
     -0.60677      2.92499      9.69126         0.008084     -0.723867      0.188212
     -2.45665      5.93208      9.70078        -0.019060     -0.116892      0.529325
      4.81621     -0.16300      9.69419        -0.019713     -0.322542      0.385849
      2.92047      2.87696      9.70369         0.171233     -0.195812      0.331227
      1.06235      5.92540      9.71642         0.125094     -0.035399      0.271258
      2.67646      9.00117      9.70305         0.293837     -0.104475      0.481784
      6.45359      2.87299      9.70752         0.100888      0.018016      0.393558
      4.58557      5.95937      9.69888         0.085057     -0.252849      0.460648
      0.17507     -0.32593     19.03314        -0.456238     -0.169855     -0.252586
      8.85594      2.71496     19.00831         0.292978      0.035304     -0.007344
      7.01780      5.76561     19.00542        -0.293859      0.193193      0.072206
      3.69070     -0.33392     19.03355         0.081799     -0.143698     -0.327220
      1.83085      2.71929     18.99675        -0.013135     -0.031830      0.482121
     -0.04377      5.80132     19.04019        -0.274189     -0.275309     -0.405573
      7.22859     -0.33348     19.03204        -0.263037     -0.095811     -0.135809
      5.36578      2.70536     19.02997        -0.345304      0.421749     -0.099514
      3.47927      5.78052     19.03084        -0.273551      0.054672     -0.173466
      1.17853      1.81780     11.51276         0.126872      0.229125      0.694986
     -0.65060      4.85288     11.52828        -0.241655      0.432749      0.523306
     -2.52245      7.95739     11.53839        -0.017906     -0.119555      0.249615
      4.73604      1.81767     11.54220         0.008690      0.162241      0.140186
      2.85740      4.87723     11.53666         0.111231      0.128767      0.290788
      0.96617      7.94461     11.55519         0.045051      0.009114     -0.015837
      8.25614      1.84386     11.54097         0.033993     -0.182994      0.089507
      6.38357      4.89597     11.55257         0.078843     -0.086938     -0.196931
      4.49954      7.95570     11.54570         0.200285     -0.079258     -0.027708
 -----------------------------------------------------------------------------------
    total drift:                               -0.001465     -0.001135      0.001499


--------------------------------------------------------------------------------------------------------



  FREE ENERGIE OF THE ION-ELECTRON SYSTEM (eV)
  ---------------------------------------------------
  free  energy   TOTEN  =      -342.31522320 eV

  energy  without entropy=     -342.31522320  energy(sigma->0) =     -342.31522320
 
 d Force =-0.8267162E-02[-0.105E-01,-0.608E-02]  d Energy =-0.8193625E-02-0.735E-04
 d Force =-0.2478366E+02[-0.248E+02,-0.248E+02]  d Ewald  =-0.2478366E+02 0.271E-05


--------------------------------------------------------------------------------------------------------


    POTLOK:  cpu time    0.3392: real time    0.3396


--------------------------------------------------------------------------------------------------------


           RANDOM_SEED =         174995575              324                0
   IONSTEP:  cpu time    0.0001: real time    0.0001

  ENERGY OF THE ELECTRON-ION-THERMOSTAT SYSTEM (eV)
  ---------------------------------------------------
% ion-electron   TOTEN  =      -342.315223  see above
  kinetic energy EKIN   =         0.651464
  kin. lattice  EKIN_LAT=         0.000000  (temperature   95.09 K)
  nose potential ES     =        -0.003626
  nose kinetic   EPS    =         0.000144
  ---------------------------------------------------
  total energy   ETOTAL =      -341.667242 eV

  maximum distance moved by ions :      0.51E-03


 mean value of Nose-termostat <S>:     0.995 mean value of <T> :    95.093
 mean temperature <T/S>/<1/S>  :    95.093

    WAVPRE:  cpu time    0.1091: real time    0.1120
    FEWALD:  cpu time    0.0011: real time    0.0011
    ORTHCH:  cpu time    8.2708: real time    8.2881
    POTLOK:  cpu time    0.3217: real time    0.3220
    EDDIAG:  cpu time    2.6137: real time    2.6167
     LOOP+:  cpu time  524.7515: real time  526.2838
    4ORBIT:  cpu time    0.0000: real time    0.0000

 total amount of memory used by VASP MPI-rank0   377278. kBytes
=======================================================================

   base      :      30000. kBytes
   nonl-proj :     200816. kBytes
   fftplans  :      19943. kBytes
   grid      :      90496. kBytes
   one-center:        839. kBytes
   wavefun   :      35184. kBytes
 
  
  
 General timing and accounting informations for this job:
 ========================================================
  
                  Total CPU time used (sec):     6010.073
                            User time (sec):     5996.307
                          System time (sec):       13.766
                         Elapsed time (sec):     6028.122
  
                   Maximum memory used (kb):      837924.
                   Average memory used (kb):           0.
  
                          Minor page faults:       415190
                          Major page faults:            0
                 Voluntary context switches:          855
