 vasp.6.1.1 19Jun20 (build Dec 21 2021 08:45:49) complex                        
  
 executed on             LinuxIFC date 2023.10.07  15:27:30
 running on   40 total cores
 distrk:  each k-point on   40 cores,    1 groups
 distr:  one band on NCORE=   1 cores,   40 groups


--------------------------------------------------------------------------------------------------------


 INCAR:
 POTCAR:   PAW_PBE Te 08Apr2002                   
 POTCAR:   PAW_PBE Mo 08Apr2002                   
 -----------------------------------------------------------------------------
|                                                                             |
|           W    W    AA    RRRRR   N    N  II  N    N   GGGG   !!!           |
|           W    W   A  A   R    R  NN   N  II  NN   N  G    G  !!!           |
|           W    W  A    A  R    R  N N  N  II  N N  N  G       !!!           |
|           W WW W  AAAAAA  RRRRR   N  N N  II  N  N N  G  GGG   !            |
|           WW  WW  A    A  R   R   N   NN  II  N   NN  G    G                |
|           W    W  A    A  R    R  N    N  II  N    N   GGGG   !!!           |
|                                                                             |
|     For optimal performance we recommend to set                             |
|       NCORE = 4 - approx SQRT(number of cores).                             |
|     NCORE specifies how many cores store one orbital (NPAR=cpu/NCORE).      |
|     This setting can greatly improve the performance of VASP for DFT.       |
|     The default, NCORE=1 might be grossly inefficient on modern             |
|     multi-core architectures or massively parallel machines. Do your        |
|     own testing!!!!                                                         |
|     Unfortunately you need to use the default for GW and RPA                |
|     calculations (for HF NCORE is supported but not extensively tested      |
|     yet).                                                                   |
|                                                                             |
 -----------------------------------------------------------------------------

 POTCAR:   PAW_PBE Te 08Apr2002                   
   VRHFIN =Te: s2p4                                                                                 
   LEXCH  = PE                                                                                      
   EATOM  =   223.2721 eV,   16.4100 Ry                                                             
                                                                                                    
   TITEL  = PAW_PBE Te 08Apr2002                                                                    
   LULTRA =        F    use ultrasoft PP ?                                                          
   IUNSCR =        1    unscreen: 0-lin 1-nonlin 2-no                                               
   RPACOR =    2.200    partial core radius                                                         
   POMASS =  127.600; ZVAL   =    6.000    mass and valenz                                          
   RCORE  =    2.300    outmost cutoff radius                                                       
   RWIGS  =    2.900; RWIGS  =    1.535    wigner-seitz radius (au A)                               
   ENMAX  =  174.982; ENMIN  =  131.236 eV                                                          
   ICORE  =        3    local potential                                                             
   LCOR   =        T    correct aug charges                                                         
   LPAW   =        T    paw PP                                                                      
   EAUG   =  368.792                                                                                
   DEXC   =    -.169                                                                                
   RMAX   =    3.486    core radius for proj-oper                                                   
   RAUG   =    1.300    factor for augmentation sphere                                              
   RDEP   =    2.397    radius for radial grids                                                     
   QCUT   =   -3.586; QGAM   =    7.172    optimization parameters                                  
                                                                                                    
   Description                                                                                      
     l     E      TYP  RCUT    TYP  RCUT                                                            
     0   .000     23  2.300                                                                         
     0   .000     23  2.300                                                                         
     1   .000     23  2.300                                                                         
     1   .000     23  2.300                                                                         
     2   .000     23  2.300                                                                         
     3  -.100     23  2.300                                                                         
  local pseudopotential read in
  partial core-charges read in
  atomic valenz-charges read in
  non local Contribution for L=           0  read in
    real space projection operators read in
  non local Contribution for L=           0  read in
    real space projection operators read in
  non local Contribution for L=           1  read in
    real space projection operators read in
  non local Contribution for L=           1  read in
    real space projection operators read in
  non local Contribution for L=           2  read in
    real space projection operators read in
    PAW grid and wavefunctions read in
 
   number of l-projection  operators is LMAX  =           5
   number of lm-projection operators is LMMAX =          13
 
 POTCAR:   PAW_PBE Mo 08Apr2002                   
   VRHFIN =Mo: 4p5s4d                                                                               
   LEXCH  = PE                                                                                      
   EATOM  =   217.5180 eV,   15.9871 Ry                                                             
                                                                                                    
   TITEL  = PAW_PBE Mo 08Apr2002                                                                    
   LULTRA =        F    use ultrasoft PP ?                                                          
   IUNSCR =        1    unscreen: 0-lin 1-nonlin 2-no                                               
   RPACOR =    2.200    partial core radius                                                         
   POMASS =   95.940; ZVAL   =    6.000    mass and valenz                                          
   RCORE  =    2.750    outmost cutoff radius                                                       
   RWIGS  =    2.750; RWIGS  =    1.455    wigner-seitz radius (au A)                               
   ENMAX  =  224.584; ENMIN  =  168.438 eV                                                          
   RCLOC  =    2.111    cutoff for local pot                                                        
   LCOR   =        T    correct aug charges                                                         
   LPAW   =        T    paw PP                                                                      
   EAUG   =  345.278                                                                                
   DEXC   =    -.088                                                                                
   RMAX   =    3.077    core radius for proj-oper                                                   
   RAUG   =    1.300    factor for augmentation sphere                                              
   RDEP   =    2.815    radius for radial grids                                                     
   QCUT   =   -4.063; QGAM   =    8.126    optimization parameters                                  
                                                                                                    
   Description                                                                                      
     l     E      TYP  RCUT    TYP  RCUT                                                            
     2   .000     23  2.500                                                                         
     2   .000     23  2.500                                                                         
     0   .000     23  2.600                                                                         
     0  1.000     23  2.600                                                                         
     1   .400     23  2.750                                                                         
     1  2.000     23  2.750                                                                         
     3   .000      7   .000                                                                         
  local pseudopotential read in
  partial core-charges read in
  atomic valenz-charges read in
  non local Contribution for L=           2  read in
    real space projection operators read in
  non local Contribution for L=           2  read in
    real space projection operators read in
  non local Contribution for L=           0  read in
    real space projection operators read in
  non local Contribution for L=           0  read in
    real space projection operators read in
  non local Contribution for L=           1  read in
    real space projection operators read in
  non local Contribution for L=           1  read in
    real space projection operators read in
    PAW grid and wavefunctions read in
 
   number of l-projection  operators is LMAX  =           6
   number of lm-projection operators is LMMAX =          18
 
 -----------------------------------------------------------------------------
|                                                                             |
|               ----> ADVICE to this user running VASP <----                  |
|                                                                             |
|     You have a (more or less) 'large supercell' and for larger cells it     |
|     might be more efficient to use real-space projection operators.         |
|     Therefore, try LREAL= Auto in the INCAR file.                           |
|     Mind: If you want to do very accurate calculations, keep the            |
|     reciprocal projection scheme (i.e. LREAL=.FALSE.).                      |
|                                                                             |
 -----------------------------------------------------------------------------

 PAW_PBE Te 08Apr2002                   :
 energy of atom  1       EATOM= -223.2721
 kinetic energy error for atom=    0.0006 (will be added to EATOM!!)
 PAW_PBE Mo 08Apr2002                   :
 energy of atom  2       EATOM= -217.5180
 kinetic energy error for atom=    0.0009 (will be added to EATOM!!)
 
 
 POSCAR: Te Mo
  positions in cartesian coordinates
  No initial velocities read in
 exchange correlation table for  LEXCH =        8
   RHO(1)=    0.500       N(1)  =     2000
   RHO(2)=  100.500       N(2)  =     4000
 


--------------------------------------------------------------------------------------------------------


 ion  position               nearest neighbor table
   1  0.223  0.111  0.683-  40 2.67  37 2.71  41 2.73   3 3.42   2 3.44   4 3.51   7 3.53   5 3.57
                             9 3.58  19 3.59
   2  0.222  0.444  0.683-  41 2.68  38 2.70  42 2.74   3 3.43   1 3.44   8 3.51   5 3.53   7 3.57
                             6 3.58  20 3.59
   3  0.222  0.778  0.683-  42 2.68  39 2.71  40 2.73   1 3.42   2 3.43   9 3.52   6 3.52   8 3.57
                             4 3.58  21 3.59
   4  0.556  0.111  0.683-  43 2.68  40 2.71  44 2.73   5 3.42   6 3.43   1 3.51   7 3.52   8 3.57
                             3 3.58  22 3.60
   5  0.555  0.444  0.683-  44 2.67  41 2.71  45 2.74   4 3.42   6 3.44   8 3.52   2 3.53   1 3.57
                             9 3.57  23 3.59
   6  0.556  0.778  0.683-  45 2.67  42 2.71  43 2.73   4 3.43   5 3.44   9 3.52   3 3.52   7 3.57
                             2 3.58  24 3.59
   7  0.889  0.111  0.683-  37 2.68  43 2.71  38 2.73   8 3.43   9 3.44   4 3.52   1 3.53   2 3.57
                             6 3.57  25 3.60
   8  0.889  0.445  0.683-  38 2.67  44 2.71  39 2.73   9 3.42   7 3.43   2 3.51   5 3.52   3 3.57
                             4 3.57  26 3.59
   9  0.889  0.777  0.683-  39 2.67  45 2.71  37 2.74   8 3.42   7 3.44   3 3.52   6 3.52   5 3.57
                             1 3.58  27 3.59
  10  0.111  0.112  0.438-  46 2.68  52 2.71  47 2.73  11 3.43  12 3.43  16 3.51  13 3.52  14 3.57
                            18 3.58  28 3.60
  11  0.111  0.445  0.438-  47 2.68  53 2.71  48 2.73  10 3.43  12 3.43  17 3.52  14 3.52  15 3.57
                            16 3.58  29 3.59
  12  0.111  0.778  0.438-  48 2.69  54 2.72  46 2.73  11 3.43  10 3.43  15 3.52  18 3.52  17 3.57
                            13 3.57  30 3.60
  13  0.445  0.111  0.438-  49 2.68  46 2.72  50 2.73  15 3.43  14 3.43  16 3.52  10 3.52  17 3.57
                            12 3.57  31 3.60
  14  0.445  0.445  0.438-  50 2.67  47 2.71  51 2.73  15 3.43  13 3.43  17 3.52  11 3.52  18 3.57
                            10 3.57  32 3.59
  15  0.444  0.778  0.438-  51 2.68  48 2.71  49 2.73  13 3.43  14 3.43  18 3.51  12 3.52  16 3.57
                            11 3.57  33 3.59
  16  0.778  0.111  0.438-  52 2.68  49 2.71  53 2.75  18 3.42  17 3.44  10 3.51  13 3.52  15 3.57
                            11 3.58  34 3.60
  17  0.778  0.445  0.438-  53 2.69  50 2.71  54 2.74  18 3.43  16 3.44  14 3.52  11 3.52  13 3.57
                            12 3.57  35 3.59
  18  0.777  0.778  0.438-  54 2.69  51 2.71  52 2.72  16 3.42  17 3.43  15 3.51  12 3.52  14 3.57
                            10 3.58  36 3.59
  19  0.222  0.111  0.562-  41 2.67  40 2.68  37 2.76  20 3.43  21 3.44  25 3.52  22 3.52  23 3.57
                            27 3.58   1 3.59
  20  0.222  0.444  0.562-  42 2.67  41 2.68  38 2.77  21 3.43  19 3.43  23 3.51  26 3.52  25 3.57
                            24 3.58   2 3.59
  21  0.222  0.777  0.562-  42 2.67  40 2.68  39 2.76  20 3.43  19 3.44  27 3.52  24 3.52  26 3.57
                            22 3.58   3 3.59
  22  0.556  0.111  0.562-  43 2.67  44 2.67  40 2.77  24 3.42  23 3.43  25 3.52  19 3.52  26 3.57
                            21 3.58   4 3.60
  23  0.556  0.445  0.562-  45 2.68  44 2.68  41 2.77  22 3.43  24 3.44  20 3.51  26 3.52  27 3.56
                            19 3.57   5 3.59
  24  0.556  0.779  0.562-  43 2.67  45 2.68  42 2.77  22 3.42  23 3.44  21 3.52  27 3.52  25 3.57
                            20 3.58   6 3.59
  25  0.889  0.111  0.562-  37 2.68  38 2.68  43 2.76  26 3.43  27 3.44  19 3.52  22 3.52  24 3.57
                            20 3.57   7 3.60
  26  0.889  0.444  0.562-  39 2.68  38 2.68  44 2.78  27 3.42  25 3.43  23 3.52  20 3.52  21 3.57
                            22 3.57   8 3.59
  27  0.888  0.777  0.562-  39 2.68  37 2.69  45 2.76  26 3.42  25 3.44  21 3.52  24 3.52  23 3.56
                            19 3.58   9 3.59
  28  0.111  0.112  0.317-  47 2.67  46 2.68  52 2.78  30 3.43  29 3.44  31 3.51  34 3.52  32 3.57
                            36 3.58  10 3.60
  29  0.111  0.445  0.317-  48 2.67  47 2.68  53 2.77  30 3.42  28 3.44  35 3.51  32 3.52  33 3.57
                            34 3.58  11 3.59
  30  0.110  0.778  0.317-  46 2.67  48 2.69  54 2.76  29 3.42  28 3.43  36 3.51  33 3.52  35 3.57
                            31 3.58  12 3.60
  31  0.444  0.111  0.317-  50 2.68  49 2.69  46 2.78  33 3.42  32 3.43  28 3.51  34 3.52  35 3.57
                            30 3.58  13 3.60
  32  0.445  0.444  0.317-  51 2.67  50 2.68  47 2.77  31 3.43  33 3.44  35 3.52  29 3.52  28 3.57
                            36 3.57  14 3.59
  33  0.445  0.779  0.317-  49 2.66  51 2.68  48 2.77  31 3.42  32 3.44  36 3.52  30 3.52  34 3.57
                            29 3.57  15 3.59
  34  0.778  0.111  0.317-  53 2.67  52 2.69  49 2.77  35 3.43  36 3.43  28 3.52  31 3.52  33 3.57
                            29 3.58  16 3.60
  35  0.778  0.444  0.317-  53 2.67  54 2.67  50 2.78  34 3.43  36 3.43  29 3.51  32 3.52  30 3.57
                            31 3.57  17 3.59
  36  0.778  0.778  0.317-  54 2.67  52 2.67  51 2.77  34 3.43  35 3.43  30 3.51  33 3.52  32 3.57
                            28 3.58  18 3.59
  37  0.001  0.001  0.622-  25 2.68   7 2.68  27 2.69   1 2.71   9 2.74  19 2.76  38 3.43  39 3.44

  38  1.000  0.333  0.622-   8 2.67  25 2.68  26 2.68   2 2.70   7 2.73  20 2.77  37 3.43  39 3.43

  39  0.000  0.667  0.622-   9 2.67  27 2.68  26 2.68   3 2.71   8 2.73  21 2.76  38 3.43  37 3.44

  40  0.334  0.000  0.622-   1 2.67  21 2.68  19 2.68   4 2.71   3 2.73  22 2.77  42 3.43  41 3.43

  41  0.333  0.333  0.622-  19 2.67  20 2.68   2 2.68   5 2.71   1 2.73  23 2.77  42 3.43  40 3.43

  42  0.334  0.667  0.622-  20 2.67  21 2.67   3 2.68   6 2.71   2 2.74  24 2.77  41 3.43  40 3.43

  43  0.667  0.001  0.622-  24 2.67  22 2.67   4 2.68   7 2.71   6 2.73  25 2.76  44 3.42  45 3.43

  44  0.666  0.333  0.622-   5 2.67  22 2.67  23 2.68   8 2.71   4 2.73  26 2.78  43 3.42  45 3.44

  45  0.667  0.667  0.622-   6 2.67  23 2.68  24 2.68   9 2.71   5 2.74  27 2.76  43 3.43  44 3.44

  46  0.221  0.999  0.378-  30 2.67  10 2.68  28 2.68  13 2.72  12 2.73  31 2.78  48 3.43  47 3.43

  47  0.222  0.333  0.378-  28 2.67  11 2.68  29 2.68  14 2.71  10 2.73  32 2.77  46 3.43  48 3.43

  48  0.223  0.667  0.378-  29 2.67  30 2.69  12 2.69  15 2.71  11 2.73  33 2.77  46 3.43  47 3.43

  49  0.556  1.000  0.378-  33 2.66  13 2.68  31 2.69  16 2.71  15 2.73  34 2.77  51 3.42  50 3.44

  50  0.555  0.333  0.378-  14 2.67  32 2.68  31 2.68  17 2.71  13 2.73  35 2.78  51 3.43  49 3.44

  51  0.556  0.667  0.378-  32 2.67  33 2.68  15 2.68  18 2.71  14 2.73  36 2.77  49 3.42  50 3.43

  52  0.889  0.999  0.378-  36 2.67  16 2.68  34 2.69  10 2.71  18 2.72  28 2.78  54 3.42  53 3.44

  53  0.889  0.333  0.377-  34 2.67  35 2.67  17 2.69  11 2.71  16 2.75  29 2.77  54 3.43  52 3.44

  54  0.889  0.667  0.377-  35 2.67  36 2.67  18 2.69  12 2.72  17 2.74  30 2.76  52 3.42  53 3.43

 

IMPORTANT INFORMATION: All symmetrisations will be switched off!
NOSYMM: (Re-)initialisation of all symmetry stuff for point group C_1.


----------------------------------------------------------------------------------------

                                     Primitive cell                                     

  volume of cell :    2847.6955

  direct lattice vectors                    reciprocal lattice vectors
    10.554205003  0.000000000  0.000000000     0.094748965  0.050626282  0.002340460
    -4.849155359  9.075374127  0.000000000     0.000000000  0.110188295  0.002361896
    -0.393885345 -0.637277864 29.730586678     0.000000000  0.000000000  0.033635394

  length of vectors
    10.554205003 10.289641551 29.740024428     0.107451685  0.110213606  0.033635394

  position of ions in fractional coordinates (direct lattice)
     0.222623499  0.110540576  0.682690506
     0.221594264  0.444064370  0.682613679
     0.222232619  0.777710112  0.682738495
     0.555881371  0.111450797  0.682959219
     0.555412027  0.443686243  0.682599408
     0.556142729  0.778217196  0.682609890
     0.888998192  0.111464860  0.682783196
     0.889232930  0.445037644  0.682661980
     0.888840990  0.776966004  0.682736411
     0.111149279  0.111661166  0.438147781
     0.111065131  0.444883461  0.437915395
     0.111052004  0.778211722  0.438379661
     0.444800969  0.111300465  0.438108013
     0.444625128  0.444835788  0.437965698
     0.444430917  0.778026396  0.438117457
     0.777911682  0.110604489  0.438296319
     0.777720244  0.444682705  0.438085019
     0.777088521  0.777866949  0.438061386
     0.222070899  0.111058942  0.561935971
     0.222461846  0.444376391  0.561966196
     0.221745421  0.777026237  0.562125366
     0.555550742  0.111118828  0.561897840
     0.555564447  0.444529518  0.561874519
     0.555824318  0.778594023  0.561836794
     0.888895871  0.111071367  0.561893066
     0.888770096  0.444422402  0.561851336
     0.888412844  0.776801286  0.561969676
     0.111369599  0.111611794  0.317071014
     0.111278497  0.445428491  0.317116522
     0.110349322  0.777705984  0.317182470
     0.444095821  0.110987912  0.317127640
     0.444578507  0.444384663  0.317255268
     0.444597829  0.778583754  0.317277089
     0.777698075  0.111109848  0.317222084
     0.777745392  0.444245478  0.317287183
     0.777844396  0.777827353  0.317222530
     0.000650541  0.000973386  0.622374135
     0.999785743  0.333470089  0.622465899
     0.000345527  0.666802647  0.622379513
     0.333940847  0.000213908  0.622415099
     0.333342864  0.333348129  0.622350614
     0.334044743  0.666937737  0.622265684
     0.667140047  0.000869030  0.622221468
     0.666173108  0.333202494  0.622449177
     0.666957263  0.667457590  0.622279128
     0.221261206  0.999465256  0.377701173
     0.221923506  0.333023587  0.377608572
     0.222537728  0.666960368  0.377729568
     0.555905746  0.999646992  0.377642398
     0.554839909  0.333018885  0.377788392
     0.555551861  0.666687655  0.377642980
     0.888555352  0.999384461  0.377904121
     0.888964212  0.333458353  0.377390153
     0.889114563  0.667089747  0.377455764

  ion indices of the primitive-cell ions
   primitive index   ion index
                 1           1
                 2           2
                 3           3
                 4           4
                 5           5
                 6           6
                 7           7
                 8           8
                 9           9
                10          10
                11          11
                12          12
                13          13
                14          14
                15          15
                16          16
                17          17
                18          18
                19          19
                20          20
                21          21
                22          22
                23          23
                24          24
                25          25
                26          26
                27          27
                28          28
                29          29
                30          30
                31          31
                32          32
                33          33
                34          34
                35          35
                36          36
                37          37
                38          38
                39          39
                40          40
                41          41
                42          42
                43          43
                44          44
                45          45
                46          46
                47          47
                48          48
                49          49
                50          50
                51          51
                52          52
                53          53
                54          54

----------------------------------------------------------------------------------------

 
 

Automatic generation of k-mesh.
 generate k-points for:    3    3    1
Space group operators:
 irot       det(A)        alpha          n_x          n_y          n_z        tau_x        tau_y        tau_z
    1     1.000000     0.000000     1.000000     0.000000     0.000000     0.000000     0.000000     0.000000
 
 Subroutine IBZKPT returns following result:
 ===========================================
 
 Found      5 irreducible k-points:
 
 Following reciprocal coordinates:
            Coordinates               Weight
  0.000000  0.000000  0.000000      1.000000
  0.333333 -0.000000  0.000000      2.000000
  0.000000  0.333333  0.000000      2.000000
  0.333333  0.333333  0.000000      2.000000
 -0.333333  0.333333  0.000000      2.000000
 
 Following cartesian coordinates:
            Coordinates               Weight
  0.000000  0.000000  0.000000      1.000000
  0.031583  0.016875  0.000780      2.000000
  0.000000  0.036729  0.000787      2.000000
  0.031583  0.053605  0.001567      2.000000
 -0.031583  0.019854  0.000007      2.000000
 


--------------------------------------------------------------------------------------------------------




 Dimension of arrays:
   k-points           NKPTS =      5   k-points in BZ     NKDIM =      5   number of bands    NBANDS=    200
   number of dos      NEDOS =    301   number of ions     NIONS =     54
   non local maximal  LDIM  =      6   non local SUM 2l+1 LMDIM =     18
   total plane-waves  NPLWV = ******
   max r-space proj   IRMAX =      1   max aug-charges    IRDMAX=  36558
   dimension x,y,z NGX =    84 NGY =   80 NGZ =  240
   dimension x,y,z NGXF=   168 NGYF=  160 NGZF=  480
   support grid    NGXF=   168 NGYF=  160 NGZF=  480
   ions per type =              36  18
   NGX,Y,Z   is equivalent  to a cutoff of  13.23, 12.93, 13.42 a.u.
   NGXF,Y,Z  is equivalent  to a cutoff of  26.46, 25.85, 26.83 a.u.

 SYSTEM =  dpgen_md                                
 POSCAR =  Te Mo                                   

 Startparameter for this run:
   NWRITE =      2    write-flag & timer
   PREC   = a         normal or accurate (medium, high low for compatibility)
   ISTART =      0    job   : 0-new  1-cont  2-samecut
   ICHARG =      2    charge: 1-file 2-atom 10-const
   ISPIN  =      1    spin polarized calculation?
   LNONCOLLINEAR =      F non collinear calculations
   LSORBIT =      F    spin-orbit coupling
   INIWAV =      1    electr: 0-lowe 1-rand  2-diag
   LASPH  =      F    aspherical Exc in radial PAW
   METAGGA=      F    non-selfconsistent MetaGGA calc.

 Electronic Relaxation 1
   ENCUT  =  550.0 eV  40.42 Ry    6.36 a.u.  20.18 19.68 56.87*2*pi/ulx,y,z
   ENINI  =  550.0     initial cutoff
   ENAUG  =  368.8 eV  augmentation charge cutoff
   NELM   =    100;   NELMIN=  6; NELMDL= -5     # of ELM steps 
   EDIFF  = 0.1E-05   stopping-criterion for ELM
   LREAL  =      F    real-space projection
   NLSPLINE    = F    spline interpolate recip. space projectors
   LCOMPAT=      F    compatible to vasp.4.4
   GGA_COMPAT  = T    GGA compatible to vasp.4.4-vasp.4.6
   LMAXPAW     = -100 max onsite density
   LMAXMIX     =    2 max onsite mixed and CHGCAR
   VOSKOWN=      0    Vosko Wilk Nusair interpolation
   ROPT   =    0.00000   0.00000
 Ionic relaxation
   EDIFFG = 0.1E-04   stopping-criterion for IOM
   NSW    =     10    number of steps for IOM
   NBLOCK =      1;   KBLOCK =      1    inner block; outer block 
   IBRION =      0    ionic relax: 0-MD 1-quasi-New 2-CG
   NFREE  =      0    steps in history (QN), initial steepest desc. (CG)
   ISIF   =      2    stress and relaxation
   IWAVPR =     11    prediction:  0-non 1-charg 2-wave 3-comb
   ISYM   =      0    0-nonsym 1-usesym 2-fastsym
   LCORR  =      T    Harris-Foulkes like correction to forces

   POTIM  = 2.0000    time-step for ionic-motion
   TEIN   =  100.0    initial temperature
   TEBEG  =  100.0;   TEEND  = 100.0 temperature during run
   SMASS  =   0.04    Nose mass-parameter (am)
   estimated Nose-frequenzy (Omega)   =  0.79E+14 period in steps = 0.40E+02 mass=   0.327E-28a.u.
   SCALEE = 1.0000    scale energy and forces
   NPACO  =    256;   APACO  = 16.0  distance and # of slots for P.C.
   PSTRESS=    0.0 pullay stress

  Mass of Ions in am
   POMASS = 127.60 95.94
  Ionic Valenz
   ZVAL   =   6.00  6.00
  Atomic Wigner-Seitz radii
   RWIGS  =  -1.00 -1.00
  virtual crystal weights 
   VCA    =   1.00  1.00
   NELECT =     324.0000    total number of electrons
   NUPDOWN=      -1.0000    fix difference up-down

 DOS related values:
   EMIN   =  10.00;   EMAX   =-10.00  energy-range for DOS
   EFERMI =   0.00
   ISMEAR =     0;   SIGMA  =   0.10  broadening in eV -4-tet -1-fermi 0-gaus

 Electronic relaxation 2 (details)
   IALGO  =     68    algorithm
   LDIAG  =      T    sub-space diagonalisation (order eigenvalues)
   LSUBROT=      F    optimize rotation matrix (better conditioning)
   TURBO    =      0    0=normal 1=particle mesh
   IRESTART =      0    0=no restart 2=restart with 2 vectors
   NREBOOT  =      0    no. of reboots
   NMIN     =      0    reboot dimension
   EREF     =   0.00    reference energy to select bands
   IMIX   =      4    mixing-type and parameters
     AMIX     =   0.40;   BMIX     =  1.00
     AMIX_MAG =   1.60;   BMIX_MAG =  1.00
     AMIN     =   0.10
     WC   =   100.;   INIMIX=   1;  MIXPRE=   1;  MAXMIX= -45

 Intra band minimization:
   WEIMIN = 0.0010     energy-eigenvalue tresh-hold
   EBREAK =  0.13E-08  absolut break condition
   DEPER  =   0.30     relativ break condition  

   TIME   =   0.40     timestep for ELM

  volume/ion in A,a.u.               =      52.74       355.87
  Fermi-wavevector in a.u.,A,eV,Ry     =   0.793278  1.499078  8.562006  0.629290
  Thomas-Fermi vector in A             =   1.899182
 
 Write flags
   LWAVE        =      F    write WAVECAR
   LDOWNSAMPLE  =      F    k-point downsampling of WAVECAR
   LCHARG       =      F    write CHGCAR
   LVTOT        =      F    write LOCPOT, total local potential
   LVHAR        =      F    write LOCPOT, Hartree potential only
   LELF         =      F    write electronic localiz. function (ELF)
   LORBIT       =      0    0 simple, 1 ext, 2 COOP (PROOUT), +10 PAW based schemes


 Dipole corrections
   LMONO  =      F    monopole corrections only (constant potential shift)
   LDIPOL =      F    correct potential (dipole corrections)
   IDIPOL =      0    1-x, 2-y, 3-z, 4-all directions 
   EPSILON=  1.0000000 bulk dielectric constant

 Exchange correlation treatment:
   GGA     =    --    GGA type
   LEXCH   =     8    internal setting for exchange type
   VOSKOWN=      0    Vosko Wilk Nusair interpolation
   LHFCALC =     F    Hartree Fock is set to
   LHFONE  =     F    Hartree Fock one center treatment
   AEXX    =    0.0000 exact exchange contribution

 Linear response parameters
   LEPSILON=     F    determine dielectric tensor
   LRPA    =     F    only Hartree local field effects (RPA)
   LNABLA  =     F    use nabla operator in PAW spheres
   LVEL    =     F    velocity operator in full k-point grid
   LINTERFAST=   F  fast interpolation
   KINTER  =     0    interpolate to denser k-point grid
   CSHIFT  =0.1000    complex shift for real part using Kramers Kronig
   OMEGAMAX=  -1.0    maximum frequency
   DEG_THRESHOLD= 0.2000000E-02 threshold for treating states as degnerate
   RTIME   =   -0.100 relaxation time in fs
  (WPLASMAI=    0.000 imaginary part of plasma frequency in eV, 0.658/RTIME)
   DFIELD  = 0.0000000 0.0000000 0.0000000 field for delta impulse in time
 
 Orbital magnetization related:
   ORBITALMAG=     F  switch on orbital magnetization
   LCHIMAG   =     F  perturbation theory with respect to B field
   DQ        =  0.001000  dq finite difference perturbation B field
   LLRAUG    =     F  two centre corrections for induced B field



--------------------------------------------------------------------------------------------------------


 molecular dynamics for ions
   using nose mass (canonical ensemble)
 charge density and potential will be updated during run
 non-spin polarized calculation
 RMM-DIIS sequential band-by-band and
  variant of blocked Davidson during initial phase
 perform sub-space diagonalisation
    before iterative eigenvector-optimisation
 modified Broyden-mixing scheme, WC =      100.0
 initial mixing is a Kerker type mixing with AMIX =  0.4000 and BMIX =      1.0000
 Hartree-type preconditioning will be used
 using additional bands           38
 reciprocal scheme for non local part
 use partial core corrections
 calculate Harris-corrections to forces 
   (improved forces if not selfconsistent)
 use gradient corrections 
 use of overlap-Matrix (Vanderbilt PP)
 Gauss-broadening in eV      SIGMA  =   0.10


--------------------------------------------------------------------------------------------------------


  energy-cutoff  :      550.00
  volume of cell :     2847.70
      direct lattice vectors                 reciprocal lattice vectors
    10.554205003  0.000000000  0.000000000     0.094748965  0.050626282  0.002340460
    -4.849155359  9.075374127  0.000000000     0.000000000  0.110188295  0.002361896
    -0.393885345 -0.637277864 29.730586678     0.000000000  0.000000000  0.033635394

  length of vectors
    10.554205003 10.289641551 29.740024428     0.107451685  0.110213606  0.033635394


 
 k-points in units of 2pi/SCALE and weight: read from INCAR                         
   0.00000000  0.00000000  0.00000000       0.111
   0.03158299  0.01687543  0.00078015       0.222
   0.00000000  0.03672943  0.00078730       0.222
   0.03158299  0.05360486  0.00156745       0.222
  -0.03158299  0.01985400  0.00000715       0.222
 
 k-points in reciprocal lattice and weights: read from INCAR                         
   0.00000000  0.00000000  0.00000000       0.111
   0.33333333 -0.00000000  0.00000000       0.222
   0.00000000  0.33333333  0.00000000       0.222
   0.33333333  0.33333333  0.00000000       0.222
  -0.33333333  0.33333333  0.00000000       0.222
 
 position of ions in fractional coordinates (direct lattice) 
   0.22262350  0.11054058  0.68269051
   0.22159426  0.44406437  0.68261368
   0.22223262  0.77771011  0.68273850
   0.55588137  0.11145080  0.68295922
   0.55541203  0.44368624  0.68259941
   0.55614273  0.77821720  0.68260989
   0.88899819  0.11146486  0.68278320
   0.88923293  0.44503764  0.68266198
   0.88884099  0.77696600  0.68273641
   0.11114928  0.11166117  0.43814778
   0.11106513  0.44488346  0.43791540
   0.11105200  0.77821172  0.43837966
   0.44480097  0.11130046  0.43810801
   0.44462513  0.44483579  0.43796570
   0.44443092  0.77802640  0.43811746
   0.77791168  0.11060449  0.43829632
   0.77772024  0.44468271  0.43808502
   0.77708852  0.77786695  0.43806139
   0.22207090  0.11105894  0.56193597
   0.22246185  0.44437639  0.56196620
   0.22174542  0.77702624  0.56212537
   0.55555074  0.11111883  0.56189784
   0.55556445  0.44452952  0.56187452
   0.55582432  0.77859402  0.56183679
   0.88889587  0.11107137  0.56189307
   0.88877010  0.44442240  0.56185134
   0.88841284  0.77680129  0.56196968
   0.11136960  0.11161179  0.31707101
   0.11127850  0.44542849  0.31711652
   0.11034932  0.77770598  0.31718247
   0.44409582  0.11098791  0.31712764
   0.44457851  0.44438466  0.31725527
   0.44459783  0.77858375  0.31727709
   0.77769807  0.11110985  0.31722208
   0.77774539  0.44424548  0.31728718
   0.77784440  0.77782735  0.31722253
   0.00065054  0.00097339  0.62237413
   0.99978574  0.33347009  0.62246590
   0.00034553  0.66680265  0.62237951
   0.33394085  0.00021391  0.62241510
   0.33334286  0.33334813  0.62235061
   0.33404474  0.66693774  0.62226568
   0.66714005  0.00086903  0.62222147
   0.66617311  0.33320249  0.62244918
   0.66695726  0.66745759  0.62227913
   0.22126121  0.99946526  0.37770117
   0.22192351  0.33302359  0.37760857
   0.22253773  0.66696037  0.37772957
   0.55590575  0.99964699  0.37764240
   0.55483991  0.33301889  0.37778839
   0.55555186  0.66668765  0.37764298
   0.88855535  0.99938446  0.37790412
   0.88896421  0.33345835  0.37739015
   0.88911456  0.66708975  0.37745576
 
 position of ions in cartesian coordinates  (Angst):
   1.54468383  0.56813354 20.29678928
  -0.08345735  3.59503571 20.29450514
  -1.69466923  6.62291610 20.29821600
   5.05743609  0.57622289 20.30477827
   3.44156297  3.59161316 20.29408088
   1.82707826  6.62760003 20.29439249
   8.57322045  0.57646269 20.29954498
   6.95819942  3.60383775 20.29594117
   5.34446129  6.61616437 20.29815405
   0.45904995  0.73414498 13.02639058
  -1.15759332  3.75841006 13.01948162
  -2.77427525  6.78319287 13.03328451
   3.98224305  0.73089682 13.02520826
   2.36307864  3.75794536 13.02097714
   0.74527609  6.78167807 13.02548905
   7.50126252  0.72446057 13.03080672
   5.87932810  3.75648003 13.02452462
   4.25700791  6.78026676 13.02382199
   1.58390138  0.64979209 16.70668609
  -0.02829248  3.67475339 16.70758470
  -1.64898725  6.69357376 16.71231691
   5.10324063  0.65035989 16.70555244
   3.48663423  3.67620150 16.70485909
   1.86946115  6.70798590 16.70373752
   8.62166549  0.64993219 16.70541051
   7.00388352  3.67524415 16.70416985
   5.38830954  6.69163146 16.70768816
   0.50930503  0.81085644  9.42670726
  -1.11040344  3.84033886  9.42806023
  -2.73150130  6.85583940  9.43002091
   4.02396877  0.80515840  9.42839078
   2.41232023  3.83077731  9.43218524
   0.79193225  6.86374519  9.43283400
   7.54424687  0.80620483  9.43119867
   5.92929419  3.82949382  9.43313411
   4.31277423  6.85691534  9.43121192
  -0.24299821 -0.38779142 18.50354815
   8.68971523  2.62968208 18.50627635
  -3.47492904  5.65485480 18.50370806
   3.27828270 -0.39471007 18.50476605
   1.65657727  2.62864871 18.50284888
   0.04639066  5.65615333 18.50032387
   6.79183484 -0.38864120 18.49900928
   5.17000328  2.62726421 18.50577921
   3.55749150  5.66086263 18.50072355
  -2.66009713  8.82982053 11.22927748
   0.57860858  2.78167206 11.22652438
  -1.03426778  5.81219618 11.23012166
   0.87095184  8.83150731 11.22753006
   4.09222851  2.78151480 11.23187055
   2.48178818  5.80977638 11.22754734
   4.38297393  8.82895795 11.23531122
   7.61667072  2.78575692 11.22003067
   6.00040125  5.81354483 11.22198131
 


--------------------------------------------------------------------------------------------------------


 k-point   1 :   0.0000 0.0000 0.0000  plane waves:   83463
 k-point   2 :   0.3333-0.0000 0.0000  plane waves:   83437
 k-point   3 :   0.0000 0.3333 0.0000  plane waves:   83389
 k-point   4 :   0.3333 0.3333 0.0000  plane waves:   83401
 k-point   5 :  -0.3333 0.3333 0.0000  plane waves:   83403

 maximum and minimum number of plane-waves per node :     83463    83389

 maximum number of plane-waves:     83463
 maximum index in each direction: 
   IXMAX=   20   IYMAX=   19   IZMAX=   56
   IXMIN=  -20   IYMIN=  -20   IZMIN=  -56


 serial   3D FFT for wavefunctions
 parallel 3D FFT for charge:
    minimum data exchange during FFTs selected (reduces bandwidth)


 total amount of memory used by VASP MPI-rank0   362059. kBytes
=======================================================================

   base      :      30000. kBytes
   nonl-proj :     192337. kBytes
   fftplans  :      18984. kBytes
   grid      :      86187. kBytes
   one-center:        839. kBytes
   wavefun   :      33712. kBytes
 
     INWAV:  cpu time    0.0001: real time    0.0001
 Broyden mixing: mesh for mixing (old mesh)
   NGX = 41   NGY = 39   NGZ =113
  (NGX  =168   NGY  =160   NGZ  =480)
  gives a total of 180687 points

 initial charge density was supplied:
 charge density of overlapping atoms calculated
 number of electron     324.0000000 magnetization 
 keeping initial charge density in first step


--------------------------------------------------------------------------------------------------------


 Maximum index for augmentation-charges         2232 (set IRDMAX)


--------------------------------------------------------------------------------------------------------


 First call to EWALD:  gamma=   0.125
 Maximum number of real-space cells 4x 4x 2
 Maximum number of reciprocal cells 2x 2x 5

    FEWALD:  cpu time    0.0021: real time    0.0021


--------------------------------------- Iteration      1(   1)  ---------------------------------------


    POTLOK:  cpu time    0.3146: real time    0.3158
    SETDIJ:  cpu time    0.0116: real time    0.0119
     EDDAV:  cpu time   48.4174: real time   48.5372
       DOS:  cpu time    0.0009: real time    0.0010
    --------------------------------------------
      LOOP:  cpu time   48.7446: real time   48.8659

 eigenvalue-minimisations  :  2000
 total energy-change (2. order) : 0.2135919E+04  (-0.1158609E+05)
 number of electron     324.0000000 magnetization 
 augmentation part      324.0000000 magnetization 

 Free energy of the ion-electron system (eV)
  ---------------------------------------------------
  alpha Z        PSCENC =       252.01647767
  Ewald energy   TEWEN  =     59880.15170450
  -Hartree energ DENC   =    -71583.36124827
  -exchange      EXHF   =         0.00000000
  -V(xc)+E(xc)   XCENC  =     -2098.49651092
  PAW double counting   =      7476.04436201    -4809.59211051
  entropy T*S    EENTRO =        -0.11836399
  eigenvalues    EBANDS =      1066.19187351
  atomic energy  EATOM  =     11953.08265402
  Solvation  Ediel_sol  =         0.00000000
  ---------------------------------------------------
  free energy    TOTEN  =      2135.91883804 eV

  energy without entropy =     2136.03720202  energy(sigma->0) =     2135.97802003


--------------------------------------------------------------------------------------------------------




--------------------------------------- Iteration      1(   2)  ---------------------------------------


     EDDAV:  cpu time   65.6037: real time   65.7187
       DOS:  cpu time    0.0006: real time    0.0006
    --------------------------------------------
      LOOP:  cpu time   65.6043: real time   65.7192

 eigenvalue-minimisations  :  2920
 total energy-change (2. order) :-0.2222568E+04  (-0.2137995E+04)
 number of electron     324.0000000 magnetization 
 augmentation part      324.0000000 magnetization 

 Free energy of the ion-electron system (eV)
  ---------------------------------------------------
  alpha Z        PSCENC =       252.01647767
  Ewald energy   TEWEN  =     59880.15170450
  -Hartree energ DENC   =    -71583.36124827
  -exchange      EXHF   =         0.00000000
  -V(xc)+E(xc)   XCENC  =     -2098.49651092
  PAW double counting   =      7476.04436201    -4809.59211051
  entropy T*S    EENTRO =        -0.01426874
  eigenvalues    EBANDS =     -1156.47984158
  atomic energy  EATOM  =     11953.08265402
  Solvation  Ediel_sol  =         0.00000000
  ---------------------------------------------------
  free energy    TOTEN  =       -86.64878181 eV

  energy without entropy =      -86.63451307  energy(sigma->0) =      -86.64164744


--------------------------------------------------------------------------------------------------------




--------------------------------------- Iteration      1(   3)  ---------------------------------------


     EDDAV:  cpu time   58.1074: real time   58.2281
       DOS:  cpu time    0.0004: real time    0.0004
    --------------------------------------------
      LOOP:  cpu time   58.1078: real time   58.2285

 eigenvalue-minimisations  :  2520
 total energy-change (2. order) :-0.2364592E+03  (-0.2324748E+03)
 number of electron     324.0000000 magnetization 
 augmentation part      324.0000000 magnetization 

 Free energy of the ion-electron system (eV)
  ---------------------------------------------------
  alpha Z        PSCENC =       252.01647767
  Ewald energy   TEWEN  =     59880.15170450
  -Hartree energ DENC   =    -71583.36124827
  -exchange      EXHF   =         0.00000000
  -V(xc)+E(xc)   XCENC  =     -2098.49651092
  PAW double counting   =      7476.04436201    -4809.59211051
  entropy T*S    EENTRO =        -0.00000000
  eigenvalues    EBANDS =     -1392.95332804
  atomic energy  EATOM  =     11953.08265402
  Solvation  Ediel_sol  =         0.00000000
  ---------------------------------------------------
  free energy    TOTEN  =      -323.10799953 eV

  energy without entropy =     -323.10799953  energy(sigma->0) =     -323.10799953


--------------------------------------------------------------------------------------------------------




--------------------------------------- Iteration      1(   4)  ---------------------------------------


     EDDAV:  cpu time   68.4185: real time   68.5550
       DOS:  cpu time    0.0004: real time    0.0004
    --------------------------------------------
      LOOP:  cpu time   68.4189: real time   68.5554

 eigenvalue-minimisations  :  3080
 total energy-change (2. order) :-0.1164919E+02  (-0.1156091E+02)
 number of electron     324.0000000 magnetization 
 augmentation part      324.0000000 magnetization 

 Free energy of the ion-electron system (eV)
  ---------------------------------------------------
  alpha Z        PSCENC =       252.01647767
  Ewald energy   TEWEN  =     59880.15170450
  -Hartree energ DENC   =    -71583.36124827
  -exchange      EXHF   =         0.00000000
  -V(xc)+E(xc)   XCENC  =     -2098.49651092
  PAW double counting   =      7476.04436201    -4809.59211051
  entropy T*S    EENTRO =        -0.00000000
  eigenvalues    EBANDS =     -1404.60252230
  atomic energy  EATOM  =     11953.08265402
  Solvation  Ediel_sol  =         0.00000000
  ---------------------------------------------------
  free energy    TOTEN  =      -334.75719379 eV

  energy without entropy =     -334.75719379  energy(sigma->0) =     -334.75719379


--------------------------------------------------------------------------------------------------------




--------------------------------------- Iteration      1(   5)  ---------------------------------------


     EDDAV:  cpu time   64.8529: real time   64.9916
       DOS:  cpu time    0.0004: real time    0.0004
    CHARGE:  cpu time    1.1650: real time    1.1662
    MIXING:  cpu time    0.0086: real time    0.0087
    --------------------------------------------
      LOOP:  cpu time   66.0268: real time   66.1669

 eigenvalue-minimisations  :  2880
 total energy-change (2. order) :-0.3324017E+00  (-0.3315732E+00)
 number of electron     324.0000002 magnetization 
 augmentation part      -25.2590613 magnetization 

 Broyden mixing:
  rms(total) = 0.18653E+01    rms(broyden)= 0.18653E+01
  rms(prec ) = 0.19735E+01
  weight for this iteration     100.00

 Free energy of the ion-electron system (eV)
  ---------------------------------------------------
  alpha Z        PSCENC =       252.01647767
  Ewald energy   TEWEN  =     59880.15170450
  -Hartree energ DENC   =    -71583.36124827
  -exchange      EXHF   =         0.00000000
  -V(xc)+E(xc)   XCENC  =     -2098.49651092
  PAW double counting   =      7476.04436201    -4809.59211051
  entropy T*S    EENTRO =        -0.00000000
  eigenvalues    EBANDS =     -1404.93492398
  atomic energy  EATOM  =     11953.08265402
  Solvation  Ediel_sol  =         0.00000000
  ---------------------------------------------------
  free energy    TOTEN  =      -335.08959547 eV

  energy without entropy =     -335.08959547  energy(sigma->0) =     -335.08959547


--------------------------------------------------------------------------------------------------------




--------------------------------------- Iteration      1(   6)  ---------------------------------------


    POTLOK:  cpu time    0.2729: real time    0.2732
    SETDIJ:  cpu time    0.0117: real time    0.0158
    EDDIAG:  cpu time    2.5489: real time    2.5518
  RMM-DIIS:  cpu time   41.4004: real time   41.4741
    ORTHCH:  cpu time    0.2261: real time    0.2263
       DOS:  cpu time    0.0005: real time    0.0005
    CHARGE:  cpu time    1.1584: real time    1.1594
    MIXING:  cpu time    0.0069: real time    0.0071
    --------------------------------------------
      LOOP:  cpu time   45.6258: real time   45.7082

 eigenvalue-minimisations  :  2126
 total energy-change (2. order) : 0.8789230E+01  (-0.4566955E+01)
 number of electron     324.0000003 magnetization 
 augmentation part      -20.2348839 magnetization 

 Broyden mixing:
  rms(total) = 0.69820E+00    rms(broyden)= 0.69820E+00
  rms(prec ) = 0.80022E+00
  weight for this iteration     100.00

 eigenvalues of (default mixing * dielectric matrix)
  average eigenvalue GAMMA=   1.1060
  1.1060

 Free energy of the ion-electron system (eV)
  ---------------------------------------------------
  alpha Z        PSCENC =       252.01647767
  Ewald energy   TEWEN  =     59880.15170450
  -Hartree energ DENC   =    -71569.88913246
  -exchange      EXHF   =         0.00000000
  -V(xc)+E(xc)   XCENC  =     -2092.03381411
  PAW double counting   =      7725.30703428    -5070.67993640
  entropy T*S    EENTRO =        -0.00000000
  eigenvalues    EBANDS =     -1404.25535311
  atomic energy  EATOM  =     11953.08265402
  Solvation  Ediel_sol  =         0.00000000
  ---------------------------------------------------
  free energy    TOTEN  =      -326.30036562 eV

  energy without entropy =     -326.30036562  energy(sigma->0) =     -326.30036562


--------------------------------------------------------------------------------------------------------




--------------------------------------- Iteration      1(   7)  ---------------------------------------


    POTLOK:  cpu time    0.2683: real time    0.2685
    SETDIJ:  cpu time    0.0116: real time    0.0116
    EDDIAG:  cpu time    2.5425: real time    2.5489
  RMM-DIIS:  cpu time   38.8132: real time   38.8881
    ORTHCH:  cpu time    0.2091: real time    0.2174
       DOS:  cpu time    0.0004: real time    0.0004
    CHARGE:  cpu time    1.1596: real time    1.1606
    MIXING:  cpu time    0.0070: real time    0.0070
    --------------------------------------------
      LOOP:  cpu time   43.0117: real time   43.1025

 eigenvalue-minimisations  :  2014
 total energy-change (2. order) : 0.2964095E+01  (-0.9750836E+00)
 number of electron     324.0000003 magnetization 
 augmentation part      -21.7675979 magnetization 

 Broyden mixing:
  rms(total) = 0.45547E+00    rms(broyden)= 0.45547E+00
  rms(prec ) = 0.48231E+00
  weight for this iteration     100.00

 eigenvalues of (default mixing * dielectric matrix)
  average eigenvalue GAMMA=   1.4863
  0.7526  2.2200

 Free energy of the ion-electron system (eV)
  ---------------------------------------------------
  alpha Z        PSCENC =       252.01647767
  Ewald energy   TEWEN  =     59880.15170450
  -Hartree energ DENC   =    -71655.47494496
  -exchange      EXHF   =         0.00000000
  -V(xc)+E(xc)   XCENC  =     -2090.31962120
  PAW double counting   =      8041.59627272    -5392.70933190
  entropy T*S    EENTRO =        -0.00000000
  eigenvalues    EBANDS =     -1311.67948140
  atomic energy  EATOM  =     11953.08265402
  Solvation  Ediel_sol  =         0.00000000
  ---------------------------------------------------
  free energy    TOTEN  =      -323.33627054 eV

  energy without entropy =     -323.33627054  energy(sigma->0) =     -323.33627054


--------------------------------------------------------------------------------------------------------




--------------------------------------- Iteration      1(   8)  ---------------------------------------


    POTLOK:  cpu time    0.2685: real time    0.2687
    SETDIJ:  cpu time    0.0116: real time    0.0117
    EDDIAG:  cpu time    2.5431: real time    2.5498
  RMM-DIIS:  cpu time   38.4182: real time   38.4931
    ORTHCH:  cpu time    0.2188: real time    0.2271
       DOS:  cpu time    0.0004: real time    0.0004
    CHARGE:  cpu time    1.1587: real time    1.1596
    MIXING:  cpu time    0.0105: real time    0.0105
    --------------------------------------------
      LOOP:  cpu time   42.6297: real time   42.7208

 eigenvalue-minimisations  :  2006
 total energy-change (2. order) : 0.4382420E+00  (-0.6643065E+00)
 number of electron     324.0000003 magnetization 
 augmentation part      -21.4682264 magnetization 

 Broyden mixing:
  rms(total) = 0.11512E+00    rms(broyden)= 0.11512E+00
  rms(prec ) = 0.13273E+00
  weight for this iteration     100.00

 eigenvalues of (default mixing * dielectric matrix)
  average eigenvalue GAMMA=   1.3167
  2.1340  1.0003  0.8156

 Free energy of the ion-electron system (eV)
  ---------------------------------------------------
  alpha Z        PSCENC =       252.01647767
  Ewald energy   TEWEN  =     59880.15170450
  -Hartree energ DENC   =    -71712.52219821
  -exchange      EXHF   =         0.00000000
  -V(xc)+E(xc)   XCENC  =     -2086.42552552
  PAW double counting   =      8361.49990086    -5719.09183549
  entropy T*S    EENTRO =        -0.00000000
  eigenvalues    EBANDS =     -1251.60920635
  atomic energy  EATOM  =     11953.08265402
  Solvation  Ediel_sol  =         0.00000000
  ---------------------------------------------------
  free energy    TOTEN  =      -322.89802852 eV

  energy without entropy =     -322.89802852  energy(sigma->0) =     -322.89802852


--------------------------------------------------------------------------------------------------------




--------------------------------------- Iteration      1(   9)  ---------------------------------------


    POTLOK:  cpu time    0.2672: real time    0.2676
    SETDIJ:  cpu time    0.0173: real time    0.0173
    EDDIAG:  cpu time    2.5600: real time    2.5664
  RMM-DIIS:  cpu time   44.0365: real time   44.1199
    ORTHCH:  cpu time    0.2090: real time    0.2103
       DOS:  cpu time    0.0004: real time    0.0004
    CHARGE:  cpu time    1.1503: real time    1.1558
    MIXING:  cpu time    0.0070: real time    0.0070
    --------------------------------------------
      LOOP:  cpu time   48.2477: real time   48.3447

 eigenvalue-minimisations  :  2243
 total energy-change (2. order) :-0.5304491E-01  (-0.1281706E+00)
 number of electron     324.0000003 magnetization 
 augmentation part      -21.0814391 magnetization 

 Broyden mixing:
  rms(total) = 0.10101E+00    rms(broyden)= 0.10101E+00
  rms(prec ) = 0.11196E+00
  weight for this iteration     100.00

 eigenvalues of (default mixing * dielectric matrix)
  average eigenvalue GAMMA=   1.2069
  1.9133  1.7182  0.7460  0.4503

 Free energy of the ion-electron system (eV)
  ---------------------------------------------------
  alpha Z        PSCENC =       252.01647767
  Ewald energy   TEWEN  =     59880.15170450
  -Hartree energ DENC   =    -71711.03114885
  -exchange      EXHF   =         0.00000000
  -V(xc)+E(xc)   XCENC  =     -2086.08600252
  PAW double counting   =      8362.42693046    -5720.12823808
  entropy T*S    EENTRO =        -0.00000000
  eigenvalues    EBANDS =     -1253.38345063
  atomic energy  EATOM  =     11953.08265402
  Solvation  Ediel_sol  =         0.00000000
  ---------------------------------------------------
  free energy    TOTEN  =      -322.95107342 eV

  energy without entropy =     -322.95107342  energy(sigma->0) =     -322.95107342


--------------------------------------------------------------------------------------------------------




--------------------------------------- Iteration      1(  10)  ---------------------------------------


    POTLOK:  cpu time    0.2713: real time    0.2715
    SETDIJ:  cpu time    0.0116: real time    0.0116
    EDDIAG:  cpu time    2.5335: real time    2.5360
  RMM-DIIS:  cpu time   45.6870: real time   45.7878
    ORTHCH:  cpu time    0.2158: real time    0.2160
       DOS:  cpu time    0.0004: real time    0.0004
    CHARGE:  cpu time    1.1595: real time    1.1606
    MIXING:  cpu time    0.0072: real time    0.0072
    --------------------------------------------
      LOOP:  cpu time   49.8862: real time   49.9910

 eigenvalue-minimisations  :  2348
 total energy-change (2. order) :-0.5886618E-03  (-0.3241753E-01)
 number of electron     324.0000003 magnetization 
 augmentation part      -20.9728772 magnetization 

 Broyden mixing:
  rms(total) = 0.69434E-01    rms(broyden)= 0.69434E-01
  rms(prec ) = 0.78502E-01
  weight for this iteration     100.00

 eigenvalues of (default mixing * dielectric matrix)
  average eigenvalue GAMMA=   1.3082
  2.3522  1.9624  0.9218  0.9218  0.3829

 Free energy of the ion-electron system (eV)
  ---------------------------------------------------
  alpha Z        PSCENC =       252.01647767
  Ewald energy   TEWEN  =     59880.15170450
  -Hartree energ DENC   =    -71715.12021139
  -exchange      EXHF   =         0.00000000
  -V(xc)+E(xc)   XCENC  =     -2085.88958205
  PAW double counting   =      8378.25140804    -5735.97277596
  entropy T*S    EENTRO =        -0.00000000
  eigenvalues    EBANDS =     -1249.47133692
  atomic energy  EATOM  =     11953.08265402
  Solvation  Ediel_sol  =         0.00000000
  ---------------------------------------------------
  free energy    TOTEN  =      -322.95166209 eV

  energy without entropy =     -322.95166209  energy(sigma->0) =     -322.95166209


--------------------------------------------------------------------------------------------------------




--------------------------------------- Iteration      1(  11)  ---------------------------------------


    POTLOK:  cpu time    0.2693: real time    0.2696
    SETDIJ:  cpu time    0.0117: real time    0.0117
    EDDIAG:  cpu time    2.5506: real time    2.5573
  RMM-DIIS:  cpu time   41.1614: real time   41.2422
    ORTHCH:  cpu time    0.2226: real time    0.2228
       DOS:  cpu time    0.0004: real time    0.0004
    CHARGE:  cpu time    1.1614: real time    1.1624
    MIXING:  cpu time    0.0072: real time    0.0073
    --------------------------------------------
      LOOP:  cpu time   45.3847: real time   45.4736

 eigenvalue-minimisations  :  2125
 total energy-change (2. order) : 0.1108404E-01  (-0.1758790E-01)
 number of electron     324.0000003 magnetization 
 augmentation part      -21.2769315 magnetization 

 Broyden mixing:
  rms(total) = 0.32670E-01    rms(broyden)= 0.32670E-01
  rms(prec ) = 0.37295E-01
  weight for this iteration     100.00

 eigenvalues of (default mixing * dielectric matrix)
  average eigenvalue GAMMA=   1.2594
  2.5346  1.5813  1.5813  0.7403  0.7403  0.3785

 Free energy of the ion-electron system (eV)
  ---------------------------------------------------
  alpha Z        PSCENC =       252.01647767
  Ewald energy   TEWEN  =     59880.15170450
  -Hartree energ DENC   =    -71732.15995199
  -exchange      EXHF   =         0.00000000
  -V(xc)+E(xc)   XCENC  =     -2085.64851601
  PAW double counting   =      8425.30140815    -5783.22189143
  entropy T*S    EENTRO =        -0.00000000
  eigenvalues    EBANDS =     -1232.46246296
  atomic energy  EATOM  =     11953.08265402
  Solvation  Ediel_sol  =         0.00000000
  ---------------------------------------------------
  free energy    TOTEN  =      -322.94057804 eV

  energy without entropy =     -322.94057804  energy(sigma->0) =     -322.94057804


--------------------------------------------------------------------------------------------------------




--------------------------------------- Iteration      1(  12)  ---------------------------------------


    POTLOK:  cpu time    0.2696: real time    0.2699
    SETDIJ:  cpu time    0.0135: real time    0.0135
    EDDIAG:  cpu time    2.5204: real time    2.5270
  RMM-DIIS:  cpu time   46.4902: real time   46.5816
    ORTHCH:  cpu time    0.2224: real time    0.2226
       DOS:  cpu time    0.0004: real time    0.0004
    CHARGE:  cpu time    1.1587: real time    1.1598
    MIXING:  cpu time    0.0076: real time    0.0076
    --------------------------------------------
      LOOP:  cpu time   50.6829: real time   50.7825

 eigenvalue-minimisations  :  2385
 total energy-change (2. order) : 0.9367433E-03  (-0.3051376E-02)
 number of electron     324.0000003 magnetization 
 augmentation part      -21.2534723 magnetization 

 Broyden mixing:
  rms(total) = 0.22171E-01    rms(broyden)= 0.22171E-01
  rms(prec ) = 0.25892E-01
  weight for this iteration     100.00

 eigenvalues of (default mixing * dielectric matrix)
  average eigenvalue GAMMA=   1.2323
  2.5229  1.8400  1.8400  0.8108  0.8108  0.3768  0.4245

 Free energy of the ion-electron system (eV)
  ---------------------------------------------------
  alpha Z        PSCENC =       252.01647767
  Ewald energy   TEWEN  =     59880.15170450
  -Hartree energ DENC   =    -71735.55397468
  -exchange      EXHF   =         0.00000000
  -V(xc)+E(xc)   XCENC  =     -2085.53899055
  PAW double counting   =      8428.24323722    -5786.18669057
  entropy T*S    EENTRO =        -0.00000000
  eigenvalues    EBANDS =     -1229.15405892
  atomic energy  EATOM  =     11953.08265402
  Solvation  Ediel_sol  =         0.00000000
  ---------------------------------------------------
  free energy    TOTEN  =      -322.93964130 eV

  energy without entropy =     -322.93964130  energy(sigma->0) =     -322.93964130


--------------------------------------------------------------------------------------------------------




--------------------------------------- Iteration      1(  13)  ---------------------------------------


    POTLOK:  cpu time    0.2693: real time    0.2697
    SETDIJ:  cpu time    0.0139: real time    0.0139
    EDDIAG:  cpu time    2.5511: real time    2.5577
  RMM-DIIS:  cpu time   46.0793: real time   46.1776
    ORTHCH:  cpu time    0.2174: real time    0.2176
       DOS:  cpu time    0.0005: real time    0.0005
    CHARGE:  cpu time    1.1611: real time    1.1665
    MIXING:  cpu time    0.0075: real time    0.0075
    --------------------------------------------
      LOOP:  cpu time   50.3001: real time   50.4109

 eigenvalue-minimisations  :  2386
 total energy-change (2. order) : 0.6928655E-03  (-0.1709603E-02)
 number of electron     324.0000003 magnetization 
 augmentation part      -21.1703012 magnetization 

 Broyden mixing:
  rms(total) = 0.93672E-02    rms(broyden)= 0.93671E-02
  rms(prec ) = 0.12085E-01
  weight for this iteration     100.00

 eigenvalues of (default mixing * dielectric matrix)
  average eigenvalue GAMMA=   1.2953
  2.5012  2.5012  1.8762  1.0783  0.8010  0.8010  0.3759  0.4278

 Free energy of the ion-electron system (eV)
  ---------------------------------------------------
  alpha Z        PSCENC =       252.01647767
  Ewald energy   TEWEN  =     59880.15170450
  -Hartree energ DENC   =    -71737.80024747
  -exchange      EXHF   =         0.00000000
  -V(xc)+E(xc)   XCENC  =     -2085.47307016
  PAW double counting   =      8424.90092838    -5782.81594312
  entropy T*S    EENTRO =        -0.00000000
  eigenvalues    EBANDS =     -1227.00145226
  atomic energy  EATOM  =     11953.08265402
  Solvation  Ediel_sol  =         0.00000000
  ---------------------------------------------------
  free energy    TOTEN  =      -322.93894844 eV

  energy without entropy =     -322.93894844  energy(sigma->0) =     -322.93894844


--------------------------------------------------------------------------------------------------------




--------------------------------------- Iteration      1(  14)  ---------------------------------------


    POTLOK:  cpu time    0.2770: real time    0.2773
    SETDIJ:  cpu time    0.0120: real time    0.0121
    EDDIAG:  cpu time    2.5326: real time    2.5389
  RMM-DIIS:  cpu time   49.0889: real time   49.1757
    ORTHCH:  cpu time    0.2134: real time    0.2136
       DOS:  cpu time    0.0005: real time    0.0005
    CHARGE:  cpu time    1.1649: real time    1.1737
    MIXING:  cpu time    0.0076: real time    0.0076
    --------------------------------------------
      LOOP:  cpu time   53.2970: real time   53.3993

 eigenvalue-minimisations  :  2492
 total energy-change (2. order) :-0.8347021E-03  (-0.5032920E-03)
 number of electron     324.0000003 magnetization 
 augmentation part      -21.1634833 magnetization 

 Broyden mixing:
  rms(total) = 0.64258E-02    rms(broyden)= 0.64258E-02
  rms(prec ) = 0.86201E-02
  weight for this iteration     100.00

 eigenvalues of (default mixing * dielectric matrix)
  average eigenvalue GAMMA=   1.3509
  3.2969  2.5459  1.6240  1.6240  0.8045  0.8045  0.6570  0.3757  0.4255

 Free energy of the ion-electron system (eV)
  ---------------------------------------------------
  alpha Z        PSCENC =       252.01647767
  Ewald energy   TEWEN  =     59880.15170450
  -Hartree energ DENC   =    -71744.05190357
  -exchange      EXHF   =         0.00000000
  -V(xc)+E(xc)   XCENC  =     -2085.44994361
  PAW double counting   =      8422.54178909    -5780.36539435
  entropy T*S    EENTRO =        -0.00000000
  eigenvalues    EBANDS =     -1220.86516690
  atomic energy  EATOM  =     11953.08265402
  Solvation  Ediel_sol  =         0.00000000
  ---------------------------------------------------
  free energy    TOTEN  =      -322.93978314 eV

  energy without entropy =     -322.93978314  energy(sigma->0) =     -322.93978314


--------------------------------------------------------------------------------------------------------




--------------------------------------- Iteration      1(  15)  ---------------------------------------


    POTLOK:  cpu time    0.2715: real time    0.2718
    SETDIJ:  cpu time    0.0191: real time    0.0191
    EDDIAG:  cpu time    2.5367: real time    2.5433
  RMM-DIIS:  cpu time   44.2353: real time   44.3401
    ORTHCH:  cpu time    0.2187: real time    0.2190
       DOS:  cpu time    0.0004: real time    0.0004
    CHARGE:  cpu time    1.1626: real time    1.1706
    MIXING:  cpu time    0.0111: real time    0.0111
    --------------------------------------------
      LOOP:  cpu time   48.4555: real time   48.5755

 eigenvalue-minimisations  :  2256
 total energy-change (2. order) :-0.6352464E-03  (-0.1463693E-03)
 number of electron     324.0000003 magnetization 
 augmentation part      -21.1841853 magnetization 

 Broyden mixing:
  rms(total) = 0.43075E-02    rms(broyden)= 0.43075E-02
  rms(prec ) = 0.54588E-02
  weight for this iteration     100.00

 eigenvalues of (default mixing * dielectric matrix)
  average eigenvalue GAMMA=   1.3140
  3.3787  2.4850  1.7752  1.7752  0.7992  0.7992  0.7701  0.5601  0.3758  0.4218

 Free energy of the ion-electron system (eV)
  ---------------------------------------------------
  alpha Z        PSCENC =       252.01647767
  Ewald energy   TEWEN  =     59880.15170450
  -Hartree energ DENC   =    -71748.39242333
  -exchange      EXHF   =         0.00000000
  -V(xc)+E(xc)   XCENC  =     -2085.43457650
  PAW double counting   =      8422.96482859    -5780.77038648
  entropy T*S    EENTRO =        -0.00000000
  eigenvalues    EBANDS =     -1216.55869685
  atomic energy  EATOM  =     11953.08265402
  Solvation  Ediel_sol  =         0.00000000
  ---------------------------------------------------
  free energy    TOTEN  =      -322.94041838 eV

  energy without entropy =     -322.94041838  energy(sigma->0) =     -322.94041838


--------------------------------------------------------------------------------------------------------




--------------------------------------- Iteration      1(  16)  ---------------------------------------


    POTLOK:  cpu time    0.2769: real time    0.2771
    SETDIJ:  cpu time    0.0151: real time    0.0151
    EDDIAG:  cpu time    2.5163: real time    2.5189
  RMM-DIIS:  cpu time   50.5762: real time   50.6683
    ORTHCH:  cpu time    0.2178: real time    0.2180
       DOS:  cpu time    0.0004: real time    0.0004
    CHARGE:  cpu time    1.1627: real time    1.1641
    MIXING:  cpu time    0.0138: real time    0.0138
    --------------------------------------------
      LOOP:  cpu time   54.7791: real time   54.8756

 eigenvalue-minimisations  :  2592
 total energy-change (2. order) :-0.8192151E-03  (-0.5594858E-04)
 number of electron     324.0000003 magnetization 
 augmentation part      -21.1865977 magnetization 

 Broyden mixing:
  rms(total) = 0.34891E-02    rms(broyden)= 0.34891E-02
  rms(prec ) = 0.44207E-02
  weight for this iteration     100.00

 eigenvalues of (default mixing * dielectric matrix)
  average eigenvalue GAMMA=   1.3370
  3.5043  2.2619  2.1851  2.1851  1.0859  0.8119  0.8119  0.6657  0.4253  0.3751
  0.3946

 Free energy of the ion-electron system (eV)
  ---------------------------------------------------
  alpha Z        PSCENC =       252.01647767
  Ewald energy   TEWEN  =     59880.15170450
  -Hartree energ DENC   =    -71750.05231453
  -exchange      EXHF   =         0.00000000
  -V(xc)+E(xc)   XCENC  =     -2085.42402644
  PAW double counting   =      8422.66276540    -5780.48123821
  entropy T*S    EENTRO =        -0.00000000
  eigenvalues    EBANDS =     -1214.89726001
  atomic energy  EATOM  =     11953.08265402
  Solvation  Ediel_sol  =         0.00000000
  ---------------------------------------------------
  free energy    TOTEN  =      -322.94123760 eV

  energy without entropy =     -322.94123760  energy(sigma->0) =     -322.94123760


--------------------------------------------------------------------------------------------------------




--------------------------------------- Iteration      1(  17)  ---------------------------------------


    POTLOK:  cpu time    0.2720: real time    0.2722
    SETDIJ:  cpu time    0.0176: real time    0.0176
    EDDIAG:  cpu time    2.5452: real time    2.5519
  RMM-DIIS:  cpu time   40.5798: real time   40.6670
    ORTHCH:  cpu time    0.2155: real time    0.2157
       DOS:  cpu time    0.0004: real time    0.0004
    CHARGE:  cpu time    1.1747: real time    1.1761
    MIXING:  cpu time    0.0080: real time    0.0080
    --------------------------------------------
      LOOP:  cpu time   44.8131: real time   44.9088

 eigenvalue-minimisations  :  2076
 total energy-change (2. order) :-0.1350627E-02  (-0.2932870E-04)
 number of electron     324.0000003 magnetization 
 augmentation part      -21.1818597 magnetization 

 Broyden mixing:
  rms(total) = 0.14981E-02    rms(broyden)= 0.14981E-02
  rms(prec ) = 0.20764E-02
  weight for this iteration     100.00

 eigenvalues of (default mixing * dielectric matrix)
  average eigenvalue GAMMA=   1.4422
  4.6982  2.6602  2.2774  1.6325  1.6325  0.9595  0.8152  0.8152  0.6386  0.4242
  0.3741  0.3792

 Free energy of the ion-electron system (eV)
  ---------------------------------------------------
  alpha Z        PSCENC =       252.01647767
  Ewald energy   TEWEN  =     59880.15170450
  -Hartree energ DENC   =    -71752.87434064
  -exchange      EXHF   =         0.00000000
  -V(xc)+E(xc)   XCENC  =     -2085.40691111
  PAW double counting   =      8421.57554232    -5779.41129471
  entropy T*S    EENTRO =        -0.00000000
  eigenvalues    EBANDS =     -1212.07642029
  atomic energy  EATOM  =     11953.08265402
  Solvation  Ediel_sol  =         0.00000000
  ---------------------------------------------------
  free energy    TOTEN  =      -322.94258823 eV

  energy without entropy =     -322.94258823  energy(sigma->0) =     -322.94258823


--------------------------------------------------------------------------------------------------------




--------------------------------------- Iteration      1(  18)  ---------------------------------------


    POTLOK:  cpu time    0.2738: real time    0.2740
    SETDIJ:  cpu time    0.0116: real time    0.0116
    EDDIAG:  cpu time    2.5455: real time    2.5521
  RMM-DIIS:  cpu time   42.2673: real time   42.3541
    ORTHCH:  cpu time    0.2108: real time    0.2110
       DOS:  cpu time    0.0004: real time    0.0004
    CHARGE:  cpu time    1.1702: real time    1.1715
    MIXING:  cpu time    0.0084: real time    0.0083
    --------------------------------------------
      LOOP:  cpu time   46.4880: real time   46.5831

 eigenvalue-minimisations  :  2141
 total energy-change (2. order) :-0.8267925E-03  (-0.2055791E-04)
 number of electron     324.0000003 magnetization 
 augmentation part      -21.1805171 magnetization 

 Broyden mixing:
  rms(total) = 0.13667E-02    rms(broyden)= 0.13667E-02
  rms(prec ) = 0.16578E-02
  weight for this iteration     100.00

 eigenvalues of (default mixing * dielectric matrix)
  average eigenvalue GAMMA=   1.4365
  5.2194  2.7239  2.2636  1.7867  1.7867  0.9691  0.8167  0.8167  0.6375  0.4716
  0.4252  0.3757  0.3815

 Free energy of the ion-electron system (eV)
  ---------------------------------------------------
  alpha Z        PSCENC =       252.01647767
  Ewald energy   TEWEN  =     59880.15170450
  -Hartree energ DENC   =    -71754.83471103
  -exchange      EXHF   =         0.00000000
  -V(xc)+E(xc)   XCENC  =     -2085.40078539
  PAW double counting   =      8421.12521421    -5778.95014958
  entropy T*S    EENTRO =        -0.00000000
  eigenvalues    EBANDS =     -1210.13381942
  atomic energy  EATOM  =     11953.08265402
  Solvation  Ediel_sol  =         0.00000000
  ---------------------------------------------------
  free energy    TOTEN  =      -322.94341502 eV

  energy without entropy =     -322.94341502  energy(sigma->0) =     -322.94341502


--------------------------------------------------------------------------------------------------------




--------------------------------------- Iteration      1(  19)  ---------------------------------------


    POTLOK:  cpu time    0.2706: real time    0.2719
    SETDIJ:  cpu time    0.0115: real time    0.0115
    EDDIAG:  cpu time    2.5325: real time    2.5351
  RMM-DIIS:  cpu time   46.3468: real time   46.4469
    ORTHCH:  cpu time    0.2100: real time    0.2104
       DOS:  cpu time    0.0004: real time    0.0004
    CHARGE:  cpu time    1.1610: real time    1.1618
    MIXING:  cpu time    0.0109: real time    0.0109
    --------------------------------------------
      LOOP:  cpu time   50.5438: real time   50.6489

 eigenvalue-minimisations  :  2381
 total energy-change (2. order) :-0.3320423E-03  (-0.5647401E-05)
 number of electron     324.0000003 magnetization 
 augmentation part      -21.1800696 magnetization 

 Broyden mixing:
  rms(total) = 0.91138E-03    rms(broyden)= 0.91137E-03
  rms(prec ) = 0.11161E-02
  weight for this iteration     100.00

 eigenvalues of (default mixing * dielectric matrix)
  average eigenvalue GAMMA=   1.5348
  6.2382  3.0053  2.4479  1.9343  1.9343  1.0344  1.0344  0.8174  0.8174  0.6472
  0.4259  0.4047  0.3762  0.3702

 Free energy of the ion-electron system (eV)
  ---------------------------------------------------
  alpha Z        PSCENC =       252.01647767
  Ewald energy   TEWEN  =     59880.15170450
  -Hartree energ DENC   =    -71755.36702085
  -exchange      EXHF   =         0.00000000
  -V(xc)+E(xc)   XCENC  =     -2085.39990764
  PAW double counting   =      8421.23864131    -5779.06057187
  entropy T*S    EENTRO =        -0.00000000
  eigenvalues    EBANDS =     -1209.60572421
  atomic energy  EATOM  =     11953.08265402
  Solvation  Ediel_sol  =         0.00000000
  ---------------------------------------------------
  free energy    TOTEN  =      -322.94374706 eV

  energy without entropy =     -322.94374706  energy(sigma->0) =     -322.94374706


--------------------------------------------------------------------------------------------------------




--------------------------------------- Iteration      1(  20)  ---------------------------------------


    POTLOK:  cpu time    0.2732: real time    0.2735
    SETDIJ:  cpu time    0.0138: real time    0.0138
    EDDIAG:  cpu time    2.5415: real time    2.5480
  RMM-DIIS:  cpu time   40.7594: real time   40.8745
    ORTHCH:  cpu time    0.2126: real time    0.2210
       DOS:  cpu time    0.0004: real time    0.0004
    CHARGE:  cpu time    1.1605: real time    1.1614
    MIXING:  cpu time    0.0084: real time    0.0084
    --------------------------------------------
      LOOP:  cpu time   44.9698: real time   45.1009

 eigenvalue-minimisations  :  2061
 total energy-change (2. order) :-0.4706251E-03  (-0.5077505E-05)
 number of electron     324.0000003 magnetization 
 augmentation part      -21.1800508 magnetization 

 Broyden mixing:
  rms(total) = 0.40330E-03    rms(broyden)= 0.40329E-03
  rms(prec ) = 0.50249E-03
  weight for this iteration     100.00

 eigenvalues of (default mixing * dielectric matrix)
  average eigenvalue GAMMA=   1.5936
  6.8833  3.3341  2.5085  1.8305  1.8305  1.6448  1.0546  0.9614  0.8139  0.8139
  0.6518  0.4251  0.4087  0.3761  0.3671

 Free energy of the ion-electron system (eV)
  ---------------------------------------------------
  alpha Z        PSCENC =       252.01647767
  Ewald energy   TEWEN  =     59880.15170450
  -Hartree energ DENC   =    -71755.93617586
  -exchange      EXHF   =         0.00000000
  -V(xc)+E(xc)   XCENC  =     -2085.39944381
  PAW double counting   =      8421.69139250    -5779.51495406
  entropy T*S    EENTRO =        -0.00000000
  eigenvalues    EBANDS =     -1209.03587266
  atomic energy  EATOM  =     11953.08265402
  Solvation  Ediel_sol  =         0.00000000
  ---------------------------------------------------
  free energy    TOTEN  =      -322.94421769 eV

  energy without entropy =     -322.94421769  energy(sigma->0) =     -322.94421769


--------------------------------------------------------------------------------------------------------




--------------------------------------- Iteration      1(  21)  ---------------------------------------


    POTLOK:  cpu time    0.2736: real time    0.2738
    SETDIJ:  cpu time    0.0116: real time    0.0116
    EDDIAG:  cpu time    2.5493: real time    2.5558
  RMM-DIIS:  cpu time   38.3553: real time   38.4478
    ORTHCH:  cpu time    0.2257: real time    0.2260
       DOS:  cpu time    0.0004: real time    0.0004
    CHARGE:  cpu time    1.1636: real time    1.1690
    MIXING:  cpu time    0.0085: real time    0.0085
    --------------------------------------------
      LOOP:  cpu time   42.5881: real time   42.6930

 eigenvalue-minimisations  :  1855
 total energy-change (2. order) :-0.1211567E-03  (-0.1288925E-05)
 number of electron     324.0000003 magnetization 
 augmentation part      -21.1813144 magnetization 

 Broyden mixing:
  rms(total) = 0.28114E-03    rms(broyden)= 0.28114E-03
  rms(prec ) = 0.33852E-03
  weight for this iteration     100.00

 eigenvalues of (default mixing * dielectric matrix)
  average eigenvalue GAMMA=   1.5624
  7.0512  3.3413  2.4944  1.9533  1.9533  1.7163  1.0421  0.8165  0.8165  0.8656
  0.7385  0.6321  0.4250  0.4095  0.3760  0.3673

 Free energy of the ion-electron system (eV)
  ---------------------------------------------------
  alpha Z        PSCENC =       252.01647767
  Ewald energy   TEWEN  =     59880.15170450
  -Hartree energ DENC   =    -71756.16913890
  -exchange      EXHF   =         0.00000000
  -V(xc)+E(xc)   XCENC  =     -2085.40003481
  PAW double counting   =      8421.74567976    -5779.57100322
  entropy T*S    EENTRO =        -0.00000000
  eigenvalues    EBANDS =     -1208.80067787
  atomic energy  EATOM  =     11953.08265402
  Solvation  Ediel_sol  =         0.00000000
  ---------------------------------------------------
  free energy    TOTEN  =      -322.94433884 eV

  energy without entropy =     -322.94433884  energy(sigma->0) =     -322.94433884


--------------------------------------------------------------------------------------------------------




--------------------------------------- Iteration      1(  22)  ---------------------------------------


    POTLOK:  cpu time    0.2791: real time    0.2795
    SETDIJ:  cpu time    0.0147: real time    0.0147
    EDDIAG:  cpu time    2.5267: real time    2.5291
  RMM-DIIS:  cpu time   27.1497: real time   27.2101
    ORTHCH:  cpu time    0.2249: real time    0.2251
       DOS:  cpu time    0.0004: real time    0.0004
    CHARGE:  cpu time    1.1604: real time    1.1656
    MIXING:  cpu time    0.0117: real time    0.0118
    --------------------------------------------
      LOOP:  cpu time   31.3676: real time   31.4363

 eigenvalue-minimisations  :  1338
 total energy-change (2. order) :-0.4149377E-04  (-0.3116192E-06)
 number of electron     324.0000003 magnetization 
 augmentation part      -21.1813657 magnetization 

 Broyden mixing:
[...]
  0.000   0.000   0.000  -0.000   0.000   0.011   0.000  -0.000
 -0.000   0.000  -0.000   0.000   0.000   0.000   0.011  -0.000
  0.000  -0.000   0.000   0.000   0.000  -0.000  -0.000   0.011
 -0.001  -0.000   0.000   0.000   0.000  -0.000  -0.000   0.000
  0.000   0.000  -0.016  -0.000   0.000  -0.000   0.000  -0.000
 -0.009  -0.000   0.000  -0.020  -0.000  -0.000  -0.000   0.000
  0.000  -0.000   0.000   0.001  -0.016  -0.000  -0.000  -0.000
 -0.000   0.000   0.001  -0.000   0.001   0.000   0.000  -0.000
 total augmentation occupancy for first ion, spin component:           1
  1.931   0.237  -0.006   0.200  -0.003   0.004   0.048  -0.006   0.001   0.001   0.007  -0.001   0.001
  0.237   1.379   0.011  -0.960   0.025  -0.006   0.389  -0.008  -0.009  -0.001  -0.021  -0.003   0.000
 -0.006   0.011   1.336   0.012   0.004  -0.485  -0.000   0.001   0.007  -0.118  -0.002   0.001  -0.046
  0.200  -0.960   0.012   1.510  -0.008  -0.001  -0.556   0.010  -0.001  -0.002  -0.041   0.004  -0.004
 -0.003   0.025   0.004  -0.008   1.347   0.001   0.010  -0.500  -0.043   0.000  -0.001  -0.124  -0.000
  0.004  -0.006  -0.485  -0.001   0.001   0.314  -0.001  -0.007  -0.002   0.041   0.000   0.001   0.007
  0.048   0.389  -0.000  -0.556   0.010  -0.001   0.302  -0.004   0.000   0.001   0.048  -0.002  -0.000
 -0.006  -0.008   0.001   0.010  -0.500  -0.007  -0.004   0.314   0.008   0.001   0.000   0.042  -0.000
  0.001  -0.009   0.007  -0.001  -0.043  -0.002   0.000   0.008   0.021  -0.000   0.001  -0.000   0.001
  0.001  -0.001  -0.118  -0.002   0.000   0.041   0.001   0.001  -0.000   0.019   0.000  -0.001  -0.001
  0.007  -0.021  -0.002  -0.041  -0.001   0.000   0.048   0.000   0.001   0.000   0.021  -0.000  -0.000
 -0.001  -0.003   0.001   0.004  -0.124   0.001  -0.002   0.042  -0.000  -0.001  -0.000   0.020  -0.000
  0.001   0.000  -0.046  -0.004  -0.000   0.007  -0.000  -0.000   0.001  -0.001  -0.000  -0.000   0.021


------------------------ aborting loop because EDIFF is reached ----------------------------------------


    CHARGE:  cpu time    1.1701: real time    1.1711
    FORLOC:  cpu time    0.0825: real time    0.0825
    FORNL :  cpu time   13.3962: real time   13.4139
    STRESS:  cpu time   70.5061: real time   70.6493
    FORCOR:  cpu time    0.3137: real time    0.3140
    FORHAR:  cpu time    0.1248: real time    0.1249
    MIXING:  cpu time    0.0073: real time    0.0073
    OFIELD:  cpu time    0.0000: real time    0.0000

  Number of pair interactions contributing to vdW energy:  275556
  Edisp (eV):  -19.27710
    FORVDW:  cpu time    0.0299: real time    0.0299

  FORCE on cell =-STRESS in cart. coord.  units (eV):
  Direction    XX          YY          ZZ          XY          YZ          ZX
  --------------------------------------------------------------------------------------
  Alpha Z   252.01648   252.01648   252.01648
  Ewald   69030.18913 69054.39962-78233.34904   -76.85628    41.52271    38.00770
  Hartree 71358.35409 71362.92086-70991.53655   -20.86481     4.31212     7.93128
  E(xc)   -1358.79318 -1359.52580 -1378.46962     1.26746    -1.71145    -0.67968
  Local  ************************144152.43166    94.77854   -44.88716   -44.08011
  n-local  3565.95038  3565.26784  3753.14764     1.57229    12.37521     4.39829
  augment  -760.70048  -759.70032  -801.94310    -1.87659    -2.07294    -0.39849
  Kinetic  3296.23390  3303.18711  3275.58413   -19.65123     6.17730     6.52064
  Fock        0.00000     0.00000     0.00000     0.00000     0.00000     0.00000
  vdW       -12.87947   -12.87962    -9.55307    -0.12872    -0.65511     0.64193
  -------------------------------------------------------------------------------------
  Total      10.31063    18.18370    18.32853   -21.75933    15.06067    12.34154
  in kB       5.80099    10.23056    10.31204   -12.24229     8.47347     6.94363
  external pressure =        8.78 kB  Pullay stress =        0.00 kB

  kinetic pressure (ideal gas correction) =      0.23 kB
  total pressure  =      9.01 kB
  Total+kin.     6.094      10.432      10.502     -12.263       8.504       6.969

 VOLUME and BASIS-vectors are now :
 -----------------------------------------------------------------------------
  energy-cutoff  :      550.00
  volume of cell :     2847.70
      direct lattice vectors                 reciprocal lattice vectors
    10.554205003  0.000000000  0.000000000     0.094748965  0.050626282  0.002340460
    -4.849155359  9.075374127  0.000000000     0.000000000  0.110188295  0.002361896
    -0.393885345 -0.637277864 29.730586678     0.000000000  0.000000000  0.033635394

  length of vectors
    10.554205003 10.289641551 29.740024428     0.107451685  0.110213606  0.033635394


 FORCES acting on ions
    electron-ion (+dipol)            ewald-force                    non-local-force                 convergence-correction
 -----------------------------------------------------------------------------------------------
   0.674E+00 0.848E+00 -.838E+03   -.642E+00 -.967E+00 0.844E+03   -.115E+00 0.386E+00 -.496E+01   0.133E-03 0.374E-03 0.114E-02
   -.119E+01 -.287E+01 -.835E+03   0.125E+01 0.281E+01 0.840E+03   0.908E-01 0.482E+00 -.482E+01   -.137E-02 -.449E-03 -.466E-03
   0.761E+00 -.296E+01 -.835E+03   -.691E+00 0.287E+01 0.840E+03   -.185E+00 0.575E+00 -.480E+01   0.435E-03 -.403E-03 0.542E-03
   0.288E+01 -.577E+00 -.834E+03   -.287E+01 0.548E+00 0.840E+03   -.117E+00 0.317E+00 -.546E+01   0.624E-03 -.365E-03 0.358E-03
   0.298E+00 -.733E+00 -.832E+03   -.297E+00 0.660E+00 0.837E+03   0.242E+00 0.337E+00 -.517E+01   -.237E-03 -.220E-03 0.994E-03
   0.296E+01 0.134E+01 -.835E+03   -.286E+01 -.142E+01 0.840E+03   -.332E+00 0.116E+00 -.520E+01   -.449E-03 0.517E-03 0.538E-03
   0.196E+01 0.281E+01 -.835E+03   -.187E+01 -.292E+01 0.840E+03   -.958E-01 0.122E+00 -.520E+01   -.685E-03 0.151E-02 -.429E-03
   0.405E+01 -.639E+00 -.835E+03   -.408E+01 0.551E+00 0.841E+03   0.330E-01 0.376E+00 -.478E+01   0.154E-02 -.872E-03 -.477E-03
   0.301E+01 -.285E+01 -.832E+03   -.298E+01 0.276E+01 0.838E+03   -.186E+00 0.698E+00 -.491E+01   0.981E-04 -.160E-03 0.116E-02
   0.789E+00 -.454E+01 0.102E+03   -.802E+00 0.451E+01 -.965E+02   0.451E-01 0.455E+00 -.519E+01   0.123E-02 0.196E-02 -.267E-03
   -.177E+01 -.133E+01 0.103E+03   0.172E+01 0.129E+01 -.975E+02   0.377E+00 0.362E+00 -.539E+01   0.171E-02 -.377E-03 -.446E-03
   0.898E+00 0.161E+01 0.102E+03   -.925E+00 -.163E+01 -.964E+02   -.282E-01 0.395E-01 -.545E+01   0.459E-03 0.284E-03 0.464E-03
   0.238E+01 -.281E+01 0.105E+03   -.242E+01 0.281E+01 -.999E+02   -.144E+00 0.298E+00 -.524E+01   -.690E-03 0.709E-03 -.292E-03
   0.775E+00 -.220E+01 0.105E+03   -.812E+00 0.216E+01 -.996E+02   0.340E-01 0.462E+00 -.512E+01   -.907E-03 -.326E-03 -.210E-02
   0.200E+01 0.291E+01 0.104E+03   -.203E+01 -.301E+01 -.982E+02   -.316E-01 0.125E+00 -.510E+01   0.457E-03 -.991E-03 -.223E-03
   0.293E+01 -.159E+01 0.106E+03   -.304E+01 0.158E+01 -.100E+03   0.153E+00 0.221E+00 -.547E+01   -.547E-03 0.404E-03 0.122E-02
   0.602E+01 -.717E-01 0.105E+03   -.610E+01 0.109E+00 -.996E+02   -.311E+00 0.152E+00 -.523E+01   -.797E-03 -.344E-03 0.212E-03
   0.323E+01 0.526E+01 0.102E+03   -.328E+01 -.536E+01 -.971E+02   0.107E-01 -.171E+00 -.519E+01   -.989E-03 -.123E-02 0.523E-03
   0.874E+00 0.107E+01 -.103E+03   -.697E+00 -.102E+01 0.976E+02   -.481E+00 -.235E+00 0.514E+01   0.127E-03 0.412E-03 -.552E-03
   -.222E-01 -.768E+00 -.102E+03   0.185E+00 0.798E+00 0.970E+02   -.331E+00 -.136E+00 0.524E+01   -.126E-02 -.458E-03 0.793E-03
   0.236E+01 -.141E-01 -.105E+03   -.225E+01 0.623E-01 0.998E+02   -.422E+00 -.218E+00 0.518E+01   0.414E-03 -.390E-03 0.584E-04
   0.264E+01 0.336E+01 -.103E+03   -.252E+01 -.327E+01 0.981E+02   -.241E+00 -.690E+00 0.539E+01   0.577E-03 -.281E-03 0.148E-03
   0.322E+01 0.110E+01 -.105E+03   -.311E+01 -.995E+00 0.996E+02   -.367E+00 -.441E+00 0.520E+01   -.215E-03 -.221E-03 -.651E-03
   0.346E+01 0.267E+01 -.101E+03   -.334E+01 -.257E+01 0.959E+02   -.306E+00 -.494E+00 0.523E+01   -.494E-03 0.415E-03 -.265E-04
   0.296E+01 0.502E+00 -.104E+03   -.277E+01 -.445E+00 0.984E+02   -.466E+00 -.111E+00 0.519E+01   -.680E-03 0.155E-02 0.104E-02
   0.292E+01 -.147E+01 -.102E+03   -.272E+01 0.158E+01 0.967E+02   -.420E+00 -.152E+00 0.517E+01   0.151E-02 -.903E-03 0.935E-03
   -.674E+00 0.127E+01 -.104E+03   0.855E+00 -.127E+01 0.989E+02   -.517E-01 -.131E+00 0.559E+01   0.312E-04 -.203E-03 -.656E-03
   -.177E+01 0.295E+00 0.835E+03   0.193E+01 -.287E+00 -.840E+03   -.748E-02 -.344E+00 0.518E+01   0.115E-02 0.199E-02 -.278E-03
   0.720E+00 0.519E+00 0.835E+03   -.644E+00 -.417E+00 -.840E+03   -.148E+00 -.341E+00 0.512E+01   0.173E-02 -.493E-03 -.104E-03
   0.110E+01 -.170E+01 0.834E+03   -.987E+00 0.184E+01 -.839E+03   -.334E+00 -.144E+00 0.505E+01   0.384E-03 0.289E-03 -.109E-02
   0.401E+01 0.456E+00 0.834E+03   -.395E+01 -.366E+00 -.840E+03   -.457E+00 -.378E+00 0.526E+01   -.723E-03 0.745E-03 -.388E-03
   0.140E+00 0.252E+01 0.834E+03   -.522E-01 -.249E+01 -.840E+03   -.118E+00 -.398E+00 0.506E+01   -.879E-03 -.343E-03 0.115E-02
   0.423E+01 0.123E+01 0.836E+03   -.413E+01 -.112E+01 -.841E+03   -.529E+00 -.521E+00 0.485E+01   0.469E-03 -.101E-02 -.547E-03
   0.509E+01 0.107E+01 0.831E+03   -.505E+01 -.986E+00 -.837E+03   -.408E+00 -.486E+00 0.525E+01   -.417E-03 0.410E-03 -.180E-02
   0.447E+01 0.246E+01 0.834E+03   -.443E+01 -.238E+01 -.840E+03   -.333E+00 -.364E+00 0.508E+01   -.900E-03 -.367E-03 -.957E-03
   0.258E+01 0.291E+01 0.836E+03   -.243E+01 -.284E+01 -.841E+03   -.365E+00 -.518E+00 0.496E+01   -.935E-03 -.122E-02 -.140E-02
   -.404E+01 0.334E+01 -.470E+03   0.421E+01 -.342E+01 0.470E+03   0.237E+00 -.450E+00 -.462E-01   -.813E-03 0.103E-02 0.329E-03
   -.331E+01 0.115E+01 -.469E+03   0.344E+01 -.124E+01 0.468E+03   0.883E-01 -.253E+00 -.253E+00   -.127E-03 0.770E-04 0.303E-03
   -.183E+01 -.278E+01 -.471E+03   0.196E+01 0.274E+01 0.471E+03   0.483E-01 -.340E-01 -.628E+00   0.969E-03 -.111E-02 0.276E-03
   -.698E+01 -.883E+00 -.474E+03   0.719E+01 0.894E+00 0.474E+03   0.470E+00 -.871E-01 -.213E+00   0.681E-03 -.180E-03 0.276E-03
   -.588E+01 -.171E+01 -.471E+03   0.600E+01 0.162E+01 0.471E+03   0.232E+00 0.873E-02 -.278E+00   -.100E-02 0.271E-03 0.255E-03
   -.832E+01 -.166E+01 -.468E+03   0.865E+01 0.163E+01 0.468E+03   0.510E+00 -.407E-01 -.138E-01   -.551E-03 -.493E-03 0.309E-03
   -.105E+01 -.114E+01 -.465E+03   0.115E+01 0.124E+01 0.466E+03   0.299E-02 0.344E+00 0.178E+00   -.201E-04 0.852E-03 0.405E-03
   -.496E+00 0.122E+01 -.466E+03   0.561E+00 -.123E+01 0.467E+03   -.377E-01 0.411E-01 0.248E+00   0.108E-02 -.460E-03 0.395E-03
   -.252E+01 0.243E+00 -.468E+03   0.258E+01 -.153E+00 0.468E+03   0.149E-01 -.139E+00 -.264E-01   -.500E-03 0.169E-03 0.356E-03
   -.581E+01 -.271E+01 0.471E+03   0.591E+01 0.275E+01 -.471E+03   0.249E+00 0.131E+00 -.188E+00   0.344E-03 0.150E-02 -.513E-03
   -.289E+01 -.337E+00 0.468E+03   0.289E+01 0.327E+00 -.468E+03   -.387E+00 -.102E+00 0.754E-01   0.117E-02 0.689E-03 -.458E-03
   -.424E+01 0.674E-03 0.468E+03   0.435E+01 0.255E-01 -.468E+03   0.936E-01 -.116E-01 0.150E+00   0.124E-02 -.775E-03 -.431E-03
   -.395E+01 -.443E+01 0.469E+03   0.411E+01 0.457E+01 -.469E+03   0.141E+00 0.273E+00 -.108E+00   -.634E-03 -.160E-03 -.459E-03
   -.392E+01 -.703E+00 0.468E+03   0.406E+01 0.721E+00 -.469E+03   0.208E+00 0.133E+00 -.102E+00   -.168E-02 0.312E-03 -.447E-03
   -.523E+01 0.254E+01 0.470E+03   0.543E+01 -.253E+01 -.470E+03   0.232E+00 -.422E-01 0.278E+00   -.725E-03 -.180E-02 -.379E-03
   -.142E+01 -.324E+01 0.465E+03   0.154E+01 0.334E+01 -.465E+03   -.355E+00 0.452E+00 -.150E+00   0.279E-03 0.467E-03 -.535E-03
   -.242E+01 0.161E+01 0.471E+03   0.253E+01 -.157E+01 -.472E+03   -.324E-01 -.180E+00 0.112E+00   0.357E-03 0.265E-03 -.447E-03
   -.215E+01 0.100E+01 0.468E+03   0.225E+01 -.891E+00 -.468E+03   0.126E+00 0.880E-01 0.182E+00   -.424E-03 -.640E-03 -.490E-03
 -----------------------------------------------------------------------------------------------
   0.450E+01 0.608E+00 0.325E+00   -.253E-13 0.249E-13 -.517E-11   -.450E+01 -.615E+00 -.321E+00   -.461E-03 -.347E-04 -.314E-02
 
 
 POSITION                                       TOTAL-FORCE (eV/Angst)
 -----------------------------------------------------------------------------------
      1.54169      0.56869     20.32278        -0.093426      0.258753      0.374107
     -0.09747      3.58707     20.28592         0.124749      0.406007      0.562499
     -1.67387      6.59709     20.28835        -0.116701      0.465351      0.624949
      5.08653      0.55696     20.32363        -0.097680      0.270889     -0.117185
      3.42812      3.58899     20.28357         0.227326      0.253805      0.292457
      1.85696      6.63566     20.31106        -0.232883      0.031536      0.107667
      8.57234      0.59876     20.30766        -0.012648      0.021156      0.155606
      6.94391      3.58505     20.28421        -0.001157      0.276196      0.632347
      5.35569      6.60503     20.28030        -0.165164      0.592018      0.517967
      0.45884      0.72703     13.04614        -0.004775      0.410563      0.202522
     -1.18194      3.75287     13.04406         0.274911      0.313386      0.025060
     -2.78510      6.79705     13.05047        -0.096674      0.020389     -0.011069
      3.98038      0.71674     13.02495        -0.216332      0.288699      0.231961
      2.36594      3.75188     13.01371        -0.035659      0.417605      0.356047
      0.73913      6.79485     13.02099        -0.104121      0.022965      0.321561
      7.49139      0.74087     13.03206         0.005299      0.200750      0.042157
      5.91240      3.76350     13.02101        -0.417094      0.179857      0.243889
      4.25165      6.81810     13.03616        -0.086154     -0.259776      0.214133
      1.60199      0.64686     16.70041        -0.267317     -0.181478     -0.218526
     -0.03482      3.65194     16.70171        -0.141530     -0.111881     -0.205978
     -1.64951      6.69928     16.71593        -0.284973     -0.162784     -0.256730
      5.09465      0.66519     16.68400        -0.089428     -0.582076     -0.052420
      3.48349      3.67849     16.71708        -0.227506     -0.332538     -0.344003
      1.86491      6.69819     16.67943        -0.155795     -0.387806     -0.181422
      8.62994      0.64094     16.70142        -0.246120     -0.052081     -0.262131
      7.01270      3.66628     16.70253        -0.182674     -0.040711     -0.302253
      5.37120      6.69760     16.68742         0.150221     -0.119895      0.115772
      0.46610      0.81460      9.42123         0.135329     -0.318795     -0.131390
     -1.11613      3.84042      9.41922        -0.069784     -0.227626     -0.221797
     -2.74791      6.83057      9.43616        -0.225249     -0.015102     -0.306884
      4.02717      0.79937      9.41856        -0.390527     -0.284687     -0.091250
      2.38998      3.84412      9.42525        -0.036806     -0.354569     -0.282973
      0.79349      6.87864      9.43022        -0.430479     -0.395113     -0.495984
      7.57067      0.81501      9.43872        -0.352093     -0.390359     -0.162254
      5.91919      3.82894      9.42625        -0.292433     -0.275112     -0.295626
      4.30271      6.87785      9.42639        -0.207252     -0.433145     -0.349936
     -0.23593     -0.35919     18.50374         0.415762     -0.563742      0.027367
     -1.86322      2.64286     18.51189         0.234526     -0.350444     -0.357119
     -3.46692      5.64806     18.53275         0.165199     -0.047153     -0.872849
      3.25995     -0.38905     18.52529         0.709387     -0.087513     -0.157272
      1.64816      2.61611     18.52166         0.366527     -0.042022     -0.323067
      0.03613      5.65253     18.49695         0.855811     -0.067884      0.005560
      1.96059      8.65249     18.48411         0.086803      0.481122      0.226872
      5.19901      2.61745     18.48085         0.015520      0.034832      0.397498
      3.56873      5.66290     18.49513         0.090959     -0.079031      0.006272
     -2.67236      8.82537     11.23956         0.383317      0.170247     -0.345390
      0.60213      2.79487     11.22650        -0.388753     -0.112058      0.121320
     -1.03989      5.81460     11.22689         0.215874      0.010926      0.231486
      0.86461      8.82090     11.23584         0.317845      0.438707     -0.142744
      4.10019      2.77416     11.23222         0.364275      0.160187     -0.139576
      2.47345      5.82821     11.20986         0.460377     -0.056686      0.411945
      4.41813      8.81617     11.24996        -0.270244      0.592352     -0.176054
      7.63739      2.80396     11.21859         0.091261     -0.171771      0.081862
      5.98688      5.80579     11.22420         0.242216      0.178477      0.273782
 -----------------------------------------------------------------------------------
    total drift:                               -0.005935     -0.007062      0.000783


--------------------------------------------------------------------------------------------------------



  FREE ENERGIE OF THE ION-ELECTRON SYSTEM (eV)
  ---------------------------------------------------
  free  energy   TOTEN  =      -342.11585445 eV

  energy  without entropy=     -342.11585445  energy(sigma->0) =     -342.11585445
 
 d Force =-0.1518462E-01[-0.173E-01,-0.130E-01]  d Energy =-0.1519976E-01 0.151E-04
 d Force = 0.7979060E+01[ 0.797E+01, 0.799E+01]  d Ewald  = 0.7979057E+01 0.326E-05


--------------------------------------------------------------------------------------------------------


    POTLOK:  cpu time    0.2909: real time    0.2912


--------------------------------------------------------------------------------------------------------


           RANDOM_SEED =         237090424              324                0
   IONSTEP:  cpu time    0.0001: real time    0.0001

  ENERGY OF THE ELECTRON-ION-THERMOSTAT SYSTEM (eV)
  ---------------------------------------------------
% ion-electron   TOTEN  =      -342.115854  see above
  kinetic energy EKIN   =         0.603851
  kin. lattice  EKIN_LAT=         0.000000  (temperature   88.14 K)
  nose potential ES     =        -0.022036
  nose kinetic   EPS    =         0.001967
  ---------------------------------------------------
  total energy   ETOTAL =      -341.532073 eV

  maximum distance moved by ions :      0.49E-03


 mean value of Nose-termostat <S>:     0.977 mean value of <T> :    88.143
 mean temperature <T/S>/<1/S>  :    88.143

    WAVPRE:  cpu time    0.1024: real time    0.1062
    FEWALD:  cpu time    0.0011: real time    0.0011
    ORTHCH:  cpu time    7.8797: real time    7.8995
    POTLOK:  cpu time    0.2886: real time    0.2888
    EDDIAG:  cpu time    2.5235: real time    2.5305
     LOOP+:  cpu time  465.9896: real time  466.9980
    4ORBIT:  cpu time    0.0000: real time    0.0000

 total amount of memory used by VASP MPI-rank0   362059. kBytes
=======================================================================

   base      :      30000. kBytes
   nonl-proj :     192337. kBytes
   fftplans  :      18984. kBytes
   grid      :      86187. kBytes
   one-center:        839. kBytes
   wavefun   :      33712. kBytes
 
  
  
 General timing and accounting informations for this job:
 ========================================================
  
                  Total CPU time used (sec):     5621.952
                            User time (sec):     5608.955
                          System time (sec):       12.997
                         Elapsed time (sec):     5634.861
  
                   Maximum memory used (kb):      801708.
                   Average memory used (kb):           0.
  
                          Minor page faults:       395133
                          Major page faults:            0
                 Voluntary context switches:          611
