 vasp.6.1.1 19Jun20 (build Dec 21 2021 08:45:49) complex                        
  
 executed on             LinuxIFC date 2023.10.08  17:35:13
 running on   40 total cores
 distrk:  each k-point on   40 cores,    1 groups
 distr:  one band on NCORE=   1 cores,   40 groups


--------------------------------------------------------------------------------------------------------


 INCAR:
 POTCAR:   PAW_PBE Te 08Apr2002                   
 POTCAR:   PAW_PBE Mo 08Apr2002                   
 -----------------------------------------------------------------------------
|                                                                             |
|           W    W    AA    RRRRR   N    N  II  N    N   GGGG   !!!           |
|           W    W   A  A   R    R  NN   N  II  NN   N  G    G  !!!           |
|           W    W  A    A  R    R  N N  N  II  N N  N  G       !!!           |
|           W WW W  AAAAAA  RRRRR   N  N N  II  N  N N  G  GGG   !            |
|           WW  WW  A    A  R   R   N   NN  II  N   NN  G    G                |
|           W    W  A    A  R    R  N    N  II  N    N   GGGG   !!!           |
|                                                                             |
|     For optimal performance we recommend to set                             |
|       NCORE = 4 - approx SQRT(number of cores).                             |
|     NCORE specifies how many cores store one orbital (NPAR=cpu/NCORE).      |
|     This setting can greatly improve the performance of VASP for DFT.       |
|     The default, NCORE=1 might be grossly inefficient on modern             |
|     multi-core architectures or massively parallel machines. Do your        |
|     own testing!!!!                                                         |
|     Unfortunately you need to use the default for GW and RPA                |
|     calculations (for HF NCORE is supported but not extensively tested      |
|     yet).                                                                   |
|                                                                             |
 -----------------------------------------------------------------------------

 POTCAR:   PAW_PBE Te 08Apr2002                   
   VRHFIN =Te: s2p4                                                                                 
   LEXCH  = PE                                                                                      
   EATOM  =   223.2721 eV,   16.4100 Ry                                                             
                                                                                                    
   TITEL  = PAW_PBE Te 08Apr2002                                                                    
   LULTRA =        F    use ultrasoft PP ?                                                          
   IUNSCR =        1    unscreen: 0-lin 1-nonlin 2-no                                               
   RPACOR =    2.200    partial core radius                                                         
   POMASS =  127.600; ZVAL   =    6.000    mass and valenz                                          
   RCORE  =    2.300    outmost cutoff radius                                                       
   RWIGS  =    2.900; RWIGS  =    1.535    wigner-seitz radius (au A)                               
   ENMAX  =  174.982; ENMIN  =  131.236 eV                                                          
   ICORE  =        3    local potential                                                             
   LCOR   =        T    correct aug charges                                                         
   LPAW   =        T    paw PP                                                                      
   EAUG   =  368.792                                                                                
   DEXC   =    -.169                                                                                
   RMAX   =    3.486    core radius for proj-oper                                                   
   RAUG   =    1.300    factor for augmentation sphere                                              
   RDEP   =    2.397    radius for radial grids                                                     
   QCUT   =   -3.586; QGAM   =    7.172    optimization parameters                                  
                                                                                                    
   Description                                                                                      
     l     E      TYP  RCUT    TYP  RCUT                                                            
     0   .000     23  2.300                                                                         
     0   .000     23  2.300                                                                         
     1   .000     23  2.300                                                                         
     1   .000     23  2.300                                                                         
     2   .000     23  2.300                                                                         
     3  -.100     23  2.300                                                                         
  local pseudopotential read in
  partial core-charges read in
  atomic valenz-charges read in
  non local Contribution for L=           0  read in
    real space projection operators read in
  non local Contribution for L=           0  read in
    real space projection operators read in
  non local Contribution for L=           1  read in
    real space projection operators read in
  non local Contribution for L=           1  read in
    real space projection operators read in
  non local Contribution for L=           2  read in
    real space projection operators read in
    PAW grid and wavefunctions read in
 
   number of l-projection  operators is LMAX  =           5
   number of lm-projection operators is LMMAX =          13
 
 POTCAR:   PAW_PBE Mo 08Apr2002                   
   VRHFIN =Mo: 4p5s4d                                                                               
   LEXCH  = PE                                                                                      
   EATOM  =   217.5180 eV,   15.9871 Ry                                                             
                                                                                                    
   TITEL  = PAW_PBE Mo 08Apr2002                                                                    
   LULTRA =        F    use ultrasoft PP ?                                                          
   IUNSCR =        1    unscreen: 0-lin 1-nonlin 2-no                                               
   RPACOR =    2.200    partial core radius                                                         
   POMASS =   95.940; ZVAL   =    6.000    mass and valenz                                          
   RCORE  =    2.750    outmost cutoff radius                                                       
   RWIGS  =    2.750; RWIGS  =    1.455    wigner-seitz radius (au A)                               
   ENMAX  =  224.584; ENMIN  =  168.438 eV                                                          
   RCLOC  =    2.111    cutoff for local pot                                                        
   LCOR   =        T    correct aug charges                                                         
   LPAW   =        T    paw PP                                                                      
   EAUG   =  345.278                                                                                
   DEXC   =    -.088                                                                                
   RMAX   =    3.077    core radius for proj-oper                                                   
   RAUG   =    1.300    factor for augmentation sphere                                              
   RDEP   =    2.815    radius for radial grids                                                     
   QCUT   =   -4.063; QGAM   =    8.126    optimization parameters                                  
                                                                                                    
   Description                                                                                      
     l     E      TYP  RCUT    TYP  RCUT                                                            
     2   .000     23  2.500                                                                         
     2   .000     23  2.500                                                                         
     0   .000     23  2.600                                                                         
     0  1.000     23  2.600                                                                         
     1   .400     23  2.750                                                                         
     1  2.000     23  2.750                                                                         
     3   .000      7   .000                                                                         
  local pseudopotential read in
  partial core-charges read in
  atomic valenz-charges read in
  non local Contribution for L=           2  read in
    real space projection operators read in
  non local Contribution for L=           2  read in
    real space projection operators read in
  non local Contribution for L=           0  read in
    real space projection operators read in
  non local Contribution for L=           0  read in
    real space projection operators read in
  non local Contribution for L=           1  read in
    real space projection operators read in
  non local Contribution for L=           1  read in
    real space projection operators read in
    PAW grid and wavefunctions read in
 
   number of l-projection  operators is LMAX  =           6
   number of lm-projection operators is LMMAX =          18
 
 -----------------------------------------------------------------------------
|                                                                             |
|               ----> ADVICE to this user running VASP <----                  |
|                                                                             |
|     You have a (more or less) 'large supercell' and for larger cells it     |
|     might be more efficient to use real-space projection operators.         |
|     Therefore, try LREAL= Auto in the INCAR file.                           |
|     Mind: If you want to do very accurate calculations, keep the            |
|     reciprocal projection scheme (i.e. LREAL=.FALSE.).                      |
|                                                                             |
 -----------------------------------------------------------------------------

 PAW_PBE Te 08Apr2002                   :
 energy of atom  1       EATOM= -223.2721
 kinetic energy error for atom=    0.0006 (will be added to EATOM!!)
 PAW_PBE Mo 08Apr2002                   :
 energy of atom  2       EATOM= -217.5180
 kinetic energy error for atom=    0.0009 (will be added to EATOM!!)
 
 
 POSCAR: Te Mo
  positions in cartesian coordinates
  No initial velocities read in
 exchange correlation table for  LEXCH =        8
   RHO(1)=    0.500       N(1)  =     2000
   RHO(2)=  100.500       N(2)  =     4000
 


--------------------------------------------------------------------------------------------------------


 ion  position               nearest neighbor table
   1  0.111  0.222  0.321-  37 2.70  38 2.74  41 2.76   2 3.49   3 3.49   5 3.54   9 3.54   7 3.58
                             4 3.59  19 3.65
   2  0.112  0.555  0.321-  38 2.71  39 2.75  42 2.77   1 3.49   3 3.50   7 3.54   6 3.54   5 3.57
                             8 3.58  20 3.65
   3  0.112  0.890  0.320-  39 2.71  37 2.74  40 2.77   1 3.49   2 3.50   4 3.54   8 3.55   6 3.57
                             9 3.58  21 3.66
   4  0.445  0.222  0.321-  40 2.71  41 2.75  44 2.76   6 3.49   5 3.50   8 3.54   3 3.54   7 3.57
                             1 3.59  22 3.65
   5  0.444  0.556  0.320-  41 2.71  42 2.74  45 2.77   6 3.50   4 3.50   1 3.54   9 3.55   2 3.57
                             8 3.58  23 3.66
   6  0.445  0.889  0.321-  42 2.71  40 2.74  43 2.76   4 3.49   5 3.50   7 3.54   2 3.54   3 3.57
                             9 3.58  24 3.64
   7  0.778  0.222  0.321-  43 2.71  44 2.75  38 2.77   9 3.50   8 3.50   2 3.54   6 3.54   4 3.57
                             1 3.58  25 3.65
   8  0.778  0.556  0.321-  44 2.71  45 2.74  39 2.77   9 3.49   7 3.50   4 3.54   3 3.55   5 3.58
                             2 3.58  26 3.65
   9  0.778  0.889  0.321-  45 2.71  43 2.74  37 2.77   8 3.49   7 3.50   1 3.54   5 3.55   6 3.58
                             3 3.58  27 3.65
  10  0.222  0.055  0.558-  48 2.71  46 2.75  49 2.77  12 3.49  11 3.51  18 3.54  14 3.54  13 3.58
                            16 3.58  28 3.65
  11  0.222  0.389  0.558-  46 2.72  47 2.74  50 2.77  12 3.49  10 3.51  15 3.54  16 3.54  17 3.57
                            14 3.59  29 3.66
  12  0.222  0.722  0.559-  47 2.71  48 2.74  51 2.77  11 3.49  10 3.49  17 3.53  13 3.54  15 3.58
                            18 3.58  30 3.65
  13  0.556  0.055  0.558-  51 2.71  49 2.74  52 2.77  14 3.49  15 3.50  12 3.54  17 3.55  10 3.58
                            16 3.58  31 3.65
  14  0.556  0.389  0.558-  49 2.71  50 2.74  53 2.76  13 3.49  15 3.50  18 3.54  10 3.54  17 3.57
                            11 3.59  32 3.65
  15  0.555  0.722  0.559-  50 2.70  51 2.74  54 2.77  13 3.50  14 3.50  11 3.54  16 3.54  18 3.57
                            12 3.58  33 3.64
  16  0.889  0.056  0.558-  54 2.71  52 2.74  46 2.77  18 3.49  17 3.50  11 3.54  15 3.54  13 3.58
                            10 3.58  34 3.65
  17  0.889  0.389  0.558-  52 2.71  53 2.74  47 2.77  18 3.49  16 3.50  12 3.53  13 3.55  14 3.57
                            11 3.57  35 3.65
  18  0.888  0.722  0.558-  53 2.71  54 2.74  48 2.78  16 3.49  17 3.49  14 3.54  10 3.54  15 3.57
                            12 3.58  36 3.66
  19  0.111  0.222  0.441-  37 2.73  38 2.74  41 2.74  21 3.49  20 3.50  27 3.54  23 3.54  22 3.58
                            25 3.58   1 3.65
  20  0.111  0.556  0.442-  38 2.74  39 2.74  42 2.75  21 3.49  19 3.50  25 3.54  24 3.54  23 3.58
                            26 3.58   2 3.65
  21  0.111  0.889  0.442-  39 2.74  37 2.74  40 2.75  19 3.49  20 3.49  22 3.54  26 3.54  27 3.58
                            24 3.58   3 3.66
  22  0.444  0.222  0.441-  40 2.73  41 2.74  44 2.74  24 3.49  23 3.50  21 3.54  26 3.54  19 3.58
                            25 3.58   4 3.65
  23  0.444  0.556  0.442-  42 2.73  41 2.74  45 2.75  22 3.50  24 3.50  27 3.54  19 3.54  26 3.58
                            20 3.58   5 3.66
  24  0.445  0.889  0.441-  40 2.73  42 2.74  43 2.74  22 3.49  23 3.50  25 3.54  20 3.54  21 3.58
                            27 3.58   6 3.64
  25  0.778  0.223  0.442-  44 2.74  43 2.74  38 2.75  26 3.50  27 3.50  20 3.54  24 3.54  22 3.58
                            19 3.58   7 3.65
  26  0.778  0.556  0.441-  45 2.73  44 2.73  39 2.75  27 3.49  25 3.50  21 3.54  22 3.54  23 3.58
                            20 3.58   8 3.65
  27  0.778  0.888  0.442-  45 2.74  43 2.74  37 2.76  26 3.49  25 3.50  19 3.54  23 3.54  21 3.58
                            24 3.58   9 3.65
  28  0.222  0.055  0.679-  48 2.74  46 2.74  49 2.75  30 3.49  29 3.50  36 3.54  32 3.54  31 3.58
                            34 3.58  10 3.65
  29  0.222  0.389  0.680-  47 2.74  46 2.74  50 2.76  30 3.50  28 3.50  34 3.54  33 3.54  35 3.58
                            32 3.58  11 3.66
  30  0.222  0.722  0.679-  48 2.73  47 2.74  51 2.75  28 3.49  29 3.50  31 3.54  35 3.54  36 3.58
                            33 3.58  12 3.65
  31  0.555  0.056  0.679-  51 2.73  49 2.73  52 2.75  32 3.49  33 3.50  30 3.54  35 3.54  28 3.58
                            34 3.58  13 3.65
  32  0.556  0.389  0.679-  50 2.74  49 2.74  53 2.75  33 3.49  31 3.49  36 3.54  28 3.54  35 3.57
                            29 3.58  14 3.65
  33  0.556  0.722  0.679-  50 2.73  51 2.74  54 2.75  32 3.49  31 3.50  34 3.54  29 3.54  36 3.57
                            30 3.58  15 3.64
  34  0.889  0.055  0.679-  54 2.74  52 2.74  46 2.75  36 3.49  35 3.50  33 3.54  29 3.54  28 3.58
                            31 3.58  16 3.65
  35  0.889  0.389  0.679-  52 2.74  53 2.74  47 2.74  36 3.49  34 3.50  30 3.54  31 3.54  32 3.57
                            29 3.58  17 3.65
  36  0.888  0.722  0.679-  54 2.72  53 2.73  48 2.74  35 3.49  34 3.49  32 3.54  28 3.54  33 3.57
                            30 3.58  18 3.66
  37  0.001  0.000  0.381-   1 2.70  19 2.73   3 2.74  21 2.74  27 2.76   9 2.77  39 3.49
  38  0.000  0.334  0.381-   2 2.71   1 2.74  19 2.74  20 2.74  25 2.75   7 2.77
  39  1.000  0.667  0.381-   3 2.71  21 2.74  20 2.74  26 2.75   2 2.75   8 2.77  37 3.49
  40  0.333  0.000  0.381-   4 2.71  24 2.73  22 2.73   6 2.74  21 2.75   3 2.77
  41  0.333  0.333  0.381-   5 2.71  23 2.74  22 2.74  19 2.74   4 2.75   1 2.76  42 3.49
  42  0.334  0.667  0.381-   6 2.71  23 2.73  24 2.74   5 2.74  20 2.75   2 2.77  41 3.49
  43  0.667  1.000  0.381-   7 2.71  25 2.74  27 2.74  24 2.74   9 2.74   6 2.76
  44  0.666  0.333  0.381-   8 2.71  26 2.73  25 2.74  22 2.74   7 2.75   4 2.76  45 3.49
  45  0.666  0.666  0.381-   9 2.71  26 2.73  27 2.74   8 2.74  23 2.75   5 2.77  44 3.49
  46  0.111  0.166  0.619-  11 2.72  28 2.74  29 2.74  34 2.75  10 2.75  16 2.77
  47  0.111  0.500  0.619-  12 2.71  29 2.74  30 2.74  11 2.74  35 2.74  17 2.77
  48  0.111  0.833  0.619-  10 2.71  30 2.73  28 2.74  12 2.74  36 2.74  18 2.78
  49  0.444  0.166  0.619-  14 2.71  31 2.73  32 2.74  13 2.74  28 2.75  10 2.77  51 3.49
  50  0.445  0.500  0.619-  15 2.70  33 2.73  32 2.74  14 2.74  29 2.76  11 2.77
  51  0.445  0.834  0.619-  13 2.71  31 2.73  33 2.74  15 2.74  30 2.75  12 2.77  49 3.49
  52  0.778  0.167  0.619-  17 2.71  35 2.74  34 2.74  16 2.74  31 2.75  13 2.77
  53  0.777  0.500  0.619-  18 2.71  36 2.73  35 2.74  17 2.74  32 2.75  14 2.76  54 3.48
  54  0.779  0.833  0.619-  16 2.71  36 2.72  34 2.74  18 2.74  33 2.75  15 2.77  53 3.48
 

IMPORTANT INFORMATION: All symmetrisations will be switched off!
NOSYMM: (Re-)initialisation of all symmetry stuff for point group C_1.


----------------------------------------------------------------------------------------

                                     Primitive cell                                     

  volume of cell :    2947.0946

  direct lattice vectors                    reciprocal lattice vectors
    10.732235383  0.000000000  0.000000000     0.093177233  0.053651911 -0.000866388
    -5.232677002  9.087586144  0.000000000     0.000000000  0.110040222 -0.001104269
     0.106364831  0.303234558 30.217278508     0.000000000  0.000000000  0.033093649

  length of vectors
    10.732235383 10.486426013 30.218987162     0.107523370  0.110045763  0.033093649

  position of ions in fractional coordinates (direct lattice)
     0.111258551  0.222293587  0.320712809
     0.111566552  0.555424430  0.320590993
     0.111908539  0.889507347  0.320493052
     0.445372223  0.222437624  0.320588704
     0.444071272  0.555559442  0.320425532
     0.444668862  0.889422391  0.320836680
     0.778104496  0.222482651  0.320624350
     0.777888132  0.555789420  0.320607206
     0.778109364  0.889167641  0.320760773
     0.222245994  0.055143564  0.558413557
     0.221978446  0.389443375  0.558277117
     0.221837716  0.721876069  0.558579797
     0.555516294  0.055341612  0.558485424
     0.556026528  0.388835588  0.558378628
     0.555433408  0.721947657  0.558617656
     0.888927183  0.055528158  0.558437501
     0.889056607  0.389309321  0.558389505
     0.888434994  0.722266138  0.558223704
     0.110860351  0.221850826  0.441485315
     0.111151319  0.555575133  0.441522561
     0.111215046  0.888889849  0.441686056
     0.444273572  0.222219762  0.441426246
     0.444322142  0.555588346  0.441518597
     0.444627989  0.889315612  0.441344780
     0.777805125  0.222595541  0.441525082
     0.777559002  0.555843921  0.441369257
     0.777893752  0.888495250  0.441588346
     0.221922660  0.055246285  0.679360918
     0.221748415  0.388769022  0.679538468
     0.222178020  0.722378989  0.679323751
     0.555220564  0.055574231  0.679280730
     0.555534446  0.388825811  0.679305723
     0.555729687  0.721653061  0.679160927
     0.888590367  0.055247398  0.679373221
     0.888695228  0.389420243  0.679153193
     0.888337173  0.722006369  0.679181051
     0.000667135  0.000385651  0.380911367
     0.000330095  0.333532387  0.380948651
     0.999907855  0.667247454  0.380947102
     0.333196427  0.000175920  0.381169705
     0.332788276  0.333327434  0.381060229
     0.334104292  0.666780067  0.381017449
     0.666533779  0.999919711  0.381154015
     0.666098452  0.333497933  0.381233543
     0.666492115  0.666360776  0.381031214
     0.110858148  0.166411976  0.618975432
     0.111236542  0.499970467  0.618956729
     0.110766408  0.832887531  0.619037923
     0.444392740  0.166427235  0.618832502
     0.444579407  0.500115396  0.618794029
     0.444822855  0.833675944  0.618999034
     0.778039894  0.166788684  0.618926489
     0.777233193  0.500209925  0.618728711
     0.778563776  0.833153128  0.618957062

  ion indices of the primitive-cell ions
   primitive index   ion index
                 1           1
                 2           2
                 3           3
                 4           4
                 5           5
                 6           6
                 7           7
                 8           8
                 9           9
                10          10
                11          11
                12          12
                13          13
                14          14
                15          15
                16          16
                17          17
                18          18
                19          19
                20          20
                21          21
                22          22
                23          23
                24          24
                25          25
                26          26
                27          27
                28          28
                29          29
                30          30
                31          31
                32          32
                33          33
                34          34
                35          35
                36          36
                37          37
                38          38
                39          39
                40          40
                41          41
                42          42
                43          43
                44          44
                45          45
                46          46
                47          47
                48          48
                49          49
                50          50
                51          51
                52          52
                53          53
                54          54

----------------------------------------------------------------------------------------

 
 

Automatic generation of k-mesh.
 generate k-points for:    3    3    1
Space group operators:
 irot       det(A)        alpha          n_x          n_y          n_z        tau_x        tau_y        tau_z
    1     1.000000     0.000000     1.000000     0.000000     0.000000     0.000000     0.000000     0.000000
 
 Subroutine IBZKPT returns following result:
 ===========================================
 
 Found      5 irreducible k-points:
 
 Following reciprocal coordinates:
            Coordinates               Weight
  0.000000  0.000000  0.000000      1.000000
  0.333333  0.000000 -0.000000      2.000000
  0.000000  0.333333 -0.000000      2.000000
  0.333333  0.333333  0.000000      2.000000
 -0.333333  0.333333  0.000000      2.000000
 
 Following cartesian coordinates:
            Coordinates               Weight
  0.000000  0.000000  0.000000      1.000000
  0.031059  0.017884 -0.000289      2.000000
  0.000000  0.036680 -0.000368      2.000000
  0.031059  0.054564 -0.000657      2.000000
 -0.031059  0.018796 -0.000079      2.000000
 


--------------------------------------------------------------------------------------------------------




 Dimension of arrays:
   k-points           NKPTS =      5   k-points in BZ     NKDIM =      5   number of bands    NBANDS=    200
   number of dos      NEDOS =    301   number of ions     NIONS =     54
   non local maximal  LDIM  =      6   non local SUM 2l+1 LMDIM =     18
   total plane-waves  NPLWV = ******
   max r-space proj   IRMAX =      1   max aug-charges    IRDMAX=  35331
   dimension x,y,z NGX =    84 NGY =   80 NGZ =  240
   dimension x,y,z NGXF=   168 NGYF=  160 NGZF=  480
   support grid    NGXF=   168 NGYF=  160 NGZF=  480
   ions per type =              36  18
   NGX,Y,Z   is equivalent  to a cutoff of  13.01, 12.68, 13.20 a.u.
   NGXF,Y,Z  is equivalent  to a cutoff of  26.02, 25.37, 26.41 a.u.

 SYSTEM =  dpgen_md                                
 POSCAR =  Te Mo                                   

 Startparameter for this run:
   NWRITE =      2    write-flag & timer
   PREC   = a         normal or accurate (medium, high low for compatibility)
   ISTART =      0    job   : 0-new  1-cont  2-samecut
   ICHARG =      2    charge: 1-file 2-atom 10-const
   ISPIN  =      1    spin polarized calculation?
   LNONCOLLINEAR =      F non collinear calculations
   LSORBIT =      F    spin-orbit coupling
   INIWAV =      1    electr: 0-lowe 1-rand  2-diag
   LASPH  =      F    aspherical Exc in radial PAW
   METAGGA=      F    non-selfconsistent MetaGGA calc.

 Electronic Relaxation 1
   ENCUT  =  550.0 eV  40.42 Ry    6.36 a.u.  20.52 20.05 57.79*2*pi/ulx,y,z
   ENINI  =  550.0     initial cutoff
   ENAUG  =  368.8 eV  augmentation charge cutoff
   NELM   =    100;   NELMIN=  6; NELMDL= -5     # of ELM steps 
   EDIFF  = 0.1E-05   stopping-criterion for ELM
   LREAL  =      F    real-space projection
   NLSPLINE    = F    spline interpolate recip. space projectors
   LCOMPAT=      F    compatible to vasp.4.4
   GGA_COMPAT  = T    GGA compatible to vasp.4.4-vasp.4.6
   LMAXPAW     = -100 max onsite density
   LMAXMIX     =    2 max onsite mixed and CHGCAR
   VOSKOWN=      0    Vosko Wilk Nusair interpolation
   ROPT   =    0.00000   0.00000
 Ionic relaxation
   EDIFFG = 0.1E-04   stopping-criterion for IOM
   NSW    =     10    number of steps for IOM
   NBLOCK =      1;   KBLOCK =      1    inner block; outer block 
   IBRION =      0    ionic relax: 0-MD 1-quasi-New 2-CG
   NFREE  =      0    steps in history (QN), initial steepest desc. (CG)
   ISIF   =      2    stress and relaxation
   IWAVPR =     11    prediction:  0-non 1-charg 2-wave 3-comb
   ISYM   =      0    0-nonsym 1-usesym 2-fastsym
   LCORR  =      T    Harris-Foulkes like correction to forces

   POTIM  = 2.0000    time-step for ionic-motion
   TEIN   =  100.0    initial temperature
   TEBEG  =  100.0;   TEEND  = 100.0 temperature during run
   SMASS  =   0.04    Nose mass-parameter (am)
   estimated Nose-frequenzy (Omega)   =  0.79E+14 period in steps = 0.40E+02 mass=   0.327E-28a.u.
   SCALEE = 1.0000    scale energy and forces
   NPACO  =    256;   APACO  = 16.0  distance and # of slots for P.C.
   PSTRESS=    0.0 pullay stress

  Mass of Ions in am
   POMASS = 127.60 95.94
  Ionic Valenz
   ZVAL   =   6.00  6.00
  Atomic Wigner-Seitz radii
   RWIGS  =  -1.00 -1.00
  virtual crystal weights 
   VCA    =   1.00  1.00
   NELECT =     324.0000    total number of electrons
   NUPDOWN=      -1.0000    fix difference up-down

 DOS related values:
   EMIN   =  10.00;   EMAX   =-10.00  energy-range for DOS
   EFERMI =   0.00
   ISMEAR =     0;   SIGMA  =   0.10  broadening in eV -4-tet -1-fermi 0-gaus

 Electronic relaxation 2 (details)
   IALGO  =     68    algorithm
   LDIAG  =      T    sub-space diagonalisation (order eigenvalues)
   LSUBROT=      F    optimize rotation matrix (better conditioning)
   TURBO    =      0    0=normal 1=particle mesh
   IRESTART =      0    0=no restart 2=restart with 2 vectors
   NREBOOT  =      0    no. of reboots
   NMIN     =      0    reboot dimension
   EREF     =   0.00    reference energy to select bands
   IMIX   =      4    mixing-type and parameters
     AMIX     =   0.40;   BMIX     =  1.00
     AMIX_MAG =   1.60;   BMIX_MAG =  1.00
     AMIN     =   0.10
     WC   =   100.;   INIMIX=   1;  MIXPRE=   1;  MAXMIX= -45

 Intra band minimization:
   WEIMIN = 0.0010     energy-eigenvalue tresh-hold
   EBREAK =  0.13E-08  absolut break condition
   DEPER  =   0.30     relativ break condition  

   TIME   =   0.40     timestep for ELM

  volume/ion in A,a.u.               =      54.58       368.30
  Fermi-wavevector in a.u.,A,eV,Ry     =   0.784257  1.482031  8.368389  0.615059
  Thomas-Fermi vector in A             =   1.888353
 
 Write flags
   LWAVE        =      F    write WAVECAR
   LDOWNSAMPLE  =      F    k-point downsampling of WAVECAR
   LCHARG       =      F    write CHGCAR
   LVTOT        =      F    write LOCPOT, total local potential
   LVHAR        =      F    write LOCPOT, Hartree potential only
   LELF         =      F    write electronic localiz. function (ELF)
   LORBIT       =      0    0 simple, 1 ext, 2 COOP (PROOUT), +10 PAW based schemes


 Dipole corrections
   LMONO  =      F    monopole corrections only (constant potential shift)
   LDIPOL =      F    correct potential (dipole corrections)
   IDIPOL =      0    1-x, 2-y, 3-z, 4-all directions 
   EPSILON=  1.0000000 bulk dielectric constant

 Exchange correlation treatment:
   GGA     =    --    GGA type
   LEXCH   =     8    internal setting for exchange type
   VOSKOWN=      0    Vosko Wilk Nusair interpolation
   LHFCALC =     F    Hartree Fock is set to
   LHFONE  =     F    Hartree Fock one center treatment
   AEXX    =    0.0000 exact exchange contribution

 Linear response parameters
   LEPSILON=     F    determine dielectric tensor
   LRPA    =     F    only Hartree local field effects (RPA)
   LNABLA  =     F    use nabla operator in PAW spheres
   LVEL    =     F    velocity operator in full k-point grid
   LINTERFAST=   F  fast interpolation
   KINTER  =     0    interpolate to denser k-point grid
   CSHIFT  =0.1000    complex shift for real part using Kramers Kronig
   OMEGAMAX=  -1.0    maximum frequency
   DEG_THRESHOLD= 0.2000000E-02 threshold for treating states as degnerate
   RTIME   =   -0.100 relaxation time in fs
  (WPLASMAI=    0.000 imaginary part of plasma frequency in eV, 0.658/RTIME)
   DFIELD  = 0.0000000 0.0000000 0.0000000 field for delta impulse in time
 
 Orbital magnetization related:
   ORBITALMAG=     F  switch on orbital magnetization
   LCHIMAG   =     F  perturbation theory with respect to B field
   DQ        =  0.001000  dq finite difference perturbation B field
   LLRAUG    =     F  two centre corrections for induced B field



--------------------------------------------------------------------------------------------------------


 molecular dynamics for ions
   using nose mass (canonical ensemble)
 charge density and potential will be updated during run
 non-spin polarized calculation
 RMM-DIIS sequential band-by-band and
  variant of blocked Davidson during initial phase
 perform sub-space diagonalisation
    before iterative eigenvector-optimisation
 modified Broyden-mixing scheme, WC =      100.0
 initial mixing is a Kerker type mixing with AMIX =  0.4000 and BMIX =      1.0000
 Hartree-type preconditioning will be used
 using additional bands           38
 reciprocal scheme for non local part
 use partial core corrections
 calculate Harris-corrections to forces 
   (improved forces if not selfconsistent)
 use gradient corrections 
 use of overlap-Matrix (Vanderbilt PP)
 Gauss-broadening in eV      SIGMA  =   0.10


--------------------------------------------------------------------------------------------------------


  energy-cutoff  :      550.00
  volume of cell :     2947.09
      direct lattice vectors                 reciprocal lattice vectors
    10.732235383  0.000000000  0.000000000     0.093177233  0.053651911 -0.000866388
    -5.232677002  9.087586144  0.000000000     0.000000000  0.110040222 -0.001104269
     0.106364831  0.303234558 30.217278508     0.000000000  0.000000000  0.033093649

  length of vectors
    10.732235383 10.486426013 30.218987162     0.107523370  0.110045763  0.033093649


 
 k-points in units of 2pi/SCALE and weight: read from INCAR                         
   0.00000000  0.00000000  0.00000000       0.111
   0.03105908  0.01788397 -0.00028880       0.222
   0.00000000  0.03668007 -0.00036809       0.222
   0.03105908  0.05456404 -0.00065689       0.222
  -0.03105908  0.01879610 -0.00007929       0.222
 
 k-points in reciprocal lattice and weights: read from INCAR                         
   0.00000000  0.00000000  0.00000000       0.111
   0.33333333  0.00000000 -0.00000000       0.222
   0.00000000  0.33333333 -0.00000000       0.222
   0.33333333  0.33333333  0.00000000       0.222
  -0.33333333  0.33333333  0.00000000       0.222
 
 position of ions in fractional coordinates (direct lattice) 
   0.11125855  0.22229359  0.32071281
   0.11156655  0.55542443  0.32059099
   0.11190854  0.88950735  0.32049305
   0.44537222  0.22243762  0.32058870
   0.44407127  0.55555944  0.32042553
   0.44466886  0.88942239  0.32083668
   0.77810450  0.22248265  0.32062435
   0.77788813  0.55578942  0.32060721
   0.77810936  0.88916764  0.32076077
   0.22224599  0.05514356  0.55841356
   0.22197845  0.38944337  0.55827712
   0.22183772  0.72187607  0.55857980
   0.55551629  0.05534161  0.55848542
   0.55602653  0.38883559  0.55837863
   0.55543341  0.72194766  0.55861766
   0.88892718  0.05552816  0.55843750
   0.88905661  0.38930932  0.55838950
   0.88843499  0.72226614  0.55822370
   0.11086035  0.22185083  0.44148532
   0.11115132  0.55557513  0.44152256
   0.11121505  0.88888985  0.44168606
   0.44427357  0.22221976  0.44142625
   0.44432214  0.55558835  0.44151860
   0.44462799  0.88931561  0.44134478
   0.77780513  0.22259554  0.44152508
   0.77755900  0.55584392  0.44136926
   0.77789375  0.88849525  0.44158835
   0.22192266  0.05524628  0.67936092
   0.22174841  0.38876902  0.67953847
   0.22217802  0.72237899  0.67932375
   0.55522056  0.05557423  0.67928073
   0.55553445  0.38882581  0.67930572
   0.55572969  0.72165306  0.67916093
   0.88859037  0.05524740  0.67937322
   0.88869523  0.38942024  0.67915319
   0.88833717  0.72200637  0.67918105
   0.00066714  0.00038565  0.38091137
   0.00033010  0.33353239  0.38094865
   0.99990786  0.66724745  0.38094710
   0.33319643  0.00017592  0.38116970
   0.33278828  0.33332743  0.38106023
   0.33410429  0.66678007  0.38101745
   0.66653378  0.99991971  0.38115401
   0.66609845  0.33349793  0.38123354
   0.66649212  0.66636078  0.38103121
   0.11085815  0.16641198  0.61897543
   0.11123654  0.49997047  0.61895673
   0.11076641  0.83288753  0.61903792
   0.44439274  0.16642724  0.61883250
   0.44457941  0.50011540  0.61879403
   0.44482286  0.83367594  0.61899903
   0.77803989  0.16678868  0.61892649
   0.77723319  0.50020993  0.61872871
   0.77856378  0.83315313  0.61895706
 
 position of ions in cartesian coordinates  (Angst):
   0.06497498  2.11736333  9.69106827
  -1.67489854  5.14468162  9.68738734
  -3.41938666  8.18065921  9.68442781
   3.64999465  2.11863465  9.68731816
   1.89289631  5.14585838  9.68238754
   0.15235655  8.17999137  9.69481130
   7.22072391  2.11905464  9.68839529
   5.47431335  5.14800342  9.68787724
   3.73224345  8.17765329  9.69251762
   2.15604342  0.67045218 16.87373796
   0.40387459  3.70838913 16.86961512
  -1.33711647  6.72949166 16.87876129
   5.73175005  0.67227375 16.87590961
   3.99214839  3.70289660 16.87268252
   2.24274044  6.73015370 16.87990529
   9.30901296  0.67395447 16.87446150
   7.56382785  3.70720499 16.87301117
   5.81488344  6.73292847 16.86800114
   0.07586417  2.14996210 13.34048473
  -1.66728063  5.18272178 13.34161019
  -3.41070755  8.21179755 13.34655057
   3.65219654  2.15329693 13.33869982
   1.90831750  5.18284065 13.34149040
   0.16529446  8.21556322 13.33623812
   7.22977986  2.15674181 13.34168636
   5.48334070  5.18511793 13.33697776
   3.74629966  8.20818197 13.34359805
   2.16490037  0.70806108 20.52843807
   0.41783246  3.73903153 20.53380316
  -1.32325296  6.77067573 20.52731498
   5.74020736  0.71101700 20.52601499
   3.99978080  3.73947702 20.52677021
   2.26028327  6.76402942 20.52239488
   9.31973061  0.70807492 20.52880982
   7.57221404  3.74483272 20.52216117
   5.82805850  6.76724624 20.52300298
   0.04565744  0.11901012 11.51010485
  -1.70120506  3.14652110 11.51123147
   7.28027543  6.17918504 11.51118467
   3.61556500  0.11718251 11.51791112
   1.86789872  3.14469240 11.51460308
   0.13716804  6.17495895 11.51331036
   1.96168191  9.20243558 11.51743703
   5.44418825  3.14629438 11.51984014
   3.70662787  6.17115279 11.51372632
   0.38481284  1.69997791 18.70375302
  -1.35653199  4.73121376 18.70318787
  -3.10361640  7.75665087 18.70564131
   3.96428954  1.70007324 18.69943405
   2.22020644  4.73248148 18.69827150
   0.47742638  7.76380385 18.70446620
   7.54318798  1.70338643 18.70227411
   5.78982358  4.73332071 18.69629777
   4.06194376  7.75903999 18.70319792
 


--------------------------------------------------------------------------------------------------------


 k-point   1 :   0.0000 0.0000 0.0000  plane waves:   86301
 k-point   2 :   0.3333 0.0000-0.0000  plane waves:   86286
 k-point   3 :   0.0000 0.3333-0.0000  plane waves:   86354
 k-point   4 :   0.3333 0.3333 0.0000  plane waves:   86312
 k-point   5 :  -0.3333 0.3333 0.0000  plane waves:   86333

 maximum and minimum number of plane-waves per node :     86354    86286

 maximum number of plane-waves:     86354
 maximum index in each direction: 
   IXMAX=   20   IYMAX=   20   IZMAX=   57
   IXMIN=  -20   IYMIN=  -20   IZMIN=  -57


 serial   3D FFT for wavefunctions
 parallel 3D FFT for charge:
    minimum data exchange during FFTs selected (reduces bandwidth)


 total amount of memory used by VASP MPI-rank0   369847. kBytes
=======================================================================

   base      :      30000. kBytes
   nonl-proj :     198973. kBytes
   fftplans  :      18984. kBytes
   grid      :      86187. kBytes
   one-center:        839. kBytes
   wavefun   :      34864. kBytes
 
     INWAV:  cpu time    0.0000: real time    0.0000
 Broyden mixing: mesh for mixing (old mesh)
   NGX = 41   NGY = 41   NGZ =115
  (NGX  =168   NGY  =160   NGZ  =480)
  gives a total of 193315 points

 initial charge density was supplied:
 charge density of overlapping atoms calculated
 number of electron     324.0000000 magnetization 
 keeping initial charge density in first step


--------------------------------------------------------------------------------------------------------


 Maximum index for augmentation-charges         2158 (set IRDMAX)


--------------------------------------------------------------------------------------------------------


 First call to EWALD:  gamma=   0.124
 Maximum number of real-space cells 4x 4x 2
 Maximum number of reciprocal cells 2x 2x 5

    FEWALD:  cpu time    0.0021: real time    0.0023


--------------------------------------- Iteration      1(   1)  ---------------------------------------


    POTLOK:  cpu time    0.3104: real time    0.3110
    SETDIJ:  cpu time    0.0116: real time    0.0119
     EDDAV:  cpu time   49.9078: real time   50.0575
       DOS:  cpu time    0.0009: real time    0.0011
    --------------------------------------------
      LOOP:  cpu time   50.2308: real time   50.3816

 eigenvalue-minimisations  :  2000
 total energy-change (2. order) : 0.2108926E+04  (-0.1147199E+05)
 number of electron     324.0000000 magnetization 
 augmentation part      324.0000000 magnetization 

 Free energy of the ion-electron system (eV)
  ---------------------------------------------------
  alpha Z        PSCENC =       243.51650524
  Ewald energy   TEWEN  =     62504.81123175
  -Hartree energ DENC   =    -74175.54908424
  -exchange      EXHF   =         0.00000000
  -V(xc)+E(xc)   XCENC  =     -2102.02610497
  PAW double counting   =      7476.04436201    -4809.59211051
  entropy T*S    EENTRO =        -0.12281053
  eigenvalues    EBANDS =      1018.76092594
  atomic energy  EATOM  =     11953.08265402
  Solvation  Ediel_sol  =         0.00000000
  ---------------------------------------------------
  free energy    TOTEN  =      2108.92556871 eV

  energy without entropy =     2109.04837924  energy(sigma->0) =     2108.98697398


--------------------------------------------------------------------------------------------------------




--------------------------------------- Iteration      1(   2)  ---------------------------------------


     EDDAV:  cpu time   69.2301: real time   69.3997
       DOS:  cpu time    0.0006: real time    0.0006
    --------------------------------------------
      LOOP:  cpu time   69.2307: real time   69.4003

 eigenvalue-minimisations  :  3000
 total energy-change (2. order) :-0.2200664E+04  (-0.2122139E+04)
 number of electron     324.0000000 magnetization 
 augmentation part      324.0000000 magnetization 

 Free energy of the ion-electron system (eV)
  ---------------------------------------------------
  alpha Z        PSCENC =       243.51650524
  Ewald energy   TEWEN  =     62504.81123175
  -Hartree energ DENC   =    -74175.54908424
  -exchange      EXHF   =         0.00000000
  -V(xc)+E(xc)   XCENC  =     -2102.02610497
  PAW double counting   =      7476.04436201    -4809.59211051
  entropy T*S    EENTRO =        -0.03056391
  eigenvalues    EBANDS =     -1181.99561842
  atomic energy  EATOM  =     11953.08265402
  Solvation  Ediel_sol  =         0.00000000
  ---------------------------------------------------
  free energy    TOTEN  =       -91.73872903 eV

  energy without entropy =      -91.70816512  energy(sigma->0) =      -91.72344708


--------------------------------------------------------------------------------------------------------




--------------------------------------- Iteration      1(   3)  ---------------------------------------


     EDDAV:  cpu time   60.6286: real time   60.7766
       DOS:  cpu time    0.0004: real time    0.0004
    --------------------------------------------
      LOOP:  cpu time   60.6289: real time   60.7769

 eigenvalue-minimisations  :  2560
 total energy-change (2. order) :-0.2337679E+03  (-0.2302177E+03)
 number of electron     324.0000000 magnetization 
 augmentation part      324.0000000 magnetization 

 Free energy of the ion-electron system (eV)
  ---------------------------------------------------
  alpha Z        PSCENC =       243.51650524
  Ewald energy   TEWEN  =     62504.81123175
  -Hartree energ DENC   =    -74175.54908424
  -exchange      EXHF   =         0.00000000
  -V(xc)+E(xc)   XCENC  =     -2102.02610497
  PAW double counting   =      7476.04436201    -4809.59211051
  entropy T*S    EENTRO =        -0.00000000
  eigenvalues    EBANDS =     -1415.79409837
  atomic energy  EATOM  =     11953.08265402
  Solvation  Ediel_sol  =         0.00000000
  ---------------------------------------------------
  free energy    TOTEN  =      -325.50664507 eV

  energy without entropy =     -325.50664507  energy(sigma->0) =     -325.50664507


--------------------------------------------------------------------------------------------------------




--------------------------------------- Iteration      1(   4)  ---------------------------------------


     EDDAV:  cpu time   71.4109: real time   71.6196
       DOS:  cpu time    0.0004: real time    0.0004
    --------------------------------------------
      LOOP:  cpu time   71.4112: real time   71.6199

 eigenvalue-minimisations  :  3120
 total energy-change (2. order) :-0.1109135E+02  (-0.1101763E+02)
 number of electron     324.0000000 magnetization 
 augmentation part      324.0000000 magnetization 

 Free energy of the ion-electron system (eV)
  ---------------------------------------------------
  alpha Z        PSCENC =       243.51650524
  Ewald energy   TEWEN  =     62504.81123175
  -Hartree energ DENC   =    -74175.54908424
  -exchange      EXHF   =         0.00000000
  -V(xc)+E(xc)   XCENC  =     -2102.02610497
  PAW double counting   =      7476.04436201    -4809.59211051
  entropy T*S    EENTRO =        -0.00000000
  eigenvalues    EBANDS =     -1426.88544436
  atomic energy  EATOM  =     11953.08265402
  Solvation  Ediel_sol  =         0.00000000
  ---------------------------------------------------
  free energy    TOTEN  =      -336.59799106 eV

  energy without entropy =     -336.59799106  energy(sigma->0) =     -336.59799106


--------------------------------------------------------------------------------------------------------




--------------------------------------- Iteration      1(   5)  ---------------------------------------


     EDDAV:  cpu time   68.1674: real time   68.3550
       DOS:  cpu time    0.0004: real time    0.0004
    CHARGE:  cpu time    1.1539: real time    1.1592
    MIXING:  cpu time    0.0093: real time    0.0095
    --------------------------------------------
      LOOP:  cpu time   69.3309: real time   69.5241

 eigenvalue-minimisations  :  2960
 total energy-change (2. order) :-0.3126127E+00  (-0.3119542E+00)
 number of electron     324.0000007 magnetization 
 augmentation part      -25.7533675 magnetization 

 Broyden mixing:
  rms(total) = 0.19424E+01    rms(broyden)= 0.19424E+01
  rms(prec ) = 0.20563E+01
  weight for this iteration     100.00

 Free energy of the ion-electron system (eV)
  ---------------------------------------------------
  alpha Z        PSCENC =       243.51650524
  Ewald energy   TEWEN  =     62504.81123175
  -Hartree energ DENC   =    -74175.54908424
  -exchange      EXHF   =         0.00000000
  -V(xc)+E(xc)   XCENC  =     -2102.02610497
  PAW double counting   =      7476.04436201    -4809.59211051
  entropy T*S    EENTRO =        -0.00000000
  eigenvalues    EBANDS =     -1427.19805707
  atomic energy  EATOM  =     11953.08265402
  Solvation  Ediel_sol  =         0.00000000
  ---------------------------------------------------
  free energy    TOTEN  =      -336.91060376 eV

  energy without entropy =     -336.91060376  energy(sigma->0) =     -336.91060376


--------------------------------------------------------------------------------------------------------




--------------------------------------- Iteration      1(   6)  ---------------------------------------


    POTLOK:  cpu time    0.2629: real time    0.2632
    SETDIJ:  cpu time    0.0116: real time    0.0116
    EDDIAG:  cpu time    2.5689: real time    2.5716
  RMM-DIIS:  cpu time   42.2269: real time   42.3312
    ORTHCH:  cpu time    0.2360: real time    0.2362
       DOS:  cpu time    0.0006: real time    0.0006
    CHARGE:  cpu time    1.1546: real time    1.1558
    MIXING:  cpu time    0.0096: real time    0.0098
    --------------------------------------------
      LOOP:  cpu time   46.4709: real time   46.5800

 eigenvalue-minimisations  :  2141
 total energy-change (2. order) : 0.8981759E+01  (-0.6108026E+01)
 number of electron     324.0000007 magnetization 
 augmentation part      -19.7602162 magnetization 

 Broyden mixing:
  rms(total) = 0.72031E+00    rms(broyden)= 0.72031E+00
  rms(prec ) = 0.84065E+00
  weight for this iteration     100.00

 eigenvalues of (default mixing * dielectric matrix)
  average eigenvalue GAMMA=   1.0083
  1.0083

 Free energy of the ion-electron system (eV)
  ---------------------------------------------------
  alpha Z        PSCENC =       243.51650524
  Ewald energy   TEWEN  =     62504.81123175
  -Hartree energ DENC   =    -74146.98174656
  -exchange      EXHF   =         0.00000000
  -V(xc)+E(xc)   XCENC  =     -2095.50606774
  PAW double counting   =      7649.32467992    -4993.93109926
  entropy T*S    EENTRO =        -0.00000000
  eigenvalues    EBANDS =     -1442.24500224
  atomic energy  EATOM  =     11953.08265402
  Solvation  Ediel_sol  =         0.00000000
  ---------------------------------------------------
  free energy    TOTEN  =      -327.92884487 eV

  energy without entropy =     -327.92884487  energy(sigma->0) =     -327.92884487


--------------------------------------------------------------------------------------------------------




--------------------------------------- Iteration      1(   7)  ---------------------------------------


    POTLOK:  cpu time    0.2652: real time    0.2655
    SETDIJ:  cpu time    0.0116: real time    0.0116
    EDDIAG:  cpu time    2.5626: real time    2.5654
  RMM-DIIS:  cpu time   39.9911: real time   40.0875
    ORTHCH:  cpu time    0.2249: real time    0.2251
       DOS:  cpu time    0.0004: real time    0.0004
    CHARGE:  cpu time    1.1538: real time    1.1551
    MIXING:  cpu time    0.0095: real time    0.0095
    --------------------------------------------
      LOOP:  cpu time   44.2192: real time   44.3200

 eigenvalue-minimisations  :  2013
 total energy-change (2. order) : 0.3472435E+01  (-0.1123293E+01)
 number of electron     324.0000007 magnetization 
 augmentation part      -21.7522344 magnetization 

 Broyden mixing:
  rms(total) = 0.47679E+00    rms(broyden)= 0.47679E+00
  rms(prec ) = 0.50552E+00
  weight for this iteration     100.00

 eigenvalues of (default mixing * dielectric matrix)
  average eigenvalue GAMMA=   1.4714
  0.7248  2.2181

 Free energy of the ion-electron system (eV)
  ---------------------------------------------------
  alpha Z        PSCENC =       243.51650524
  Ewald energy   TEWEN  =     62504.81123175
  -Hartree energ DENC   =    -74234.52499810
  -exchange      EXHF   =         0.00000000
  -V(xc)+E(xc)   XCENC  =     -2094.45046197
  PAW double counting   =      7922.35997958    -5271.51429347
  entropy T*S    EENTRO =        -0.00000000
  eigenvalues    EBANDS =     -1347.73702674
  atomic energy  EATOM  =     11953.08265402
  Solvation  Ediel_sol  =         0.00000000
  ---------------------------------------------------
  free energy    TOTEN  =      -324.45640968 eV

  energy without entropy =     -324.45640968  energy(sigma->0) =     -324.45640968


--------------------------------------------------------------------------------------------------------




--------------------------------------- Iteration      1(   8)  ---------------------------------------


    POTLOK:  cpu time    0.2707: real time    0.2710
    SETDIJ:  cpu time    0.0169: real time    0.0169
    EDDIAG:  cpu time    2.5662: real time    2.5688
  RMM-DIIS:  cpu time   40.1662: real time   40.2799
    ORTHCH:  cpu time    0.2480: real time    0.2483
       DOS:  cpu time    0.0004: real time    0.0004
    CHARGE:  cpu time    1.1555: real time    1.1565
    MIXING:  cpu time    0.0071: real time    0.0071
    --------------------------------------------
      LOOP:  cpu time   44.4311: real time   44.5489

 eigenvalue-minimisations  :  2028
 total energy-change (2. order) : 0.4278584E+00  (-0.8552060E+00)
 number of electron     324.0000007 magnetization 
 augmentation part      -21.6868248 magnetization 

 Broyden mixing:
  rms(total) = 0.14938E+00    rms(broyden)= 0.14938E+00
  rms(prec ) = 0.17470E+00
  weight for this iteration     100.00

 eigenvalues of (default mixing * dielectric matrix)
  average eigenvalue GAMMA=   1.2605
  2.1275  0.8269  0.8269

 Free energy of the ion-electron system (eV)
  ---------------------------------------------------
  alpha Z        PSCENC =       243.51650524
  Ewald energy   TEWEN  =     62504.81123175
  -Hartree energ DENC   =    -74297.21884372
  -exchange      EXHF   =         0.00000000
  -V(xc)+E(xc)   XCENC  =     -2090.58895146
  PAW double counting   =      8224.69797549    -5580.13449360
  entropy T*S    EENTRO =        -0.00000000
  eigenvalues    EBANDS =     -1282.19462903
  atomic energy  EATOM  =     11953.08265402
  Solvation  Ediel_sol  =         0.00000000
  ---------------------------------------------------
  free energy    TOTEN  =      -324.02855129 eV

  energy without entropy =     -324.02855129  energy(sigma->0) =     -324.02855129


--------------------------------------------------------------------------------------------------------




--------------------------------------- Iteration      1(   9)  ---------------------------------------


    POTLOK:  cpu time    0.2717: real time    0.2720
    SETDIJ:  cpu time    0.0116: real time    0.0116
    EDDIAG:  cpu time    2.5701: real time    2.5727
  RMM-DIIS:  cpu time   44.2137: real time   44.3141
    ORTHCH:  cpu time    0.2237: real time    0.2250
       DOS:  cpu time    0.0004: real time    0.0004
    CHARGE:  cpu time    1.1502: real time    1.1513
    MIXING:  cpu time    0.0072: real time    0.0072
    --------------------------------------------
      LOOP:  cpu time   48.4488: real time   48.5544

 eigenvalue-minimisations  :  2195
 total energy-change (2. order) : 0.7730462E-02  (-0.1440497E+00)
 number of electron     324.0000007 magnetization 
 augmentation part      -21.1934328 magnetization 

 Broyden mixing:
  rms(total) = 0.97835E-01    rms(broyden)= 0.97834E-01
  rms(prec ) = 0.10851E+00
  weight for this iteration     100.00

 eigenvalues of (default mixing * dielectric matrix)
  average eigenvalue GAMMA=   1.1355
  2.0249  1.3068  0.7351  0.4753

 Free energy of the ion-electron system (eV)
  ---------------------------------------------------
  alpha Z        PSCENC =       243.51650524
  Ewald energy   TEWEN  =     62504.81123175
  -Hartree energ DENC   =    -74291.33419530
  -exchange      EXHF   =         0.00000000
  -V(xc)+E(xc)   XCENC  =     -2090.28102185
  PAW double counting   =      8215.94644945    -5571.44323608
  entropy T*S    EENTRO =        -0.00000000
  eigenvalues    EBANDS =     -1288.31920806
  atomic energy  EATOM  =     11953.08265402
  Solvation  Ediel_sol  =         0.00000000
  ---------------------------------------------------
  free energy    TOTEN  =      -324.02082083 eV

  energy without entropy =     -324.02082083  energy(sigma->0) =     -324.02082083


--------------------------------------------------------------------------------------------------------




--------------------------------------- Iteration      1(  10)  ---------------------------------------


    POTLOK:  cpu time    0.2696: real time    0.2698
    SETDIJ:  cpu time    0.0116: real time    0.0116
    EDDIAG:  cpu time    2.5454: real time    2.5519
  RMM-DIIS:  cpu time   48.3623: real time   48.4756
    ORTHCH:  cpu time    0.2361: real time    0.2364
       DOS:  cpu time    0.0004: real time    0.0004
    CHARGE:  cpu time    1.1557: real time    1.1567
    MIXING:  cpu time    0.0114: real time    0.0114
    --------------------------------------------
      LOOP:  cpu time   52.5925: real time   52.7139

 eigenvalue-minimisations  :  2399
 total energy-change (2. order) :-0.1318414E-01  (-0.4556682E-01)
 number of electron     324.0000007 magnetization 
 augmentation part      -20.9974838 magnetization 

 Broyden mixing:
  rms(total) = 0.78600E-01    rms(broyden)= 0.78600E-01
  rms(prec ) = 0.87843E-01
  weight for this iteration     100.00

 eigenvalues of (default mixing * dielectric matrix)
  average eigenvalue GAMMA=   1.2747
  2.3665  1.8064  0.9067  0.9067  0.3872

 Free energy of the ion-electron system (eV)
  ---------------------------------------------------
  alpha Z        PSCENC =       243.51650524
  Ewald energy   TEWEN  =     62504.81123175
  -Hartree energ DENC   =    -74293.24443894
  -exchange      EXHF   =         0.00000000
  -V(xc)+E(xc)   XCENC  =     -2090.09532471
  PAW double counting   =      8227.51991370    -5583.03334309
  entropy T*S    EENTRO =        -0.00000000
  eigenvalues    EBANDS =     -1286.59120295
  atomic energy  EATOM  =     11953.08265402
  Solvation  Ediel_sol  =         0.00000000
  ---------------------------------------------------
  free energy    TOTEN  =      -324.03400497 eV

  energy without entropy =     -324.03400497  energy(sigma->0) =     -324.03400497


--------------------------------------------------------------------------------------------------------




--------------------------------------- Iteration      1(  11)  ---------------------------------------


    POTLOK:  cpu time    0.2697: real time    0.2701
    SETDIJ:  cpu time    0.0152: real time    0.0153
    EDDIAG:  cpu time    2.5475: real time    2.5541
  RMM-DIIS:  cpu time   42.5041: real time   42.6418
    ORTHCH:  cpu time    0.2255: real time    0.2257
       DOS:  cpu time    0.0004: real time    0.0004
    CHARGE:  cpu time    1.1323: real time    1.1334
    MIXING:  cpu time    0.0083: real time    0.0083
    --------------------------------------------
      LOOP:  cpu time   46.7031: real time   46.8492

 eigenvalue-minimisations  :  2128
 total energy-change (2. order) : 0.1533862E-01  (-0.2001898E-01)
 number of electron     324.0000007 magnetization 
 augmentation part      -21.3209570 magnetization 

 Broyden mixing:
  rms(total) = 0.38602E-01    rms(broyden)= 0.38602E-01
  rms(prec ) = 0.43986E-01
  weight for this iteration     100.00

 eigenvalues of (default mixing * dielectric matrix)
  average eigenvalue GAMMA=   1.2031
  2.5336  1.7142  1.1914  0.7001  0.7001  0.3793

 Free energy of the ion-electron system (eV)
  ---------------------------------------------------
  alpha Z        PSCENC =       243.51650524
  Ewald energy   TEWEN  =     62504.81123175
  -Hartree energ DENC   =    -74312.21249355
  -exchange      EXHF   =         0.00000000
  -V(xc)+E(xc)   XCENC  =     -2089.81707220
  PAW double counting   =      8279.90370573    -5635.66013442
  entropy T*S    EENTRO =        -0.00000000
  eigenvalues    EBANDS =     -1267.64306293
  atomic energy  EATOM  =     11953.08265402
  Solvation  Ediel_sol  =         0.00000000
  ---------------------------------------------------
  free energy    TOTEN  =      -324.01866635 eV

  energy without entropy =     -324.01866635  energy(sigma->0) =     -324.01866635


--------------------------------------------------------------------------------------------------------




--------------------------------------- Iteration      1(  12)  ---------------------------------------


    POTLOK:  cpu time    0.2664: real time    0.2666
    SETDIJ:  cpu time    0.0115: real time    0.0116
    EDDIAG:  cpu time    2.5965: real time    2.5992
  RMM-DIIS:  cpu time   49.1679: real time   49.2960
    ORTHCH:  cpu time    0.2228: real time    0.2231
       DOS:  cpu time    0.0004: real time    0.0004
    CHARGE:  cpu time    1.1346: real time    1.1356
    MIXING:  cpu time    0.0077: real time    0.0077
    --------------------------------------------
      LOOP:  cpu time   53.4079: real time   53.5402

 eigenvalue-minimisations  :  2450
 total energy-change (2. order) : 0.3397602E-03  (-0.4380695E-02)
 number of electron     324.0000007 magnetization 
 augmentation part      -21.3173701 magnetization 

 Broyden mixing:
  rms(total) = 0.29148E-01    rms(broyden)= 0.29148E-01
  rms(prec ) = 0.33480E-01
  weight for this iteration     100.00

 eigenvalues of (default mixing * dielectric matrix)
  average eigenvalue GAMMA=   1.1800
  2.5196  1.6821  1.6821  0.8078  0.8078  0.3978  0.3630

 Free energy of the ion-electron system (eV)
  ---------------------------------------------------
  alpha Z        PSCENC =       243.51650524
  Ewald energy   TEWEN  =     62504.81123175
  -Hartree energ DENC   =    -74315.78349095
  -exchange      EXHF   =         0.00000000
  -V(xc)+E(xc)   XCENC  =     -2089.71078090
  PAW double counting   =      8283.86950179    -5639.66056532
  entropy T*S    EENTRO =        -0.00000000
  eigenvalues    EBANDS =     -1264.14338222
  atomic energy  EATOM  =     11953.08265402
  Solvation  Ediel_sol  =         0.00000000
  ---------------------------------------------------
  free energy    TOTEN  =      -324.01832659 eV

  energy without entropy =     -324.01832659  energy(sigma->0) =     -324.01832659


--------------------------------------------------------------------------------------------------------




--------------------------------------- Iteration      1(  13)  ---------------------------------------


    POTLOK:  cpu time    0.2697: real time    0.2750
    SETDIJ:  cpu time    0.0157: real time    0.0157
    EDDIAG:  cpu time    2.5510: real time    2.5577
  RMM-DIIS:  cpu time   46.7607: real time   46.8651
    ORTHCH:  cpu time    0.2273: real time    0.2316
       DOS:  cpu time    0.0004: real time    0.0004
    CHARGE:  cpu time    1.1338: real time    1.1391
    MIXING:  cpu time    0.0114: real time    0.0114
    --------------------------------------------
      LOOP:  cpu time   50.9701: real time   51.0960

 eigenvalue-minimisations  :  2340
 total energy-change (2. order) : 0.2298842E-02  (-0.2362113E-02)
 number of electron     324.0000007 magnetization 
 augmentation part      -21.2116182 magnetization 

 Broyden mixing:
  rms(total) = 0.89764E-02    rms(broyden)= 0.89763E-02
  rms(prec ) = 0.12077E-01
  weight for this iteration     100.00

 eigenvalues of (default mixing * dielectric matrix)
  average eigenvalue GAMMA=   1.3476
  2.7139  2.7139  1.7859  1.1791  0.8121  0.8121  0.3995  0.3646

 Free energy of the ion-electron system (eV)
  ---------------------------------------------------
  alpha Z        PSCENC =       243.51650524
  Ewald energy   TEWEN  =     62504.81123175
  -Hartree energ DENC   =    -74317.81476197
  -exchange      EXHF   =         0.00000000
  -V(xc)+E(xc)   XCENC  =     -2089.62845452
  PAW double counting   =      8279.43107353    -5635.20794016
  entropy T*S    EENTRO =        -0.00000000
  eigenvalues    EBANDS =     -1262.20633564
  atomic energy  EATOM  =     11953.08265402
  Solvation  Ediel_sol  =         0.00000000
  ---------------------------------------------------
  free energy    TOTEN  =      -324.01602775 eV

  energy without entropy =     -324.01602775  energy(sigma->0) =     -324.01602775


--------------------------------------------------------------------------------------------------------




--------------------------------------- Iteration      1(  14)  ---------------------------------------


    POTLOK:  cpu time    0.2719: real time    0.2721
    SETDIJ:  cpu time    0.0157: real time    0.0157
    EDDIAG:  cpu time    2.5377: real time    2.5517
  RMM-DIIS:  cpu time   47.7496: real time   47.8834
    ORTHCH:  cpu time    0.2397: real time    0.2399
       DOS:  cpu time    0.0004: real time    0.0004
    CHARGE:  cpu time    1.1567: real time    1.1579
    MIXING:  cpu time    0.0161: real time    0.0161
    --------------------------------------------
      LOOP:  cpu time   51.9877: real time   52.1374

 eigenvalue-minimisations  :  2311
 total energy-change (2. order) :-0.5923382E-03  (-0.7183118E-03)
 number of electron     324.0000007 magnetization 
 augmentation part      -21.2118582 magnetization 

 Broyden mixing:
  rms(total) = 0.54175E-02    rms(broyden)= 0.54175E-02
  rms(prec ) = 0.70221E-02
  weight for this iteration     100.00

 eigenvalues of (default mixing * dielectric matrix)
  average eigenvalue GAMMA=   1.3154
  3.2240  2.5418  1.5113  1.5113  0.8032  0.8032  0.6786  0.4008  0.3647

 Free energy of the ion-electron system (eV)
  ---------------------------------------------------
  alpha Z        PSCENC =       243.51650524
  Ewald energy   TEWEN  =     62504.81123175
  -Hartree energ DENC   =    -74328.24914544
  -exchange      EXHF   =         0.00000000
  -V(xc)+E(xc)   XCENC  =     -2089.57322355
  PAW double counting   =      8276.56231230    -5632.23396028
  entropy T*S    EENTRO =        -0.00000000
  eigenvalues    EBANDS =     -1251.93299414
  atomic energy  EATOM  =     11953.08265402
  Solvation  Ediel_sol  =         0.00000000
  ---------------------------------------------------
  free energy    TOTEN  =      -324.01662009 eV

  energy without entropy =     -324.01662009  energy(sigma->0) =     -324.01662009


--------------------------------------------------------------------------------------------------------




--------------------------------------- Iteration      1(  15)  ---------------------------------------


    POTLOK:  cpu time    0.2754: real time    0.2757
    SETDIJ:  cpu time    0.0184: real time    0.0185
    EDDIAG:  cpu time    2.5631: real time    2.5782
  RMM-DIIS:  cpu time   54.7306: real time   54.8714
    ORTHCH:  cpu time    0.2191: real time    0.2193
       DOS:  cpu time    0.0004: real time    0.0004
    CHARGE:  cpu time    1.1460: real time    1.1472
    MIXING:  cpu time    0.0083: real time    0.0083
    --------------------------------------------
      LOOP:  cpu time   58.9614: real time   59.1189

 eigenvalue-minimisations  :  2714
 total energy-change (2. order) :-0.6522195E-03  (-0.2205871E-03)
 number of electron     324.0000007 magnetization 
 augmentation part      -21.2097937 magnetization 

 Broyden mixing:
  rms(total) = 0.47180E-02    rms(broyden)= 0.47180E-02
  rms(prec ) = 0.59860E-02
  weight for this iteration     100.00

 eigenvalues of (default mixing * dielectric matrix)
  average eigenvalue GAMMA=   1.2943
  3.4443  2.4697  1.6892  1.6892  0.8728  0.8134  0.8134  0.3638  0.4020  0.3853

 Free energy of the ion-electron system (eV)
  ---------------------------------------------------
  alpha Z        PSCENC =       243.51650524
  Ewald energy   TEWEN  =     62504.81123175
  -Hartree energ DENC   =    -74330.25652471
  -exchange      EXHF   =         0.00000000
  -V(xc)+E(xc)   XCENC  =     -2089.56119667
  PAW double counting   =      8276.79289425    -5632.46241342
  entropy T*S    EENTRO =        -0.00000000
  eigenvalues    EBANDS =     -1249.94042277
  atomic energy  EATOM  =     11953.08265402
  Solvation  Ediel_sol  =         0.00000000
  ---------------------------------------------------
  free energy    TOTEN  =      -324.01727231 eV

  energy without entropy =     -324.01727231  energy(sigma->0) =     -324.01727231


--------------------------------------------------------------------------------------------------------




--------------------------------------- Iteration      1(  16)  ---------------------------------------


    POTLOK:  cpu time    0.3007: real time    0.3010
    SETDIJ:  cpu time    0.0137: real time    0.0137
    EDDIAG:  cpu time    2.5534: real time    2.5645
  RMM-DIIS:  cpu time   47.4079: real time   47.5487
    ORTHCH:  cpu time    0.2262: real time    0.2266
       DOS:  cpu time    0.0004: real time    0.0004
    CHARGE:  cpu time    1.1331: real time    1.1342
    MIXING:  cpu time    0.0088: real time    0.0088
    --------------------------------------------
      LOOP:  cpu time   51.6442: real time   51.7979

 eigenvalue-minimisations  :  2336
 total energy-change (2. order) :-0.7681805E-03  (-0.4231190E-04)
 number of electron     324.0000007 magnetization 
 augmentation part      -21.2148635 magnetization 

 Broyden mixing:
  rms(total) = 0.31205E-02    rms(broyden)= 0.31205E-02
  rms(prec ) = 0.42055E-02
  weight for this iteration     100.00

 eigenvalues of (default mixing * dielectric matrix)
  average eigenvalue GAMMA=   1.3882
  4.1068  2.5170  1.9628  1.9628  0.9804  0.9804  0.8159  0.8159  0.4011  0.3668
  0.3606

 Free energy of the ion-electron system (eV)
  ---------------------------------------------------
  alpha Z        PSCENC =       243.51650524
  Ewald energy   TEWEN  =     62504.81123175
  -Hartree energ DENC   =    -74331.83191908
  -exchange      EXHF   =         0.00000000
  -V(xc)+E(xc)   XCENC  =     -2089.55442652
  PAW double counting   =      8276.85200757    -5632.52746705
  entropy T*S    EENTRO =        -0.00000000
  eigenvalues    EBANDS =     -1248.36662643
  atomic energy  EATOM  =     11953.08265402
  Solvation  Ediel_sol  =         0.00000000
  ---------------------------------------------------
  free energy    TOTEN  =      -324.01804049 eV

  energy without entropy =     -324.01804049  energy(sigma->0) =     -324.01804049


--------------------------------------------------------------------------------------------------------




--------------------------------------- Iteration      1(  17)  ---------------------------------------


    POTLOK:  cpu time    0.2768: real time    0.2770
    SETDIJ:  cpu time    0.0114: real time    0.0114
    EDDIAG:  cpu time    2.5465: real time    2.5574
  RMM-DIIS:  cpu time   44.1632: real time   44.2771
    ORTHCH:  cpu time    0.2224: real time    0.2226
       DOS:  cpu time    0.0004: real time    0.0004
    CHARGE:  cpu time    1.1322: real time    1.1374
    MIXING:  cpu time    0.0087: real time    0.0087
    --------------------------------------------
      LOOP:  cpu time   48.3616: real time   48.4921

 eigenvalue-minimisations  :  2174
 total energy-change (2. order) :-0.1761782E-02  (-0.5438845E-04)
 number of electron     324.0000007 magnetization 
 augmentation part      -21.2231720 magnetization 

 Broyden mixing:
  rms(total) = 0.24434E-02    rms(broyden)= 0.24434E-02
  rms(prec ) = 0.29347E-02
  weight for this iteration     100.00

 eigenvalues of (default mixing * dielectric matrix)
  average eigenvalue GAMMA=   1.3974
  4.6718  2.6672  2.2048  1.4722  1.4722  0.9999  0.8180  0.8180  0.5195  0.4010
  0.3659  0.3579

 Free energy of the ion-electron system (eV)
  ---------------------------------------------------
  alpha Z        PSCENC =       243.51650524
  Ewald energy   TEWEN  =     62504.81123175
  -Hartree energ DENC   =    -74335.69279756
  -exchange      EXHF   =         0.00000000
  -V(xc)+E(xc)   XCENC  =     -2089.54155133
  PAW double counting   =      8275.74204931    -5631.42198361
  entropy T*S    EENTRO =        -0.00000000
  eigenvalues    EBANDS =     -1244.51591009
  atomic energy  EATOM  =     11953.08265402
  Solvation  Ediel_sol  =         0.00000000
  ---------------------------------------------------
  free energy    TOTEN  =      -324.01980227 eV

  energy without entropy =     -324.01980227  energy(sigma->0) =     -324.01980227


--------------------------------------------------------------------------------------------------------




--------------------------------------- Iteration      1(  18)  ---------------------------------------


    POTLOK:  cpu time    0.2721: real time    0.2724
    SETDIJ:  cpu time    0.0116: real time    0.0116
    EDDIAG:  cpu time    2.5310: real time    2.5419
  RMM-DIIS:  cpu time   45.0201: real time   45.1247
    ORTHCH:  cpu time    0.2177: real time    0.2181
       DOS:  cpu time    0.0004: real time    0.0004
    CHARGE:  cpu time    1.1449: real time    1.1539
    MIXING:  cpu time    0.0106: real time    0.0106
    --------------------------------------------
      LOOP:  cpu time   49.2084: real time   49.3336

 eigenvalue-minimisations  :  2220
 total energy-change (2. order) :-0.6198678E-03  (-0.1753102E-04)
 number of electron     324.0000007 magnetization 
 augmentation part      -21.2225275 magnetization 

 Broyden mixing:
  rms(total) = 0.17929E-02    rms(broyden)= 0.17929E-02
  rms(prec ) = 0.21766E-02
  weight for this iteration     100.00

 eigenvalues of (default mixing * dielectric matrix)
  average eigenvalue GAMMA=   1.4238
  5.0584  2.8308  2.3244  1.7065  1.7065  0.8412  0.8412  0.8426  0.8426  0.4033
  0.3931  0.3651  0.3539

 Free energy of the ion-electron system (eV)
  ---------------------------------------------------
  alpha Z        PSCENC =       243.51650524
  Ewald energy   TEWEN  =     62504.81123175
  -Hartree energ DENC   =    -74336.87751435
  -exchange      EXHF   =         0.00000000
  -V(xc)+E(xc)   XCENC  =     -2089.53618839
  PAW double counting   =      8275.43439766    -5631.11482329
  entropy T*S    EENTRO =        -0.00000000
  eigenvalues    EBANDS =     -1243.33668477
  atomic energy  EATOM  =     11953.08265402
  Solvation  Ediel_sol  =         0.00000000
  ---------------------------------------------------
  free energy    TOTEN  =      -324.02042214 eV

  energy without entropy =     -324.02042214  energy(sigma->0) =     -324.02042214


--------------------------------------------------------------------------------------------------------




--------------------------------------- Iteration      1(  19)  ---------------------------------------


    POTLOK:  cpu time    0.2748: real time    0.2765
    SETDIJ:  cpu time    0.0165: real time    0.0165
    EDDIAG:  cpu time    2.5565: real time    2.5591
  RMM-DIIS:  cpu time   45.7512: real time   45.8274
    ORTHCH:  cpu time    0.2332: real time    0.2336
       DOS:  cpu time    0.0004: real time    0.0004
    CHARGE:  cpu time    1.1385: real time    1.1436
    MIXING:  cpu time    0.0093: real time    0.0093
    --------------------------------------------
      LOOP:  cpu time   49.9804: real time   50.0664

 eigenvalue-minimisations  :  2246
 total energy-change (2. order) :-0.4916045E-03  (-0.7769324E-05)
 number of electron     324.0000007 magnetization 
 augmentation part      -21.2180303 magnetization 

 Broyden mixing:
  rms(total) = 0.10349E-02    rms(broyden)= 0.10349E-02
  rms(prec ) = 0.12615E-02
  weight for this iteration     100.00

 eigenvalues of (default mixing * dielectric matrix)
  average eigenvalue GAMMA=   1.4952
  5.8048  3.0902  2.4836  1.8665  1.8665  1.0093  1.0093  0.8140  0.8140  0.6697
  0.4015  0.3879  0.3648  0.3512

 Free energy of the ion-electron system (eV)
  ---------------------------------------------------
  alpha Z        PSCENC =       243.51650524
  Ewald energy   TEWEN  =     62504.81123175
  -Hartree energ DENC   =    -74337.52313751
  -exchange      EXHF   =         0.00000000
  -V(xc)+E(xc)   XCENC  =     -2089.53266467
  PAW double counting   =      8275.55485771    -5631.23560206
  entropy T*S    EENTRO =        -0.00000000
  eigenvalues    EBANDS =     -1242.69475823
  atomic energy  EATOM  =     11953.08265402
  Solvation  Ediel_sol  =         0.00000000
  ---------------------------------------------------
  free energy    TOTEN  =      -324.02091374 eV

  energy without entropy =     -324.02091374  energy(sigma->0) =     -324.02091374


--------------------------------------------------------------------------------------------------------




--------------------------------------- Iteration      1(  20)  ---------------------------------------


    POTLOK:  cpu time    0.2707: real time    0.2709
    SETDIJ:  cpu time    0.0147: real time    0.0148
    EDDIAG:  cpu time    2.5525: real time    2.5551
  RMM-DIIS:  cpu time   42.9932: real time   43.1483
    ORTHCH:  cpu time    0.2320: real time    0.2323
       DOS:  cpu time    0.0004: real time    0.0004
    CHARGE:  cpu time    1.1376: real time    1.1388
    MIXING:  cpu time    0.0096: real time    0.0096
    --------------------------------------------
      LOOP:  cpu time   47.2109: real time   47.3702

 eigenvalue-minimisations  :  2131
 total energy-change (2. order) :-0.4831248E-03  (-0.7029678E-05)
 number of electron     324.0000007 magnetization 
 augmentation part      -21.2160585 magnetization 

 Broyden mixing:
  rms(total) = 0.59137E-03    rms(broyden)= 0.59137E-03
  rms(prec ) = 0.69780E-03
  weight for this iteration     100.00

 eigenvalues of (default mixing * dielectric matrix)
  average eigenvalue GAMMA=   1.5610
  6.9649  3.2170  2.4979  1.7430  1.7430  1.4655  1.0104  1.0104  0.8151  0.8151
  0.6267  0.4010  0.3880  0.3649  0.3514

 Free energy of the ion-electron system (eV)
  ---------------------------------------------------
  alpha Z        PSCENC =       243.51650524
  Ewald energy   TEWEN  =     62504.81123175
  -Hartree energ DENC   =    -74338.08158964
  -exchange      EXHF   =         0.00000000
  -V(xc)+E(xc)   XCENC  =     -2089.53268132
  PAW double counting   =      8276.13136715    -5631.81217973
  entropy T*S    EENTRO =        -0.00000000
  eigenvalues    EBANDS =     -1242.13670434
  atomic energy  EATOM  =     11953.08265402
  Solvation  Ediel_sol  =         0.00000000
  ---------------------------------------------------
  free energy    TOTEN  =      -324.02139687 eV

  energy without entropy =     -324.02139687  energy(sigma->0) =     -324.02139687


--------------------------------------------------------------------------------------------------------




--------------------------------------- Iteration      1(  21)  ---------------------------------------


    POTLOK:  cpu time    0.2709: real time    0.2711
    SETDIJ:  cpu time    0.0116: real time    0.0116
    EDDIAG:  cpu time    2.5429: real time    2.5494
  RMM-DIIS:  cpu time   42.7379: real time   42.8634
    ORTHCH:  cpu time    0.2325: real time    0.2327
       DOS:  cpu time    0.0004: real time    0.0004
    CHARGE:  cpu time    1.1557: real time    1.1569
    MIXING:  cpu time    0.0140: real time    0.0140
    --------------------------------------------
      LOOP:  cpu time   46.9658: real time   47.0996

 eigenvalue-minimisations  :  2095
 total energy-change (2. order) :-0.1397815E-03  (-0.1662857E-05)
 number of electron     324.0000007 magnetization 
 augmentation part      -21.2179299 magnetization 

 Broyden mixing:
  rms(total) = 0.32933E-03    rms(broyden)= 0.32933E-03
  rms(prec ) = 0.39901E-03
  weight for this iteration     100.00

 eigenvalues of (default mixing * dielectric matrix)
  average eigenvalue GAMMA=   1.5280
  7.1833  3.2530  2.4814  1.8308  1.7316  1.7316  0.9740  0.9740  0.8160  0.8160
  0.6253  0.5270  0.4014  0.3869  0.3649  0.3515

 Free energy of the ion-electron system (eV)
  ---------------------------------------------------
  alpha Z        PSCENC =       243.51650524
  Ewald energy   TEWEN  =     62504.81123175
  -Hartree energ DENC   =    -74338.33661929
  -exchange      EXHF   =         0.00000000
  -V(xc)+E(xc)   XCENC  =     -2089.53460647
  PAW double counting   =      8276.20417072    -5631.88398123
  entropy T*S    EENTRO =        -0.00000000
  eigenvalues    EBANDS =     -1241.88089139
  atomic energy  EATOM  =     11953.08265402
  Solvation  Ediel_sol  =         0.00000000
  ---------------------------------------------------
  free energy    TOTEN  =      -324.02153665 eV

  energy without entropy =     -324.02153665  energy(sigma->0) =     -324.02153665


--------------------------------------------------------------------------------------------------------




--------------------------------------- Iteration      1(  22)  ---------------------------------------


    POTLOK:  cpu time    0.2824: real time    0.2827
    SETDIJ:  cpu time    0.0115: real time    0.0116
    EDDIAG:  cpu time    2.5511: real time    2.5580
  RMM-DIIS:  cpu time   32.5851: real time   32.6689
    ORTHCH:  cpu time    0.2409: real time    0.2411
       DOS:  cpu time    0.0004: real time    0.0004
    CHARGE:  cpu time    1.1514: real time    1.1526
    MIXING:  cpu time    0.0100: real time    0.0100
    --------------------------------------------
      LOOP:  cpu time   36.8328: real time   36.9253

 eigenvalue-minimisations  :  1510
 total energy-change (2. order) :-0.5018112E-04  (-0.4892028E-06)
 number of electron     324.0000007 magnetization 
 augmentation part      -21.2180438 magnetization 

 Broyden mixing:
  rms(total) = 0.26233E-03    rms(broyden)= 0.26233E-03
  rms(prec ) = 0.31694E-03
  weight for this iteration     100.00

 eigenvalues of (default mixing * dielectric matrix)
  average eigenvalue GAMMA=   1.5936
[...]
  0.000   0.000   0.000   0.000   0.000   0.011  -0.000  -0.000
  0.000  -0.000   0.000   0.000   0.000  -0.000   0.011  -0.000
  0.000   0.000   0.000   0.000   0.000  -0.000  -0.000   0.011
 -0.000  -0.000  -0.001  -0.000  -0.001   0.000   0.000  -0.000
  0.000  -0.000   0.014  -0.001  -0.000   0.000   0.000   0.000
 -0.009  -0.000   0.000   0.019   0.000  -0.000   0.000  -0.000
 -0.000  -0.000  -0.000  -0.001   0.014   0.000   0.000   0.000
 -0.001  -0.000   0.000  -0.000  -0.001  -0.000   0.000   0.000
 total augmentation occupancy for first ion, spin component:           1
  1.934   0.204  -0.001  -0.200  -0.001   0.006  -0.038   0.005   0.001  -0.001   0.006  -0.001  -0.000
  0.204   1.326  -0.013   0.934  -0.008   0.009  -0.365   0.010  -0.005  -0.001  -0.022  -0.003  -0.006
 -0.001  -0.013   1.332  -0.012  -0.001  -0.482   0.007   0.002  -0.003   0.118   0.000  -0.002   0.046
 -0.200   0.934  -0.012   1.498  -0.006   0.007  -0.534   0.008  -0.001  -0.003   0.037  -0.005  -0.003
 -0.001  -0.008  -0.001  -0.006   1.335   0.002   0.008  -0.468   0.042  -0.002  -0.002   0.114   0.001
  0.006   0.009  -0.482   0.007   0.002   0.302  -0.002  -0.005   0.001  -0.038  -0.001  -0.000  -0.009
 -0.038  -0.365   0.007  -0.534   0.008  -0.002   0.282  -0.003  -0.000   0.002  -0.044   0.002   0.000
  0.005   0.010   0.002   0.008  -0.468  -0.005  -0.003   0.288  -0.006  -0.001  -0.000  -0.038   0.001
  0.001  -0.005  -0.003  -0.001   0.042   0.001  -0.000  -0.006   0.020  -0.000   0.001  -0.001   0.000
 -0.001  -0.001   0.118  -0.003  -0.002  -0.038   0.002  -0.001  -0.000   0.018  -0.001  -0.000  -0.000
  0.006  -0.022   0.000   0.037  -0.002  -0.001  -0.044  -0.000   0.001  -0.001   0.019  -0.000   0.001
 -0.001  -0.003  -0.002  -0.005   0.114  -0.000   0.002  -0.038  -0.001  -0.000  -0.000   0.018  -0.000
 -0.000  -0.006   0.046  -0.003   0.001  -0.009   0.000   0.001   0.000  -0.000   0.001  -0.000   0.019


------------------------ aborting loop because EDIFF is reached ----------------------------------------


    CHARGE:  cpu time    1.1360: real time    1.1372
    FORLOC:  cpu time    0.0769: real time    0.0770
    FORNL :  cpu time   14.0597: real time   14.1081
    STRESS:  cpu time   72.7501: real time   72.9671
    FORCOR:  cpu time    0.3125: real time    0.3128
    FORHAR:  cpu time    0.1314: real time    0.1316
    MIXING:  cpu time    0.0076: real time    0.0077
    OFIELD:  cpu time    0.0000: real time    0.0000

  Number of pair interactions contributing to vdW energy:  267260
  Edisp (eV):  -19.28552
    FORVDW:  cpu time    0.0303: real time    0.0303

  FORCE on cell =-STRESS in cart. coord.  units (eV):
  Direction    XX          YY          ZZ          XY          YZ          ZX
  --------------------------------------------------------------------------------------
  Alpha Z   243.51651   243.51651   243.51651
  Ewald   71615.55764 71699.99278-80770.00428    -6.40062    -6.35233    -7.13217
  Hartree 73986.07748 74010.57689-73619.07116    -1.87421     1.54729    -0.69530
  E(xc)   -1351.24579 -1352.30931 -1369.99383     0.29555     0.77988     0.28912
  Local  ************************149334.00219     8.29025     5.63960     7.78922
  n-local  3546.19800  3544.42489  3725.10178     1.77207    -5.97364    -2.10495
  augment  -761.48453  -759.66814  -800.11969    -0.68853     1.20496     0.34788
  Kinetic  3272.83792  3291.75435  3250.81299    -6.53142    -0.65837    -1.11513
  Fock        0.00000     0.00000     0.00000     0.00000     0.00000     0.00000
  vdW       -12.70129   -12.28038    -9.30756     0.16848     1.03474     0.08806
  -------------------------------------------------------------------------------------
  Total     -20.14151     1.29011   -15.06305    -4.96843    -2.77787    -2.53326
  in kB     -10.94986     0.70137    -8.18897    -2.70107    -1.51018    -1.37720
  external pressure =       -6.15 kB  Pullay stress =        0.00 kB

  kinetic pressure (ideal gas correction) =      0.21 kB
  total pressure  =     -5.94 kB
  Total+kin.   -10.729       0.909      -7.987      -2.663      -1.456      -1.375

 VOLUME and BASIS-vectors are now :
 -----------------------------------------------------------------------------
  energy-cutoff  :      550.00
  volume of cell :     2947.09
      direct lattice vectors                 reciprocal lattice vectors
    10.732235383  0.000000000  0.000000000     0.093177233  0.053651911 -0.000866388
    -5.232677002  9.087586144  0.000000000     0.000000000  0.110040222 -0.001104269
     0.106364831  0.303234558 30.217278508     0.000000000  0.000000000  0.033093649

  length of vectors
    10.732235383 10.486426013 30.218987162     0.107523370  0.110045763  0.033093649


 FORCES acting on ions
    electron-ion (+dipol)            ewald-force                    non-local-force                 convergence-correction
 -----------------------------------------------------------------------------------------------
   -.111E+01 -.106E+01 0.833E+03   0.103E+01 0.101E+01 -.838E+03   0.281E+00 0.280E+00 0.545E+01   0.111E-02 -.497E-03 -.855E-03
   0.146E+01 -.184E+01 0.833E+03   -.149E+01 0.170E+01 -.838E+03   0.945E-01 0.478E+00 0.562E+01   -.776E-03 0.190E-02 0.177E-03
   -.149E+01 -.502E+00 0.834E+03   0.151E+01 0.427E+00 -.839E+03   -.641E-02 0.166E+00 0.567E+01   -.178E-03 -.127E-02 0.600E-03
   0.653E-02 -.152E+01 0.835E+03   -.415E-01 0.149E+01 -.840E+03   0.132E-01 0.217E+00 0.558E+01   0.564E-03 0.623E-03 0.424E-04
   -.408E+01 0.731E+00 0.835E+03   0.413E+01 -.808E+00 -.840E+03   0.325E+00 0.501E-01 0.531E+01   -.338E-03 0.661E-04 0.108E-03
   0.168E+01 -.385E+01 0.831E+03   -.171E+01 0.378E+01 -.836E+03   -.538E-01 0.537E+00 0.537E+01   -.190E-03 -.642E-03 0.993E-04
   -.270E+01 -.268E+01 0.831E+03   0.266E+01 0.256E+01 -.837E+03   0.330E+00 0.393E+00 0.572E+01   -.164E-02 0.214E-03 -.411E-03
   0.145E+01 -.135E+01 0.833E+03   -.153E+01 0.135E+01 -.838E+03   -.223E+00 0.178E+00 0.552E+01   0.109E-02 -.198E-03 0.989E-03
   -.167E+01 -.880E-01 0.831E+03   0.165E+01 -.976E-02 -.836E+03   0.725E-01 0.117E+00 0.523E+01   0.373E-03 -.164E-03 -.227E-03
   0.457E+00 -.184E+01 -.111E+03   -.492E+00 0.183E+01 0.105E+03   -.251E-01 0.130E+00 0.530E+01   -.797E-03 0.891E-04 -.152E-02
   -.266E+01 -.286E+01 -.113E+03   0.268E+01 0.293E+01 0.107E+03   0.259E+00 0.127E+00 0.577E+01   -.981E-03 0.273E-03 0.467E-03
   -.279E+00 0.869E+00 -.112E+03   0.262E+00 -.837E+00 0.107E+03   -.603E-01 0.428E-01 0.562E+01   0.935E-03 -.794E-03 -.291E-04
   -.318E+01 -.250E+01 -.112E+03   0.324E+01 0.250E+01 0.107E+03   0.489E-01 0.135E+00 0.542E+01   0.135E-02 -.649E-03 -.164E-03
   0.499E+00 -.259E+01 -.113E+03   -.546E+00 0.264E+01 0.107E+03   -.110E+00 0.234E+00 0.559E+01   0.960E-03 0.113E-02 -.472E-03
   -.132E+00 -.706E-01 -.113E+03   0.135E+00 0.214E-01 0.108E+03   -.947E-01 0.234E+00 0.534E+01   -.836E-03 0.407E-03 0.988E-05
   0.141E+01 -.136E+01 -.111E+03   -.146E+01 0.135E+01 0.106E+03   -.944E-01 0.482E-01 0.556E+01   -.509E-03 0.760E-03 0.306E-03
   0.586E+00 -.488E+00 -.115E+03   -.571E+00 0.499E+00 0.110E+03   -.110E+00 0.365E-01 0.556E+01   -.332E-04 0.160E-03 0.155E-02
   -.865E+00 -.160E+01 -.112E+03   0.870E+00 0.160E+01 0.106E+03   0.135E-01 0.381E+00 0.560E+01   -.962E-04 -.124E-02 -.266E-03
   -.304E-01 0.954E+00 0.114E+03   -.481E-01 -.100E+01 -.108E+03   0.172E+00 -.744E-01 -.551E+01   0.113E-02 -.518E-03 0.994E-03
   0.396E+01 -.560E-01 0.114E+03   -.395E+01 -.657E-02 -.108E+03   -.276E+00 -.318E-01 -.557E+01   -.555E-03 0.199E-02 -.842E-04
   -.468E+00 0.107E+01 0.112E+03   0.428E+00 -.113E+01 -.106E+03   0.464E-02 -.596E-01 -.572E+01   -.239E-03 -.126E-02 -.568E-03
   -.148E+01 -.255E+01 0.111E+03   0.149E+01 0.257E+01 -.106E+03   -.153E-01 0.100E+00 -.558E+01   0.576E-03 0.554E-03 -.176E-03
   -.173E+01 -.677E+00 0.112E+03   0.174E+01 0.600E+00 -.106E+03   0.819E-01 0.169E+00 -.523E+01   -.373E-03 0.659E-04 0.122E-04
   0.803E+00 -.892E-02 0.111E+03   -.753E+00 -.606E-01 -.106E+03   -.203E+00 -.813E-01 -.549E+01   -.527E-04 -.617E-03 0.308E-03
   -.139E+01 -.420E+01 0.114E+03   0.136E+01 0.420E+01 -.109E+03   0.129E+00 0.130E+00 -.581E+01   -.160E-02 0.209E-04 0.552E-03
   -.205E+01 0.254E+01 0.114E+03   0.206E+01 -.261E+01 -.109E+03   -.769E-01 -.195E+00 -.564E+01   0.101E-02 -.111E-03 -.106E-02
   -.134E+01 -.130E+01 0.111E+03   0.135E+01 0.128E+01 -.105E+03   -.206E-01 0.258E-01 -.566E+01   0.259E-03 -.211E-03 0.503E-03
   0.844E+00 -.257E+01 -.833E+03   -.870E+00 0.260E+01 0.838E+03   -.969E-01 -.567E-01 -.508E+01   -.845E-03 0.154E-03 0.130E-02
   0.108E+01 -.194E+00 -.832E+03   -.106E+01 0.230E+00 0.838E+03   -.197E+00 -.227E+00 -.575E+01   -.950E-03 0.274E-03 -.353E-03
   -.723E+00 0.351E+01 -.834E+03   0.748E+00 -.353E+01 0.839E+03   -.831E-01 -.345E+00 -.574E+01   0.967E-03 -.848E-03 -.165E-03
   -.231E+01 -.388E+01 -.833E+03   0.232E+01 0.391E+01 0.838E+03   0.354E-01 0.693E-01 -.558E+01   0.145E-02 -.630E-03 0.308E-04
   -.170E+01 0.993E+00 -.832E+03   0.173E+01 -.976E+00 0.837E+03   -.206E-01 -.255E+00 -.561E+01   0.899E-03 0.118E-02 0.347E-03
   -.138E+01 -.443E+00 -.832E+03   0.142E+01 0.472E+00 0.837E+03   -.406E-01 -.893E-01 -.561E+01   -.892E-03 0.386E-03 -.120E-03
   0.200E+00 -.965E+00 -.835E+03   -.184E+00 0.909E+00 0.840E+03   -.104E+00 -.523E-01 -.548E+01   -.604E-03 0.864E-03 -.204E-03
   0.588E+00 0.221E+00 -.833E+03   -.548E+00 -.225E+00 0.838E+03   -.217E+00 -.814E-01 -.565E+01   0.549E-04 -.304E-04 -.124E-02
   0.122E+01 -.150E+01 -.832E+03   -.123E+01 0.147E+01 0.838E+03   -.213E+00 0.279E+00 -.542E+01   -.141E-03 -.138E-02 0.204E-03
   -.223E+00 0.214E+01 0.475E+03   0.238E+00 -.222E+01 -.475E+03   0.116E+00 -.148E-01 0.346E+00   0.818E-03 -.126E-02 0.473E-04
   0.742E+01 0.269E+01 0.470E+03   -.755E+01 -.277E+01 -.470E+03   -.610E+00 -.347E+00 -.137E+00   -.682E-03 0.957E-03 -.138E-03
   -.883E+00 0.227E+01 0.473E+03   0.928E+00 -.224E+01 -.473E+03   0.407E+00 -.169E+00 0.114E+00   -.120E-03 0.143E-03 0.905E-05
   0.216E+01 0.293E+01 0.468E+03   -.219E+01 -.298E+01 -.468E+03   0.224E-01 -.266E+00 -.313E+00   0.841E-04 -.571E-03 -.137E-03
   -.998E+00 0.467E+01 0.476E+03   0.103E+01 -.480E+01 -.476E+03   -.127E+00 -.405E+00 0.114E-01   0.720E-03 0.340E-03 0.512E-04
   0.494E+01 0.114E+01 0.473E+03   -.503E+01 -.124E+01 -.473E+03   -.198E+00 -.642E-01 0.104E+00   -.359E-03 0.473E-03 0.487E-04
   0.234E+00 -.171E+01 0.470E+03   -.255E+00 0.169E+01 -.471E+03   0.960E-01 -.461E-01 0.582E-01   -.773E-03 -.323E-03 0.817E-05
   -.686E+00 0.271E-01 0.476E+03   0.619E+00 -.683E-01 -.476E+03   0.107E+00 0.616E-01 0.347E+00   -.246E-03 0.741E-03 0.101E-03
   -.215E+01 0.362E+01 0.473E+03   0.218E+01 -.372E+01 -.473E+03   0.681E-01 -.792E-01 -.357E-01   0.636E-03 -.411E-03 0.878E-06
   0.271E+01 -.281E+01 -.474E+03   -.275E+01 0.286E+01 0.475E+03   -.650E-01 0.339E+00 -.106E+00   -.133E-02 0.854E-03 0.108E-03
   -.853E+00 0.428E+00 -.475E+03   0.918E+00 -.352E+00 0.476E+03   0.177E+00 0.251E+00 0.107E+00   -.150E-03 -.313E-03 0.141E-04
   0.197E+01 0.604E+01 -.474E+03   -.198E+01 -.616E+01 0.474E+03   0.288E-01 -.233E+00 -.271E+00   0.230E-03 -.119E-02 0.289E-04
   -.195E+01 -.319E+01 -.471E+03   0.200E+01 0.321E+01 0.471E+03   0.225E+00 0.298E+00 0.172E+00   0.107E-02 0.294E-03 0.104E-03
   0.265E+01 0.300E+01 -.470E+03   -.270E+01 -.306E+01 0.470E+03   -.274E-01 -.110E+00 -.533E-01   -.506E-03 0.809E-03 0.119E-03
   -.241E+00 0.386E+01 -.467E+03   0.231E+00 -.393E+01 0.467E+03   0.132E+00 -.772E-01 0.315E+00   0.678E-03 -.473E-03 0.182E-03
   0.153E+01 0.406E+00 -.477E+03   -.149E+01 -.474E+00 0.477E+03   -.476E-01 0.150E+00 -.160E+00   0.340E-03 0.605E-03 0.340E-04
   0.183E+00 0.450E+01 -.473E+03   -.166E+00 -.461E+01 0.473E+03   0.271E+00 -.369E+00 -.461E-03   0.100E-02 -.328E-03 0.678E-04
   0.401E+00 0.185E+01 -.473E+03   -.355E+00 -.186E+01 0.473E+03   0.236E+00 -.120E+00 0.485E-01   -.573E-03 0.272E-04 0.630E-04
 -----------------------------------------------------------------------------------------------
   -.324E+00 -.180E+01 0.367E+00   -.640E-13 -.249E-13 -.909E-12   0.330E+00 0.181E+01 -.368E+00   0.950E-03 0.437E-03 0.140E-02
 
 
 POSITION                                       TOTAL-FORCE (eV/Angst)
 -----------------------------------------------------------------------------------
      0.06181      2.12048      9.69535         0.199333      0.231641      0.087045
     -1.68596      5.13464      9.68297         0.065582      0.330413      0.296563
     -3.41089      8.19771      9.67177         0.018124      0.096131      0.405035
      3.64724      2.10646      9.67297        -0.020699      0.180819      0.313676
      1.87164      5.17635      9.69759         0.363191     -0.014712     -0.037831
      0.15803      8.15802      9.71694        -0.076902      0.451317      0.037180
      7.21420      2.09849      9.68187         0.282920      0.261434      0.373521
      5.50716      5.14607      9.68581        -0.289966      0.167228      0.181383
      3.72514      8.18585      9.72572         0.049103      0.021526     -0.161378
      2.15875      0.67292     16.88340        -0.056393      0.141732     -0.030191
      0.37447      3.69532     16.86114         0.264591      0.219121      0.423541
     -1.33442      6.74091     16.87150        -0.074702      0.103797      0.247476
      5.73612      0.69146     16.88085         0.102034      0.152608      0.037282
      3.99819      3.69623     16.87636        -0.152042      0.302723      0.169507
      2.25674      6.73716     16.89312        -0.086979      0.203133     -0.087237
      9.32778      0.69908     16.86883        -0.136794      0.065226      0.264255
      7.56536      3.71736     16.89595        -0.094404      0.074701      0.148981
      5.81773      6.72919     16.86919         0.016707      0.405474      0.256485
      0.08990      2.15190     13.32469         0.102470     -0.144422     -0.119548
     -1.64207      5.20286     13.32914        -0.257773     -0.106631     -0.152467
     -3.42637      8.21744     13.35675        -0.036894     -0.141319     -0.368755
      3.65749      2.14512     13.35189         0.001072      0.097194     -0.279412
      1.90238      5.16374     13.31187         0.085945      0.070117      0.166341
      0.18445      8.21277     13.33968        -0.144116     -0.168880     -0.072386
      7.23185      2.13933     13.34013         0.091147      0.114880     -0.357730
      5.49227      5.18296     13.33141        -0.058720     -0.283034     -0.264872
      3.74645      8.19486     13.34918        -0.003431     -0.025520     -0.263756
      2.17899      0.70590     20.49392        -0.115456     -0.022525      0.244942
      0.43608      3.74843     20.54073        -0.165012     -0.183223     -0.448818
     -1.31564      6.79980     20.54419        -0.053111     -0.336840     -0.464764
      5.72267      0.68642     20.52367         0.046969      0.091189     -0.280998
      3.98400      3.75039     20.51988         0.006596     -0.224979     -0.290982
      2.23924      6.77851     20.51938        -0.002405     -0.049490     -0.312181
      9.33492      0.70826     20.53342        -0.081760     -0.100930     -0.186742
      7.57847      3.74165     20.53253        -0.172438     -0.077402     -0.288138
      5.84330      6.74628     20.51399        -0.217257      0.246802     -0.095186
      5.53151      9.20033     11.49600         0.126369     -0.090550      0.414706
     -1.66145      3.16340     11.52695        -0.768104     -0.431878     -0.130857
      7.25998      6.18802     11.50535         0.463075     -0.165054      0.138668
      3.60857      0.12687     11.54697        -0.011104     -0.336403     -0.390486
      1.88918      3.16222     11.50527        -0.105863     -0.551665     -0.075011
      0.13580      6.17660     11.50914        -0.299734     -0.156355      0.184728
      1.95863      9.19418     11.52404         0.078738     -0.050170      0.066234
      5.44272      3.12569     11.48730         0.055929      0.035139      0.430382
      3.69876      6.16814     11.51991         0.102761     -0.184426     -0.103439
      0.38903      1.67471     18.70561        -0.121251      0.417449     -0.057677
     -1.37739      4.71622     18.70398         0.239347      0.321433      0.216915
     -3.10742      7.76602     18.71444         0.010153     -0.388023     -0.322724
      3.94287      1.67788     18.68341         0.277350      0.345134      0.258631
      2.20543      4.73084     18.69937        -0.087972     -0.185008     -0.086319
      0.45528      7.76152     18.67467         0.119856     -0.165131      0.355446
      7.53849      1.68756     18.72026        -0.039343      0.099213     -0.129635
      5.76883      4.74754     18.70088         0.291604     -0.506693      0.028637
      4.03478      7.77196     18.69642         0.276800     -0.152894      0.113108
 -----------------------------------------------------------------------------------
    total drift:                                0.007143      0.003417      0.001148


--------------------------------------------------------------------------------------------------------



  FREE ENERGIE OF THE ION-ELECTRON SYSTEM (eV)
  ---------------------------------------------------
  free  energy   TOTEN  =      -343.17256541 eV

  energy  without entropy=     -343.17256541  energy(sigma->0) =     -343.17256541
 
 d Force =-0.2584180E-01[-0.279E-01,-0.238E-01]  d Energy =-0.2578905E-01-0.527E-04
 d Force =-0.8427880E+01[-0.843E+01,-0.842E+01]  d Ewald  =-0.8427877E+01-0.342E-05


--------------------------------------------------------------------------------------------------------


    POTLOK:  cpu time    0.2946: real time    0.2948


--------------------------------------------------------------------------------------------------------


           RANDOM_SEED =         270673715              324                0
   IONSTEP:  cpu time    0.0001: real time    0.0001

  ENERGY OF THE ELECTRON-ION-THERMOSTAT SYSTEM (eV)
  ---------------------------------------------------
% ion-electron   TOTEN  =      -343.172565  see above
  kinetic energy EKIN   =         0.570095
  kin. lattice  EKIN_LAT=         0.000000  (temperature   83.22 K)
  nose potential ES     =        -0.020524
  nose kinetic   EPS    =         0.002506
  ---------------------------------------------------
  total energy   ETOTAL =      -342.620489 eV

  maximum distance moved by ions :      0.48E-03


 mean value of Nose-termostat <S>:     0.978 mean value of <T> :    83.216
 mean temperature <T/S>/<1/S>  :    83.216

    WAVPRE:  cpu time    0.0994: real time    0.1028
    FEWALD:  cpu time    0.0015: real time    0.0015
    ORTHCH:  cpu time    8.2011: real time    8.2299
    POTLOK:  cpu time    0.3138: real time    0.3141
    EDDIAG:  cpu time    2.5762: real time    2.5789
     LOOP+:  cpu time  481.4181: real time  482.8111
    4ORBIT:  cpu time    0.0000: real time    0.0000

 total amount of memory used by VASP MPI-rank0   369847. kBytes
=======================================================================

   base      :      30000. kBytes
   nonl-proj :     198973. kBytes
   fftplans  :      18984. kBytes
   grid      :      86187. kBytes
   one-center:        839. kBytes
   wavefun   :      34864. kBytes
 
  
  
 General timing and accounting informations for this job:
 ========================================================
  
                  Total CPU time used (sec):     5865.692
                            User time (sec):     5851.988
                          System time (sec):       13.703
                         Elapsed time (sec):     5882.575
  
                   Maximum memory used (kb):      816856.
                   Average memory used (kb):           0.
  
                          Minor page faults:       429284
                          Major page faults:            0
                 Voluntary context switches:          762
