0.000000000000000000e+00 2.032270000000000021e+00 9.349149999999999849e+00 -1.760000000000000009e+00 5.080680000000000085e+00 9.349149999999999849e+00 -3.520000000000000018e+00 8.129089999999999705e+00 9.349149999999999849e+00 3.520000000000000018e+00 2.032270000000000021e+00 9.349149999999999849e+00 1.760000000000000009e+00 5.080680000000000085e+00 9.349149999999999849e+00 0.000000000000000000e+00 8.129089999999999705e+00 9.349149999999999849e+00 7.040000000000000036e+00 2.032270000000000021e+00 9.349149999999999849e+00 5.280000000000000249e+00 5.080680000000000085e+00 9.349149999999999849e+00 3.520000000000000018e+00 8.129089999999999705e+00 9.349149999999999849e+00 0.000000000000000000e+00 1.117750000000000021e+00 1.703028000000000119e+01 -1.760000000000000009e+00 4.166159999999999641e+00 1.703028000000000119e+01 -3.520000000000000018e+00 7.214570000000000149e+00 1.703028000000000119e+01 3.520000000000000018e+00 1.117750000000000021e+00 1.703028000000000119e+01 1.760000000000000009e+00 4.166159999999999641e+00 1.703028000000000119e+01 0.000000000000000000e+00 7.214570000000000149e+00 1.703028000000000119e+01 7.040000000000000036e+00 1.117750000000000021e+00 1.703028000000000119e+01 5.280000000000000249e+00 4.166159999999999641e+00 1.703028000000000119e+01 3.520000000000000018e+00 7.214570000000000149e+00 1.703028000000000119e+01 0.000000000000000000e+00 2.032270000000000021e+00 1.296978000000000009e+01 -1.760000000000000009e+00 5.080680000000000085e+00 1.296978000000000009e+01 -3.520000000000000018e+00 8.129089999999999705e+00 1.296978000000000009e+01 3.520000000000000018e+00 2.032270000000000021e+00 1.296978000000000009e+01 1.760000000000000009e+00 5.080680000000000085e+00 1.296978000000000009e+01 0.000000000000000000e+00 8.129089999999999705e+00 1.296978000000000009e+01 7.040000000000000036e+00 2.032270000000000021e+00 1.296978000000000009e+01 5.280000000000000249e+00 5.080680000000000085e+00 1.296978000000000009e+01 3.520000000000000018e+00 8.129089999999999705e+00 1.296978000000000009e+01 0.000000000000000000e+00 1.117750000000000021e+00 2.065090000000000003e+01 -1.760000000000000009e+00 4.166159999999999641e+00 2.065090000000000003e+01 -3.520000000000000018e+00 7.214570000000000149e+00 2.065090000000000003e+01 3.520000000000000018e+00 1.117750000000000021e+00 2.065090000000000003e+01 1.760000000000000009e+00 4.166159999999999641e+00 2.065090000000000003e+01 0.000000000000000000e+00 7.214570000000000149e+00 2.065090000000000003e+01 7.040000000000000036e+00 1.117750000000000021e+00 2.065090000000000003e+01 5.280000000000000249e+00 4.166159999999999641e+00 2.065090000000000003e+01 3.520000000000000018e+00 7.214570000000000149e+00 2.065090000000000003e+01 0.000000000000000000e+00 0.000000000000000000e+00 1.115914000000000073e+01 -1.760000000000000009e+00 3.048410000000000064e+00 1.115914000000000073e+01 -3.520000000000000018e+00 6.096820000000000128e+00 1.115914000000000073e+01 3.520000000000000018e+00 0.000000000000000000e+00 1.115914000000000073e+01 1.760000000000000009e+00 3.048410000000000064e+00 1.115914000000000073e+01 0.000000000000000000e+00 6.096820000000000128e+00 1.115914000000000073e+01 7.040000000000000036e+00 0.000000000000000000e+00 1.115914000000000073e+01 5.280000000000000249e+00 3.048410000000000064e+00 1.115914000000000073e+01 3.520000000000000018e+00 6.096820000000000128e+00 1.115914000000000073e+01 1.760000000000000009e+00 2.133890000000000065e+00 1.884080000000000155e+01 0.000000000000000000e+00 5.182299999999999685e+00 1.884080000000000155e+01 -1.760000000000000009e+00 8.230710000000000193e+00 1.884080000000000155e+01 5.280000000000000249e+00 2.133890000000000065e+00 1.884080000000000155e+01 3.520000000000000018e+00 5.182299999999999685e+00 1.884080000000000155e+01 1.760000000000000009e+00 8.230710000000000193e+00 1.884080000000000155e+01 8.800000000000000711e+00 2.133890000000000065e+00 1.884080000000000155e+01 7.040000000000000036e+00 5.182299999999999685e+00 1.884080000000000155e+01 5.280000000000000249e+00 8.230710000000000193e+00 1.884080000000000155e+01
5.449999999999999983e-03 2.032840000000000202e+00 9.349819999999999354e+00 -1.759079999999999977e+00 5.082069999999999865e+00 9.349449999999999150e+00 -3.520550000000000068e+00 8.130290000000000461e+00 9.346059999999999590e+00 3.519849999999999923e+00 2.032309999999999839e+00 9.346730000000000871e+00 1.757940000000000058e+00 5.080400000000000027e+00 9.347080000000000055e+00 1.399999999999999877e-04 8.127950000000000230e+00 9.348300000000000054e+00 7.039760000000000240e+00 2.031509999999999927e+00 9.350229999999999819e+00 5.279060000000000308e+00 5.080790000000000362e+00 9.350450000000000372e+00 3.520779999999999799e+00 8.129300000000000637e+00 9.353149999999999409e+00 1.920000000000000049e-03 1.117110000000000047e+00 1.703170000000000073e+01 -1.759290000000000020e+00 4.167430000000000412e+00 1.703137999999999863e+01 -3.519989999999999952e+00 7.217520000000000380e+00 1.703014999999999901e+01 3.518580000000000041e+00 1.116139999999999910e+00 1.703109999999999857e+01 1.761770000000000058e+00 4.167390000000000150e+00 1.702817999999999898e+01 -2.150000000000000001e-03 7.215749999999999886e+00 1.702833000000000041e+01 7.039159999999999862e+00 1.120670000000000055e+00 1.703086000000000055e+01 5.280990000000000073e+00 4.166030000000000122e+00 1.702822000000000102e+01 3.518120000000000136e+00 7.215709999999999624e+00 1.703153000000000006e+01 5.299999999999999807e-04 2.029180000000000206e+00 1.296852999999999945e+01 -1.759679999999999911e+00 5.081990000000000229e+00 1.297082999999999942e+01 -3.518380000000000063e+00 8.131080000000000751e+00 1.296663999999999994e+01 3.518590000000000106e+00 2.034279999999999866e+00 1.297108000000000061e+01 1.758270000000000000e+00 5.079360000000000319e+00 1.296940999999999988e+01 -1.899999999999999996e-03 8.131800000000000139e+00 1.297081999999999979e+01 7.038809999999999789e+00 2.032919999999999838e+00 1.296859000000000073e+01 5.279060000000000308e+00 5.079329999999999679e+00 1.297072000000000003e+01 3.521240000000000148e+00 8.127499999999999503e+00 1.296740999999999921e+01 1.139999999999999954e-03 1.116749999999999909e+00 2.065186999999999884e+01 -1.758790000000000076e+00 4.164719999999999978e+00 2.064902999999999977e+01 -3.521619999999999973e+00 7.214209999999999567e+00 2.065123000000000175e+01 3.517510000000000137e+00 1.118470000000000075e+00 2.064933999999999870e+01 1.759460000000000024e+00 4.165619999999999656e+00 2.064959999999999951e+01 8.999999999999999754e-04 7.212379999999999569e+00 2.065158999999999878e+01 7.041140000000000398e+00 1.116160000000000041e+00 2.065111999999999881e+01 5.280809999999999782e+00 4.166489999999999583e+00 2.065108000000000033e+01 3.518990000000000062e+00 7.214299999999999713e+00 2.065087000000000117e+01 1.055832000000000015e+01 1.110000000000000092e-03 1.115723000000000020e+01 -1.759740000000000082e+00 3.048999999999999932e+00 1.116088000000000058e+01 7.039649999999999963e+00 6.095259999999999678e+00 1.116360000000000063e+01 -1.759060000000000068e+00 9.144809999999999661e+00 1.115865999999999936e+01 1.759139999999999926e+00 3.050940000000000207e+00 1.116078000000000081e+01 -4.000000000000000327e-05 6.099529999999999674e+00 1.116225000000000023e+01 7.041970000000000063e+00 3.619999999999999954e-03 1.116200000000000081e+01 5.278819999999999624e+00 3.047169999999999934e+00 1.115906999999999982e+01 3.517879999999999896e+00 6.093989999999999796e+00 1.115970000000000084e+01 1.758119999999999905e+00 2.132340000000000124e+00 1.884046999999999983e+01 1.690000000000000096e-03 5.181160000000000210e+00 1.884439000000000064e+01 -1.755069999999999908e+00 8.231210000000000804e+00 1.883874000000000137e+01 5.282740000000000435e+00 2.132190000000000030e+00 1.883962999999999965e+01 3.520140000000000047e+00 5.179160000000000430e+00 1.884000999999999948e+01 1.760110000000000063e+00 8.230529999999999902e+00 1.884081000000000117e+01 8.797430000000000305e+00 2.131250000000000089e+00 1.883986000000000161e+01 7.040689999999999671e+00 5.184459999999999624e+00 1.884316000000000102e+01 5.279099999999999682e+00 8.227740000000000720e+00 1.883952000000000027e+01
1.089000000000000037e-02 2.033420000000000005e+00 9.350490000000000634e+00 -1.758170000000000011e+00 5.083450000000000024e+00 9.349750000000000227e+00 -3.521090000000000053e+00 8.131479999999999819e+00 9.342980000000000729e+00 3.519699999999999829e+00 2.032350000000000101e+00 9.344310000000000116e+00 1.755880000000000107e+00 5.080110000000000348e+00 9.345010000000000261e+00 2.900000000000000017e-04 8.126810000000000755e+00 9.347459999999999880e+00 7.039530000000000065e+00 2.030740000000000212e+00 9.351300000000000168e+00 5.278120000000000367e+00 5.080910000000000259e+00 9.351749999999999119e+00 3.521560000000000024e+00 8.129500000000000171e+00 9.357139999999999347e+00 3.840000000000000097e-03 1.116460000000000008e+00 1.703310000000000102e+01 -1.758569999999999967e+00 4.168689999999999785e+00 1.703247999999999962e+01 -3.519979999999999887e+00 7.220460000000000100e+00 1.703001000000000076e+01 3.517160000000000064e+00 1.114530000000000021e+00 1.703190999999999988e+01 1.763530000000000042e+00 4.168599999999999639e+00 1.702608999999999995e+01 -4.279999999999999950e-03 7.216910000000000380e+00 1.702638999999999925e+01 7.038319999999999688e+00 1.123580000000000023e+00 1.703142000000000067e+01 5.281979999999999897e+00 4.165890000000000093e+00 1.702617000000000047e+01 3.516249999999999876e+00 7.216840000000000366e+00 1.703276999999999930e+01 1.059999999999999961e-03 2.026110000000000078e+00 1.296728000000000058e+01 -1.759349999999999969e+00 5.083300000000000374e+00 1.297189000000000014e+01 -3.516770000000000174e+00 8.133070000000000022e+00 1.296350999999999942e+01 3.517180000000000195e+00 2.036300000000000221e+00 1.297237999999999936e+01 1.756550000000000056e+00 5.078039999999999665e+00 1.296906000000000070e+01 -3.789999999999999966e-03 8.134520000000000195e+00 1.297185999999999950e+01 7.037630000000000052e+00 2.033570000000000100e+00 1.296740999999999921e+01 5.278129999999999988e+00 5.077980000000000160e+00 1.297165999999999997e+01 3.522470000000000212e+00 8.125920000000000698e+00 1.296505999999999936e+01 2.279999999999999909e-03 1.115750000000000020e+00 2.065284000000000120e+01 -1.757589999999999986e+00 4.163280000000000314e+00 2.064715999999999951e+01 -3.523219999999999796e+00 7.213849999999999874e+00 2.065155999999999992e+01 3.515039999999999942e+00 1.119189999999999907e+00 2.064779000000000053e+01 1.758930000000000105e+00 4.165079999999999671e+00 2.064829999999999899e+01 1.799999999999999951e-03 7.210200000000000387e+00 2.065229000000000070e+01 7.042270000000000252e+00 1.114570000000000061e+00 2.065135000000000076e+01 5.281629999999999825e+00 4.166820000000000412e+00 2.065125000000000099e+01 3.517990000000000173e+00 7.214019999999999655e+00 2.065084999999999837e+01 1.055667000000000044e+01 2.220000000000000185e-03 1.115532999999999930e+01 -1.759470000000000089e+00 3.049599999999999866e+00 1.116259999999999941e+01 7.039290000000000269e+00 6.093720000000000248e+00 1.116802999999999990e+01 -1.758119999999999905e+00 9.144410000000000593e+00 1.115817000000000014e+01 1.758299999999999974e+00 3.053459999999999841e+00 1.116239999999999988e+01 -6.999999999999999387e-05 6.102229999999999599e+00 1.116535000000000011e+01 7.043929999999999580e+00 7.230000000000000315e-03 1.116483999999999988e+01 5.277630000000000265e+00 3.045929999999999804e+00 1.115898999999999930e+01 3.515760000000000218e+00 6.091169999999999973e+00 1.116025999999999918e+01 1.756259999999999932e+00 2.130799999999999805e+00 1.884014000000000166e+01 3.380000000000000192e-03 5.180030000000000356e+00 1.884794000000000125e+01 -1.750180000000000069e+00 8.231690000000000396e+00 1.883671000000000006e+01 5.285459999999999603e+00 2.130500000000000060e+00 1.883847000000000094e+01 3.520280000000000076e+00 5.176040000000000418e+00 1.883922000000000097e+01 1.760210000000000052e+00 8.230349999999999611e+00 1.884081000000000117e+01 8.794879999999999143e+00 2.128610000000000113e+00 1.883893000000000129e+01 7.041369999999999685e+00 5.186609999999999943e+00 1.884550000000000125e+01 5.278209999999999624e+00 8.224780000000000868e+00 1.883825999999999823e+01
1.629999999999999852e-02 2.033999999999999808e+00 9.351150000000000517e+00 -1.757260000000000044e+00 5.084830000000000183e+00 9.350070000000000547e+00 -3.521640000000000104e+00 8.132649999999999935e+00 9.339930000000000732e+00 3.519550000000000178e+00 2.032389999999999919e+00 9.341920000000000002e+00 1.753819999999999935e+00 5.079839999999999911e+00 9.342959999999999710e+00 4.600000000000000139e-04 8.125679999999999126e+00 9.346640000000000725e+00 7.039299999999999891e+00 2.029990000000000183e+00 9.352370000000000516e+00 5.277180000000000426e+00 5.081010000000000026e+00 9.353049999999999642e+00 3.522320000000000118e+00 8.129699999999999704e+00 9.361110000000000042e+00 5.729999999999999850e-03 1.115790000000000060e+00 1.703450000000000131e+01 -1.757859999999999978e+00 4.169950000000000045e+00 1.703359000000000023e+01 -3.519960000000000200e+00 7.223370000000000068e+00 1.702987999999999857e+01 3.515750000000000153e+00 1.112929999999999975e+00 1.703271000000000157e+01 1.765279999999999960e+00 4.169800000000000395e+00 1.702401000000000053e+01 -6.389999999999999847e-03 7.218040000000000234e+00 1.702445000000000164e+01 7.037480000000000402e+00 1.126449999999999951e+00 1.703196000000000154e+01 5.282980000000000231e+00 4.165750000000000064e+00 1.702412999999999954e+01 3.514380000000000059e+00 7.217939999999999579e+00 1.703399999999999892e+01 1.580000000000000024e-03 2.023060000000000080e+00 1.296606000000000058e+01 -1.759020000000000028e+00 5.084609999999999630e+00 1.297296000000000049e+01 -3.515169999999999906e+00 8.135070000000000690e+00 1.296039999999999992e+01 3.515769999999999840e+00 2.038310000000000066e+00 1.297367999999999988e+01 1.754820000000000046e+00 5.076749999999999652e+00 1.296873000000000076e+01 -5.669999999999999693e-03 8.137249999999999872e+00 1.297291000000000061e+01 7.036450000000000315e+00 2.034250000000000114e+00 1.296626000000000012e+01 5.277190000000000047e+00 5.076640000000000263e+00 1.297260999999999953e+01 3.523699999999999832e+00 8.124349999999999739e+00 1.296273000000000053e+01 3.399999999999999811e-03 1.114729999999999999e+00 2.065380000000000038e+01 -1.756389999999999896e+00 4.161830000000000140e+00 2.064532000000000167e+01 -3.524809999999999999e+00 7.213510000000000311e+00 2.065189000000000163e+01 3.512579999999999814e+00 1.119899999999999896e+00 2.064623999999999882e+01 1.758410000000000029e+00 4.164530000000000065e+00 2.064703000000000088e+01 2.700000000000000143e-03 7.208039999999999559e+00 2.065298999999999907e+01 7.043389999999999596e+00 1.112980000000000080e+00 2.065158999999999878e+01 5.282440000000000246e+00 4.167139999999999844e+00 2.065143000000000129e+01 3.516980000000000217e+00 7.213729999999999976e+00 2.065082999999999913e+01 1.055507000000000062e+01 3.310000000000000008e-03 1.115343000000000018e+01 -1.759190000000000031e+00 3.050199999999999800e+00 1.116428999999999938e+01 7.038940000000000197e+00 6.092209999999999681e+00 1.117238000000000042e+01 -1.757190000000000030e+00 9.144040000000000390e+00 1.115765999999999991e+01 1.757470000000000088e+00 3.055959999999999788e+00 1.116399000000000008e+01 -1.100000000000000039e-04 6.104919999999999902e+00 1.116840000000000011e+01 7.045840000000000103e+00 1.078999999999999924e-02 1.116764000000000046e+01 5.276449999999999640e+00 3.044719999999999871e+00 1.115891000000000055e+01 3.513650000000000162e+00 6.088359999999999772e+00 1.116080999999999968e+01 1.754410000000000025e+00 2.129290000000000127e+00 1.883980999999999995e+01 5.060000000000000261e-03 5.178910000000000124e+00 1.885141000000000133e+01 -1.745360000000000023e+00 8.232150000000000745e+00 1.883473000000000042e+01 5.288149999999999906e+00 2.128839999999999844e+00 1.883734000000000108e+01 3.520430000000000170e+00 5.172939999999999650e+00 1.883843999999999852e+01 1.760289999999999910e+00 8.230180000000000717e+00 1.884081000000000117e+01 8.792370000000000019e+00 2.125989999999999824e+00 1.883801000000000059e+01 7.042049999999999699e+00 5.188740000000000130e+00 1.884778999999999982e+01 5.277330000000000076e+00 8.221849999999999881e+00 1.883701999999999899e+01
2.165999999999999870e-02 2.034600000000000186e+00 9.351800000000000779e+00 -1.756359999999999921e+00 5.086210000000000342e+00 9.350410000000000110e+00 -3.522180000000000089e+00 8.133789999999999409e+00 9.336909999999999599e+00 3.519390000000000018e+00 2.032430000000000181e+00 9.339549999999999130e+00 1.751759999999999984e+00 5.079579999999999984e+00 9.340930000000000177e+00 6.400000000000000524e-04 8.124570000000000292e+00 9.345829999999999416e+00 7.039089999999999847e+00 2.029259999999999842e+00 9.353429999999999467e+00 5.276259999999999728e+00 5.081120000000000303e+00 9.354350000000000165e+00 3.523060000000000080e+00 8.129889999999999617e+00 9.365040000000000475e+00 7.590000000000000392e-03 1.115110000000000046e+00 1.703586999999999918e+01 -1.757149999999999990e+00 4.171190000000000175e+00 1.703471000000000046e+01 -3.519930000000000003e+00 7.226250000000000284e+00 1.702974000000000032e+01 3.514369999999999994e+00 1.111339999999999995e+00 1.703349000000000046e+01 1.767009999999999970e+00 4.170969999999999622e+00 1.702195000000000036e+01 -8.470000000000000098e-03 7.219140000000000335e+00 1.702252999999999972e+01 7.036649999999999849e+00 1.129280000000000062e+00 1.703246000000000038e+01 5.283990000000000187e+00 4.165600000000000414e+00 1.702211000000000141e+01 3.512509999999999799e+00 7.219020000000000437e+00 1.703520999999999930e+01 2.089999999999999844e-03 2.020039999999999836e+00 1.296485999999999983e+01 -1.758690000000000087e+00 5.085910000000000153e+00 1.297405000000000008e+01 -3.513599999999999834e+00 8.137069999999999581e+00 1.295730999999999966e+01 3.514369999999999994e+00 2.040309999999999846e+00 1.297497000000000078e+01 1.753100000000000103e+00 5.075490000000000279e+00 1.296842999999999968e+01 -7.530000000000000235e-03 8.139989999999999171e+00 1.297397999999999918e+01 7.035269999999999690e+00 2.034949999999999815e+00 1.296514999999999951e+01 5.276239999999999597e+00 5.075309999999999988e+00 1.297357000000000049e+01 3.524929999999999897e+00 8.122790000000000177e+00 1.296041999999999916e+01 4.499999999999999660e-03 1.113709999999999978e+00 2.065474999999999994e+01 -1.755209999999999937e+00 4.160379999999999967e+00 2.064349999999999952e+01 -3.526359999999999939e+00 7.213189999999999991e+00 2.065221999999999980e+01 3.510159999999999947e+00 1.120610000000000106e+00 2.064469000000000065e+01 1.757910000000000084e+00 4.163969999999999949e+00 2.064577999999999847e+01 3.599999999999999901e-03 7.205890000000000128e+00 2.065370000000000061e+01 7.044509999999999827e+00 1.111390000000000100e+00 2.065184999999999960e+01 5.283260000000000289e+00 4.167449999999999655e+00 2.065161000000000158e+01 3.515979999999999883e+00 7.213429999999999787e+00 2.065080000000000027e+01 1.055353999999999992e+01 4.389999999999999805e-03 1.115155999999999992e+01 -1.758899999999999908e+00 3.050809999999999800e+00 1.116592999999999947e+01 7.038579999999999615e+00 6.090740000000000265e+00 1.117661999999999978e+01 -1.756280000000000063e+00 9.143720000000000070e+00 1.115710999999999942e+01 1.756669999999999954e+00 3.058419999999999916e+00 1.116553000000000040e+01 -1.399999999999999877e-04 6.107590000000000074e+00 1.117139000000000060e+01 7.047679999999999723e+00 1.427999999999999929e-02 1.117038999999999938e+01 5.275269999999999904e+00 3.043520000000000003e+00 1.115882000000000041e+01 3.511550000000000171e+00 6.085569999999999702e+00 1.116133999999999915e+01 1.752580000000000027e+00 2.127810000000000201e+00 1.883946999999999861e+01 6.740000000000000331e-03 5.177830000000000155e+00 1.885476999999999848e+01 -1.740620000000000056e+00 8.232580000000000453e+00 1.883282000000000167e+01 5.290779999999999816e+00 2.127209999999999823e+00 1.883624000000000009e+01 3.520579999999999821e+00 5.169880000000000031e+00 1.883765999999999963e+01 1.760329999999999950e+00 8.230010000000000048e+00 1.884080000000000155e+01 8.789920000000000400e+00 2.123380000000000045e+00 1.883710999999999913e+01 7.042709999999999582e+00 5.190850000000000186e+00 1.885002000000000066e+01 5.276449999999999640e+00 8.218980000000000175e+00 1.883583000000000141e+01
2.697000000000000092e-02 2.035210000000000186e+00 9.352449999999999264e+00 -1.755470000000000086e+00 5.087579999999999991e+00 9.350789999999999935e+00 -3.522720000000000073e+00 8.134900000000000020e+00 9.333949999999999747e+00 3.519229999999999858e+00 2.032480000000000064e+00 9.337210000000000676e+00 1.749689999999999968e+00 5.079329999999999679e+00 9.338919999999999888e+00 8.499999999999999526e-04 8.123490000000000322e+00 9.345060000000000144e+00 7.038890000000000313e+00 2.028540000000000010e+00 9.354480000000000572e+00 5.275350000000000428e+00 5.081209999999999560e+00 9.355660000000000309e+00 3.523769999999999847e+00 8.130069999999999908e+00 9.368940000000000268e+00 9.419999999999999554e-03 1.114409999999999901e+00 1.703721000000000174e+01 -1.756440000000000001e+00 4.172410000000000174e+00 1.703584000000000032e+01 -3.519890000000000185e+00 7.229099999999999859e+00 1.702959999999999852e+01 3.512999999999999901e+00 1.109769999999999923e+00 1.703425000000000011e+01 1.768710000000000004e+00 4.172109999999999985e+00 1.701989999999999981e+01 -1.050000000000000065e-02 7.220200000000000173e+00 1.702061000000000135e+01 7.035829999999999806e+00 1.132060000000000066e+00 1.703292000000000073e+01 5.285009999999999764e+00 4.165449999999999875e+00 1.702013000000000176e+01 3.510650000000000048e+00 7.220049999999999635e+00 1.703639000000000081e+01 2.589999999999999854e-03 2.017049999999999788e+00 1.296368000000000009e+01 -1.758359999999999923e+00 5.087209999999999788e+00 1.297517000000000031e+01 -3.512049999999999894e+00 8.139079999999999870e+00 1.295425999999999966e+01 3.512970000000000148e+00 2.042300000000000004e+00 1.297624000000000066e+01 1.751370000000000093e+00 5.074259999999999771e+00 1.296818000000000026e+01 -9.360000000000000264e-03 8.142739999999999867e+00 1.297505999999999915e+01 7.034110000000000085e+00 2.035670000000000091e+00 1.296407999999999916e+01 5.275290000000000035e+00 5.073979999999999713e+00 1.297453999999999930e+01 3.526149999999999896e+00 8.121249999999999858e+00 1.295815999999999946e+01 5.570000000000000298e-03 1.112670000000000048e+00 2.065567000000000064e+01 -1.754040000000000044e+00 4.158920000000000172e+00 2.064170999999999978e+01 -3.527880000000000127e+00 7.212900000000000311e+00 2.065253999999999834e+01 3.507769999999999833e+00 1.121310000000000029e+00 2.064314999999999856e+01 1.757419999999999982e+00 4.163389999999999702e+00 2.064457000000000164e+01 4.510000000000000120e-03 7.203769999999999563e+00 2.065441999999999823e+01 7.045609999999999928e+00 1.109799999999999898e+00 2.065212000000000003e+01 5.284069999999999823e+00 4.167729999999999713e+00 2.065177999999999869e+01 3.514990000000000059e+00 7.213099999999999845e+00 2.065075999999999823e+01 1.055209999999999937e+01 5.429999999999999931e-03 1.114969999999999928e+01 -1.758580000000000032e+00 3.051419999999999799e+00 1.116750000000000043e+01 7.038219999999999921e+00 6.089319999999999844e+00 1.118072000000000088e+01 -1.755390000000000006e+00 9.143459999999999255e+00 1.115652000000000044e+01 1.755919999999999925e+00 3.060830000000000162e+00 1.116702000000000083e+01 -1.700000000000000122e-04 6.110219999999999985e+00 1.117428999999999917e+01 7.049450000000000216e+00 1.768000000000000127e-02 1.117308000000000057e+01 5.274090000000000167e+00 3.042339999999999822e+00 1.115872000000000064e+01 3.509459999999999802e+00 6.082799999999999763e+00 1.116186000000000078e+01 1.750790000000000068e+00 2.126399999999999846e+00 1.883911000000000158e+01 8.410000000000000808e-03 5.176779999999999937e+00 1.885797000000000168e+01 -1.736019999999999897e+00 8.232960000000000278e+00 1.883100999999999914e+01 5.293350000000000222e+00 2.125630000000000130e+00 1.883518000000000114e+01 3.520739999999999981e+00 5.166870000000000296e+00 1.883688000000000073e+01 1.760340000000000016e+00 8.229850000000000776e+00 1.884077999999999875e+01 8.787549999999999528e+00 2.120810000000000084e+00 1.883624000000000009e+01 7.043350000000000222e+00 5.192919999999999980e+00 1.885215000000000174e+01 5.275599999999999845e+00 8.216160000000000352e+00 1.883470000000000155e+01
3.221000000000000252e-02 2.035849999999999937e+00 9.353080000000000283e+00 -1.754599999999999937e+00 5.088940000000000019e+00 9.351210000000000022e+00 -3.523249999999999993e+00 8.135960000000000747e+00 9.331039999999999779e+00 3.519050000000000011e+00 2.032529999999999948e+00 9.334910000000000707e+00 1.747619999999999951e+00 5.079100000000000392e+00 9.336949999999999861e+00 1.100000000000000066e-03 8.122439999999999216e+00 9.344319999999999737e+00 7.038710000000000022e+00 2.027849999999999930e+00 9.355520000000000280e+00 5.274460000000000370e+00 5.081310000000000215e+00 9.356970000000000454e+00 3.524449999999999861e+00 8.130229999999999180e+00 9.372780000000000555e+00 1.119999999999999989e-02 1.113690000000000069e+00 1.703853000000000151e+01 -1.755740000000000078e+00 4.173630000000000173e+00 1.703698999999999941e+01 -3.519820000000000171e+00 7.231900000000000439e+00 1.702946999999999989e+01 3.511660000000000004e+00 1.108219999999999983e+00 1.703499000000000052e+01 1.770389999999999908e+00 4.173210000000000086e+00 1.701788000000000167e+01 -1.247000000000000018e-02 7.221210000000000129e+00 1.701870999999999867e+01 7.035020000000000273e+00 1.134779999999999900e+00 1.703332999999999942e+01 5.286059999999999981e+00 4.165280000000000094e+00 1.701817000000000135e+01 3.508789999999999853e+00 7.221049999999999969e+00 1.703754999999999953e+01 3.069999999999999812e-03 2.014100000000000001e+00 1.296254000000000062e+01 -1.758029999999999982e+00 5.088499999999999801e+00 1.297633000000000081e+01 -3.510530000000000150e+00 8.141090000000000160e+00 1.295124000000000031e+01 3.511579999999999924e+00 2.044270000000000032e+00 1.297749999999999915e+01 1.749649999999999928e+00 5.073070000000000412e+00 1.296798000000000073e+01 -1.115000000000000019e-02 8.145519999999999428e+00 1.297615000000000052e+01 7.032960000000000100e+00 2.036439999999999806e+00 1.296307999999999971e+01 5.274329999999999963e+00 5.072650000000000325e+00 1.297551999999999950e+01 3.527369999999999894e+00 8.119709999999999539e+00 1.295594000000000001e+01 6.599999999999999964e-03 1.111599999999999921e+00 2.065656999999999854e+01 -1.752899999999999903e+00 4.157449999999999868e+00 2.063994999999999891e+01 -3.529349999999999987e+00 7.212640000000000384e+00 2.065285000000000082e+01 3.505419999999999980e+00 1.121990000000000043e+00 2.064161000000000001e+01 1.756969999999999921e+00 4.162779999999999703e+00 2.064339000000000013e+01 5.409999999999999878e-03 7.201670000000000016e+00 2.065515999999999863e+01 7.046689999999999898e+00 1.108219999999999983e+00 2.065240000000000009e+01 5.284880000000000244e+00 4.167989999999999640e+00 2.065193999999999974e+01 3.513999999999999790e+00 7.212740000000000151e+00 2.065071999999999974e+01 1.055076999999999998e+01 6.450000000000000004e-03 1.114786999999999928e+01 -1.758240000000000025e+00 3.052039999999999864e+00 1.116900000000000048e+01 7.037849999999999717e+00 6.087959999999999816e+00 1.118464999999999954e+01 -1.754529999999999923e+00 9.143280000000000740e+00 1.115587000000000018e+01 1.755209999999999937e+00 3.063180000000000014e+00 1.116844000000000037e+01 -2.000000000000000096e-04 6.112800000000000011e+00 1.117709999999999937e+01 7.051120000000000054e+00 2.097999999999999865e-02 1.117567999999999984e+01 5.272910000000000430e+00 3.041199999999999903e+00 1.115859999999999985e+01 3.507390000000000008e+00 6.080049999999999955e+00 1.116234999999999999e+01 1.749030000000000085e+00 2.125039999999999818e+00 1.883875000000000099e+01 1.008000000000000042e-02 5.175769999999999982e+00 1.886100000000000065e+01 -1.731559999999999988e+00 8.233290000000000219e+00 1.882930999999999955e+01 5.295829999999999593e+00 2.124120000000000008e+00 1.883418999999999954e+01 3.520919999999999828e+00 5.163920000000000066e+00 1.883611000000000146e+01 1.760299999999999976e+00 8.229699999999999349e+00 1.884074999999999989e+01 8.785280000000000200e+00 2.118269999999999875e+00 1.883539999999999992e+01 7.043969999999999843e+00 5.194960000000000022e+00 1.885417999999999950e+01 5.274759999999999671e+00 8.213409999999999656e+00 1.883363999999999905e+01