-3.346702358000000004e+02
-3.346668661300000167e+02
-3.346575434299999756e+02
-3.346426737099999968e+02
-3.346230902199999946e+02
-3.345987111100000106e+02
-3.345703960600000073e+02
-3.345387385899999799e+02
-3.345041914700000234e+02
-3.344676501899999721e+02
-3.342592005600000107e+02
-3.342543343400000140e+02
-3.342475107899999784e+02
-3.342386918500000093e+02
-3.342280557000000272e+02
-3.342157544500000199e+02
-3.342018891999999823e+02
-3.341868116800000053e+02
-3.341705397299999731e+02
-3.341537585699999795e+02
-3.340093423999999800e+02
-3.340141237400000023e+02
-3.340170656700000222e+02
-3.340181690200000162e+02
-3.340176521899999784e+02
-3.340158634900000152e+02
-3.340129422699999964e+02
-3.340090682800000081e+02
-3.340046010899999942e+02
-3.339997093100000143e+02
-3.343446407100000215e+02
-3.343468041099999937e+02
-3.343437763599999926e+02
-3.343357060000000160e+02
-3.343228650500000185e+02
-3.343055394400000182e+02
-3.342844615299999873e+02
-3.342598268099999927e+02
-3.342324111899999934e+02
-3.342028043500000081e+02
-3.342749694600000225e+02
-3.342695449400000030e+02
-3.342608669300000201e+02
-3.342491432599999825e+02
-3.342345901099999992e+02
-3.342175178900000105e+02
-3.341984266599999955e+02
-3.341778535099999772e+02
-3.341564439399999742e+02
-3.341347624100000075e+02
-3.333969976199999792e+02
-3.333970782000000099e+02
-3.333969146000000023e+02
-3.333963039399999957e+02
-3.333955228600000282e+02
-3.333948230099999819e+02
-3.333945077999999853e+02
-3.333950235500000190e+02
-3.333969190199999844e+02
-3.334010735200000113e+02
-3.341270834900000182e+02
-3.341318923100000120e+02
-3.341343363799999793e+02
-3.341341540600000144e+02
-3.341316790999999853e+02
-3.341268346900000097e+02
-3.341200748699999963e+02
-3.341125485000000026e+02
-3.341046849100000031e+02
-3.340966969799999902e+02
-3.340176458799999750e+02
-3.340105539699999895e+02
-3.340013604299999770e+02
-3.339903183600000034e+02
-3.339782833500000265e+02
-3.339652991300000053e+02
-3.339519440299999928e+02
-3.339387276900000074e+02
-3.339264254199999868e+02
-3.339157347899999877e+02
-3.317596523000000275e+02
-3.317741875799999889e+02
-3.317980537500000082e+02
-3.318309444999999869e+02
-3.318725817299999790e+02
-3.319224522700000080e+02
-3.319799968400000125e+02
-3.320445505199999729e+02
-3.321151041800000030e+02
-3.321908384399999932e+02
-3.344258688499999721e+02
-3.344223508300000276e+02
-3.344136887500000057e+02
-3.344004988300000036e+02
-3.343828214999999773e+02
-3.343614198299999885e+02
-3.343368760700000166e+02
-3.343098178299999859e+02
-3.342811419500000056e+02
-3.342515335699999923e+02
-3.343387385500000164e+02
-3.343400458799999910e+02
-3.343373991999999930e+02
-3.343311924000000204e+02
-3.343214443900000106e+02
-3.343084334600000034e+02
-3.342924057700000162e+02
-3.342740345000000275e+02
-3.342543519399999923e+02
-3.342336372899999901e+02
-3.342103699900000038e+02
-3.342025900300000103e+02
-3.341883401800000115e+02
-3.341680344900000250e+02
-3.341422040900000070e+02
-3.341116809499999931e+02
-3.340773483699999815e+02
-3.340400559999999928e+02
-3.340008432899999775e+02
-3.339609993000000259e+02
-3.323592864999999961e+02
-3.323633083099999794e+02
-3.323660954299999730e+02
-3.323677309600000171e+02
-3.323685197400000106e+02
-3.323688650099999791e+02
-3.323689977199999817e+02
-3.323692946099999972e+02
-3.323701717100000224e+02
-3.323723124100000064e+02
-3.340498693100000196e+02
-3.340478330099999766e+02
-3.340426406400000019e+02
-3.340344898000000171e+02
-3.340236425800000006e+02
-3.340101703400000019e+02
-3.339945177199999762e+02
-3.339770374799999786e+02
-3.339583721000000196e+02
-3.339385784799999897e+02
-3.344414620900000159e+02
-3.344419060999999829e+02
-3.344371499499999913e+02
-3.344272089099999903e+02
-3.344125805599999808e+02
-3.343934894199999803e+02
-3.343707195100000149e+02
-3.343447739200000228e+02
-3.343163344299999835e+02
-3.342862789700000121e+02
-3.331061398900000086e+02
-3.331137729399999898e+02
-3.331221071699999925e+02
-3.331310423599999808e+02
-3.331406410100000244e+02
-3.331510161200000084e+02
-3.331622470500000190e+02
-3.331744987499999979e+02
-3.331877716899999768e+02
-3.332022166599999764e+02
-3.337884122699999807e+02
-3.337893083000000161e+02
-3.337870069699999931e+02
-3.337816897199999744e+02
-3.337734993099999770e+02
-3.337628465000000233e+02
-3.337503673300000173e+02
-3.337364360099999772e+02
-3.337218252700000107e+02
-3.337069226400000161e+02
-3.340777540199999862e+02
-3.340785144800000239e+02
-3.340758588300000156e+02
-3.340701113299999747e+02
-3.340613460700000132e+02
-3.340500663799999757e+02
-3.340366576600000030e+02
-3.340215625800000225e+02
-3.340051933899999881e+02
-3.339881783499999983e+02
-3.335380772199999910e+02
-3.335388287499999933e+02
-3.335360502799999836e+02
-3.335299141599999757e+02
-3.335204482699999744e+02
-3.335080551899999932e+02
-3.334929922200000192e+02
-3.334761256900000035e+02
-3.334579566400000203e+02
-3.334390547799999922e+02
-3.320104975400000171e+02
-3.320303421899999989e+02
-3.320574672299999861e+02
-3.320913532899999723e+02
-3.321314199600000165e+02
-3.321774367500000267e+02
-3.322288647799999808e+02
-3.322851100999999971e+02
-3.323457215299999916e+02
-3.324101038200000175e+02
-3.337352189299999736e+02
-3.337358658599999899e+02
-3.337343220700000188e+02
-3.337309136800000147e+02
-3.337257809700000166e+02
-3.337195024600000011e+02
-3.337124652800000035e+02
-3.337051019300000121e+02
-3.336976388100000008e+02
-3.336906915299999810e+02
-3.341690755600000102e+02
-3.341705018800000175e+02
-3.341682500499999833e+02
-3.341623818599999822e+02
-3.341530220000000213e+02
-3.341404203100000245e+02
-3.341250652900000091e+02
-3.341070819500000084e+02
-3.340870034999999802e+02
-3.340651796399999967e+02
-3.343395773699999722e+02
-3.343382246099999975e+02
-3.343316656499999908e+02
-3.343204943200000230e+02
-3.343051159099999836e+02
-3.342859078800000248e+02
-3.342631244300000048e+02
-3.342376153199999749e+02
-3.342101098699999966e+02
-3.341815115300000230e+02
-3.328909926300000279e+02
-3.329014009499999815e+02
-3.329173002699999984e+02
-3.329386758399999735e+02
-3.329657002899999725e+02
-3.329980160900000214e+02
-3.330354259100000149e+02
-3.330776103599999942e+02
-3.331243561699999987e+02
-3.331756324400000153e+02
-3.346018192999999883e+02
-3.345974010099999987e+02
-3.345883237900000040e+02
-3.345751627800000279e+02
-3.345582823199999893e+02
-3.345379381299999864e+02
-3.345147532899999874e+02
-3.344887121099999945e+02
-3.344606509800000254e+02
-3.344311454300000150e+02
-3.340713323499999774e+02
-3.340741019600000072e+02
-3.340737248500000192e+02
-3.340701857600000153e+02
-3.340636019300000044e+02
-3.340540491200000019e+02
-3.340420413400000257e+02
-3.340278395400000022e+02
-3.340119282100000078e+02
-3.339949151199999733e+02
-3.333686067200000025e+02
-3.333722800900000038e+02
-3.333743273800000111e+02
-3.333748830399999861e+02
-3.333740318100000195e+02
-3.333718136200000117e+02
-3.333684071700000118e+02
-3.333646467199999961e+02
-3.333609574199999770e+02
-3.333575958800000194e+02
-3.340802805399999897e+02
-3.340799702699999898e+02
-3.340774839800000109e+02
-3.340729452499999752e+02
-3.340664452600000232e+02
-3.340583012199999757e+02
-3.340488246699999877e+02
-3.340384841599999959e+02
-3.340277222700000266e+02
-3.340167870099999732e+02
-3.333513840800000025e+02
-3.333512338400000203e+02
-3.333477021400000240e+02
-3.333409795700000018e+02
-3.333314717299999757e+02
-3.333196973600000206e+02
-3.333062059299999760e+02
-3.332916727300000161e+02
-3.332767807100000255e+02
-3.332621352300000126e+02
-3.338107742099999768e+02
-3.338092942700000094e+02
-3.338045936699999743e+02
-3.337969136500000218e+02
-3.337862893399999962e+02
-3.337731358999999998e+02
-3.337578191100000140e+02
-3.337407904400000120e+02
-3.337224726000000032e+02
-3.337034281300000202e+02
-3.345688394399999765e+02
-3.345691154799999936e+02
-3.345632503599999836e+02
-3.345515611499999977e+02
-3.345345646299999771e+02
-3.345123382500000275e+02
-3.344856998800000270e+02
-3.344553795599999830e+02
-3.344226031800000101e+02
-3.343879266199999734e+02
-3.337348519500000066e+02
-3.337420945200000233e+02
-3.337468461299999944e+02
-3.337488118300000224e+02
-3.337483564799999840e+02
-3.337456074300000068e+02
-3.337406902100000252e+02
-3.337339656500000160e+02
-3.337258436399999937e+02
-3.337168983999999909e+02
-3.333751677299999869e+02
-3.333838451299999974e+02
-3.333944025600000032e+02
-3.334065389900000014e+02
-3.334203063900000075e+02
-3.334354871599999797e+02
-3.334519161000000054e+02
-3.334695337800000061e+02
-3.334882611900000029e+02
-3.335080173900000204e+02
-3.342658343800000011e+02
-3.342584669400000053e+02
-3.342477279500000122e+02
-3.342338243600000283e+02
-3.342171808599999849e+02
-3.341978440699999737e+02
-3.341766066399999886e+02
-3.341539620699999773e+02
-3.341302758100000005e+02
-3.341060559100000091e+02
-3.340095571800000016e+02
-3.340073470099999895e+02
-3.340003557499999829e+02
-3.339885822599999869e+02
-3.339727438799999959e+02
-3.339528258700000265e+02
-3.339298485499999742e+02
-3.339044361800000047e+02
-3.338772400400000038e+02
-3.338489886099999921e+02
-3.338504708099999903e+02
-3.338527562200000034e+02
-3.338501713499999823e+02
-3.338428875100000255e+02
-3.338310657499999934e+02
-3.338150484199999823e+02
-3.337954332300000146e+02
-3.337725063500000147e+02
-3.337470548200000167e+02
-3.337195571999999970e+02
-3.327632630699999936e+02
-3.327617337699999780e+02
-3.327549889499999836e+02
-3.327431545300000266e+02
-3.327268500299999801e+02
-3.327064351299999885e+02
-3.326827667200000178e+02
-3.326563819599999761e+02
-3.326283699900000101e+02
-3.325996025599999939e+02
-3.341097350100000085e+02
-3.341180448900000215e+02
-3.341232905900000105e+02
-3.341256852199999798e+02
-3.341253699600000004e+02
-3.341225493700000015e+02
-3.341173077000000262e+02
-3.341103527700000200e+02
-3.341017321499999753e+02
-3.340920970999999895e+02
-3.337614991400000122e+02
-3.337631761399999846e+02
-3.337598398700000075e+02
-3.337515050599999995e+02
-3.337385782000000063e+02
-3.337214321499999983e+02
-3.337006545300000084e+02
-3.336769531499999744e+02
-3.336509837099999913e+02
-3.336233778999999799e+02
-3.337335434199999895e+02
-3.337405260599999792e+02
-3.337429279599999745e+02
-3.337410857099999930e+02
-3.337346889099999885e+02
-3.337240914299999872e+02
-3.337096073999999817e+02
-3.336917666300000178e+02
-3.336709369199999742e+02
-3.336478053999999815e+02
-3.333394680399999856e+02
-3.333450501600000280e+02
-3.333505806200000166e+02
-3.333559764799999812e+02
-3.333610576899999955e+02
-3.333659762899999919e+02
-3.333709815700000263e+02
-3.333760273099999836e+02
-3.333818036600000028e+02
-3.333882362100000023e+02
-3.343055020400000217e+02
-3.343063400099999853e+02
-3.343024475099999790e+02
-3.342941525800000022e+02
-3.342816091000000256e+02
-3.342652880900000127e+02
-3.342456924699999945e+02
-3.342236329599999749e+02
-3.341996320100000162e+02
-3.341747484200000144e+02
-3.330104630800000223e+02
-3.330140273399999842e+02
-3.330221273199999814e+02
-3.330346842100000231e+02
-3.330512248300000238e+02
-3.330719887399999948e+02
-3.330967937699999766e+02
-3.331254615600000193e+02
-3.331577078799999754e+02
-3.331933163799999988e+02
-3.340178880999999933e+02
-3.340168272199999819e+02
-3.340109077899999761e+02
-3.340002884500000278e+02
-3.339852895999999873e+02
-3.339662267599999836e+02
-3.339435676699999931e+02
-3.339179595300000187e+02
-3.338899126900000169e+02
-3.338601270400000089e+02
-3.339343353500000262e+02
-3.339308942999999772e+02
-3.339245893400000114e+02
-3.339155058000000054e+02
-3.339039272300000221e+02
-3.338900237700000275e+02
-3.338741461600000093e+02
-3.338565550600000051e+02
-3.338377965700000232e+02
-3.338182025599999747e+02
-3.337205726099999765e+02
-3.337093285000000265e+02
-3.336971945799999730e+02
-3.336846734399999832e+02
-3.336717138500000033e+02
-3.336585484999999949e+02
-3.336454652599999804e+02
-3.336327532399999996e+02
-3.336207336699999928e+02
-3.336095442100000241e+02
-3.344643110800000159e+02
-3.344612785400000234e+02
-3.344538323599999785e+02
-3.344423584699999878e+02
-3.344274436800000103e+02
-3.344090643900000259e+02
-3.343879064500000027e+02
-3.343641281299999832e+02
-3.343382899299999735e+02
-3.343108455799999774e+02
-3.341323778799999786e+02
-3.341331484500000215e+02
-3.341295989800000257e+02
-3.341216327899999783e+02
-3.341097116600000163e+02
-3.340943785200000207e+02
-3.340757226599999967e+02
-3.340543479699999807e+02
-3.340306997000000138e+02
-3.340052316399999768e+02
-3.341974434300000212e+02
-3.341882125100000280e+02
-3.341767680400000131e+02
-3.341632006599999727e+02
-3.341480714699999908e+02
-3.341317911699999854e+02
-3.341143383699999845e+02
-3.340963114400000222e+02
-3.340782424299999889e+02
-3.340605796899999973e+02
-3.336259126200000082e+02
-3.336346359400000097e+02
-3.336414670400000091e+02
-3.336462681200000020e+02
-3.336488036399999828e+02
-3.336493670400000155e+02
-3.336478613599999790e+02
-3.336445264800000245e+02
-3.336394995599999902e+02
-3.336329405600000086e+02
-3.337040915700000028e+02
-3.337039913099999922e+02
-3.337007293500000173e+02
-3.336942003999999997e+02
-3.336847091600000113e+02
-3.336727202000000148e+02
-3.336586966500000244e+02
-3.336431154399999741e+02
-3.336262565700000096e+02
-3.336092136299999993e+02
-3.340201659300000188e+02
-3.340157176000000163e+02
-3.340067755800000100e+02
-3.339937192699999855e+02
-3.339767536100000029e+02
-3.339564048600000206e+02
-3.339333768100000270e+02
-3.339082525200000191e+02
-3.338818055599999752e+02
-3.338547271300000148e+02
-3.314610407499999951e+02
-3.314807180600000152e+02
-3.315120408700000212e+02
-3.315544777999999724e+02
-3.316070481099999938e+02
-3.316697671599999921e+02
-3.317416524500000037e+02
-3.318216615900000193e+02
-3.319087144599999988e+02
-3.320011541800000145e+02
-3.336834571599999890e+02
-3.336825272599999721e+02
-3.336774494599999912e+02
-3.336682282500000269e+02
-3.336555573100000061e+02
-3.336398729800000069e+02
-3.336215144999999893e+02
-3.336010543099999950e+02
-3.335791463900000053e+02
-3.335565648699999883e+02
-3.340668615700000146e+02
-3.340683384800000226e+02
-3.340661676400000033e+02
-3.340603622200000018e+02
-3.340511782400000129e+02
-3.340391643400000135e+02
-3.340247661000000221e+02
-3.340085060200000271e+02
-3.339908037399999898e+02
-3.339719662699999958e+02
-3.336915519300000028e+02
-3.336877232900000081e+02
-3.336836439100000007e+02
-3.336794189999999958e+02
-3.336751405499999805e+02
-3.336713555800000108e+02
-3.336682015200000251e+02
-3.336659592500000144e+02
-3.336650743800000214e+02
-3.336656744000000003e+02
-3.340358979700000077e+02
-3.340367452899999989e+02
-3.340343307100000061e+02
-3.340288408399999867e+02
-3.340200191399999881e+02
-3.340082199500000115e+02
-3.339938998299999753e+02
-3.339771304600000121e+02
-3.339585578100000021e+02
-3.339385976099999880e+02
-3.335338420499999756e+02
-3.335392355500000008e+02
-3.335448268299999768e+02
-3.335507012699999905e+02
-3.335570474699999863e+02
-3.335641163500000062e+02
-3.335720664400000146e+02
-3.335815500799999995e+02
-3.335927413900000147e+02
-3.336060592900000188e+02
-3.344903165599999966e+02
-3.344864587700000129e+02
-3.344778214099999900e+02
-3.344645068899999956e+02
-3.344464344500000266e+02
-3.344244380999999748e+02
-3.343992947799999911e+02
-3.343715279699999883e+02
-3.343422565700000177e+02
-3.343113949400000138e+02
-3.338153196800000160e+02
-3.338195175500000005e+02
-3.338203725700000177e+02
-3.338180516499999726e+02
-3.338127130600000214e+02
-3.338048223999999777e+02
-3.337946518399999718e+02
-3.337826951900000267e+02
-3.337697936399999890e+02
-3.337561153600000239e+02
-3.324515352500000063e+02
-3.324638321699999892e+02
-3.324780462400000260e+02
-3.324940944300000183e+02
-3.325119464800000060e+02
-3.325315653399999860e+02
-3.325528025699999830e+02
-3.325762244900000155e+02
-3.326014903000000231e+02
-3.326288180700000225e+02
-3.340932204299999739e+02
-3.340903870700000198e+02
-3.340847411299999976e+02
-3.340766647300000045e+02
-3.340663756100000228e+02
-3.340543595500000151e+02
-3.340412834200000134e+02
-3.340273548700000106e+02
-3.340131316000000083e+02
-3.339990270700000110e+02
-3.345060859800000230e+02
-3.345109944399999904e+02
-3.345110418400000185e+02
-3.345061067899999898e+02
-3.344963957800000003e+02
-3.344826534599999945e+02
-3.344651042500000244e+02
-3.344441680400000223e+02
-3.344204938999999968e+02
-3.343952195499999789e+02
-3.332393207700000062e+02
-3.332407339499999921e+02
-3.332383947700000135e+02
-3.332325112600000239e+02
-3.332234591199999727e+02
-3.332119504400000096e+02
-3.331987553199999752e+02
-3.331840634800000203e+02
-3.331687886400000025e+02
-3.331536046400000259e+02
-3.318839725799999769e+02
-3.319203777500000001e+02
-3.319654966400000262e+02
-3.320184904399999937e+02
-3.320785531399999968e+02
-3.321448720299999877e+02
-3.322165400200000249e+02
-3.322925069199999939e+02
-3.323715326199999822e+02
-3.324527832900000135e+02
-3.340776291600000150e+02
-3.340796798399999830e+02
-3.340775905699999839e+02
-3.340715166100000033e+02
-3.340618890399999827e+02
-3.340491208000000256e+02
-3.340334803100000158e+02
-3.340158627299999807e+02
-3.339964105700000232e+02
-3.339758281200000170e+02
-3.341512865700000248e+02
-3.341528327500000159e+02
-3.341500738600000204e+02
-3.341428608900000086e+02
-3.341315021099999854e+02
-3.341168923000000177e+02
-3.340990462400000069e+02
-3.340783774700000208e+02
-3.340554878600000279e+02
-3.340313230599999770e+02
-3.332515570200000070e+02
-3.332525455100000045e+02
-3.332560021799999959e+02
-3.332619755299999724e+02
-3.332705307800000014e+02
-3.332817390199999750e+02
-3.332959162099999730e+02
-3.333127009699999803e+02
-3.333322891700000241e+02
-3.333544260599999802e+02
-3.338135922000000164e+02
-3.338146051800000009e+02
-3.338146790200000282e+02
-3.338139226100000201e+02
-3.338125223800000185e+02
-3.338106878500000221e+02
-3.338085665799999902e+02
-3.338064944000000196e+02
-3.338047094799999854e+02
-3.338038154199999781e+02
-3.336396296899999925e+02
-3.336332864299999983e+02
-3.336245066100000258e+02
-3.336136611700000003e+02
-3.336010362999999757e+02
-3.335870159899999976e+02
-3.335719350800000029e+02
-3.335562921200000233e+02
-3.335404637299999990e+02
-3.335250262499999963e+02
-3.341736435999999912e+02
-3.341774957700000073e+02
-3.341779746999999929e+02
-3.341749003300000140e+02
-3.341682980400000247e+02
-3.341582286299999964e+02
-3.341450545899999724e+02
-3.341292429000000084e+02
-3.341111393099999987e+02
-3.340912072599999760e+02
-3.343675567000000228e+02
-3.343669792700000016e+02
-3.343617562000000021e+02
-3.343517284600000039e+02
-3.343371704900000054e+02
-3.343186073200000124e+02
-3.342968304999999987e+02
-3.342725275299999907e+02
-3.342463216799999941e+02
-3.342190298599999778e+02
-3.330570183099999895e+02
-3.330611684699999842e+02
-3.330612398499999927e+02
-3.330573673399999848e+02
-3.330496478599999932e+02
-3.330384369000000220e+02
-3.330242442900000128e+02
-3.330075242300000014e+02
-3.329886041199999909e+02
-3.329684731199999987e+02
-3.343339184600000067e+02
-3.343287167500000123e+02
-3.343197402200000283e+02
-3.343067563100000257e+02
-3.342901792499999942e+02
-3.342702325000000201e+02
-3.342477072400000111e+02
-3.342230849300000273e+02
-3.341967592799999807e+02
-3.341692869999999971e+02
-3.335461073700000156e+02
-3.335525175500000046e+02
-3.335588643300000058e+02
-3.335652550500000189e+02
-3.335718079700000089e+02
-3.335787550499999838e+02
-3.335863987399999928e+02
-3.335948814500000026e+02
-3.336047192799999834e+02
-3.336158613200000218e+02
-3.343597328100000254e+02
-3.343633074200000124e+02
-3.343623428000000217e+02
-3.343569496900000217e+02
-3.343474606500000164e+02
-3.343343774900000085e+02
-3.343178158299999723e+02
-3.342984551900000270e+02
-3.342765788799999882e+02
-3.342530095600000095e+02
-3.337741014499999892e+02
-3.337722757899999806e+02
-3.337664012000000184e+02
-3.337565324899999837e+02
-3.337431237700000111e+02
-3.337266549899999859e+02
-3.337076147999999876e+02
-3.336866414300000088e+02
-3.336644846400000120e+02
-3.336413943800000084e+02
-3.334803745599999729e+02
-3.335022860799999762e+02
-3.335252707299999884e+02
-3.335486524099999883e+02
-3.335722640999999840e+02
-3.335959187500000098e+02
-3.336195213699999726e+02
-3.336428278500000033e+02
-3.336655282500000226e+02
-3.336875079399999890e+02
-3.340215988499999753e+02
-3.340178343200000199e+02
-3.340121884199999727e+02
-3.340046748600000228e+02
-3.339959466899999825e+02
-3.339861603900000091e+02
-3.339755172299999799e+02
-3.339646187199999758e+02
-3.339536073200000033e+02
-3.339431604000000107e+02
-3.334784285999999724e+02
-3.334714269899999977e+02
-3.334621254099999987e+02
-3.334507125499999916e+02
-3.334372982300000103e+02
-3.334225893999999926e+02
-3.334072275699999750e+02
-3.333919617199999834e+02
-3.333776224000000070e+02
-3.333650961700000153e+02
-3.337768056200000046e+02
-3.337859496199999967e+02
-3.337925379700000121e+02
-3.337965019399999846e+02
-3.337980781699999966e+02
-3.337977118399999767e+02
-3.337957153500000231e+02
-3.337925390199999924e+02
-3.337889513999999735e+02
-3.337855948800000192e+02
-3.336356052300000101e+02
-3.336256448099999830e+02
-3.336129290900000228e+02
-3.335980524299999956e+02
-3.335812442700000133e+02
-3.335631256699999767e+02
-3.335439974199999824e+02
-3.335246522499999742e+02
-3.335056475900000237e+02
-3.334875481199999854e+02
-3.338903157799999804e+02
-3.338904592000000093e+02
-3.338854455200000189e+02
-3.338752026799999726e+02
-3.338601244199999769e+02
-3.338406073699999865e+02
-3.338172761800000217e+02
-3.337906242099999758e+02
-3.337613642200000186e+02
-3.337300677900000210e+02
-3.334506166400000211e+02
-3.334490759199999843e+02
-3.334494246799999928e+02
-3.334515741600000069e+02
-3.334555117200000041e+02
-3.334610898199999838e+02
-3.334685072799999830e+02
-3.334775703899999826e+02
-3.334883418900000152e+02
-3.335008106799999723e+02
-3.339615906299999892e+02
-3.339698114999999916e+02
-3.339745578700000124e+02
-3.339757790799999952e+02
-3.339733881999999880e+02
-3.339676338099999953e+02
-3.339586157400000275e+02
-3.339464863599999944e+02
-3.339318560199999979e+02
-3.339152443300000073e+02
-3.335470002399999885e+02
-3.335518673999999919e+02
-3.335548719399999982e+02
-3.335558512299999734e+02
-3.335551086799999894e+02
-3.335528092100000208e+02
-3.335495271600000251e+02
-3.335456829899999889e+02
-3.335413592799999947e+02
-3.335368642099999761e+02
-3.338836403600000153e+02
-3.338824306399999955e+02
-3.338791425399999753e+02
-3.338737636899999757e+02
-3.338665265899999781e+02
-3.338577330900000106e+02
-3.338478345600000239e+02
-3.338369964500000151e+02
-3.338257511400000226e+02
-3.338145300699999893e+02
-3.341477286900000081e+02
-3.341427778500000159e+02
-3.341328203099999996e+02
-3.341184412599999973e+02
-3.341000886200000082e+02
-3.340780582599999775e+02
-3.340532067400000074e+02
-3.340264217700000131e+02
-3.339982660599999917e+02
-3.339697648100000151e+02
-3.345288332299999752e+02
-3.345306912500000180e+02
-3.345267276899999729e+02
-3.345173946300000125e+02
-3.345034431199999858e+02
-3.344851527499999975e+02
-3.344631725599999754e+02
-3.344381671799999936e+02
-3.344110698800000137e+02
-3.343826069599999755e+02
-3.340402104799999847e+02
-3.340424548299999969e+02
-3.340430601699999897e+02
-3.340419442300000128e+02
-3.340394596400000182e+02
-3.340356835399999795e+02
-3.340309468599999718e+02
-3.340252992299999732e+02
-3.340190835199999810e+02
-3.340127833799999735e+02
-3.340290394699999865e+02
-3.340300219200000242e+02
-3.340291434600000002e+02
-3.340261237700000265e+02
-3.340211191099999724e+02
-3.340144299799999885e+02
-3.340062316400000100e+02
-3.339964898399999811e+02
-3.339856799899999942e+02
-3.339741829899999743e+02
-3.334469253299999991e+02
-3.334566524300000196e+02
-3.334674028000000021e+02
-3.334791803100000038e+02
-3.334917134500000202e+02
-3.335051179499999989e+02
-3.335190843600000221e+02
-3.335336953199999925e+02
-3.335490964499999791e+02
-3.335651236599999834e+02
-3.341102719300000103e+02
-3.341171592300000270e+02
-3.341197483199999851e+02
-3.341186107699999752e+02
-3.341136763999999744e+02
-3.341051716399999805e+02
-3.340938310700000216e+02
-3.340798641999999745e+02
-3.340639438599999949e+02
-3.340467936900000154e+02
-3.311222764299999994e+02
-3.311197300900000187e+02
-3.311305074499999819e+02
-3.311546466899999928e+02
-3.311918776300000218e+02
-3.312418946999999889e+02
-3.313041403600000194e+02
-3.313776842299999998e+02
-3.314610156100000040e+02
-3.315525981200000274e+02
-3.338621590399999945e+02
-3.338573739099999784e+02
-3.338475841800000126e+02
-3.338331619400000250e+02
-3.338146345299999780e+02
-3.337922865200000047e+02
-3.337663770099999851e+02
-3.337377120200000036e+02
-3.337067920100000151e+02
-3.336742043799999919e+02
-3.318683680500000150e+02
-3.318704872700000124e+02
-3.318779102500000135e+02
-3.318908452900000157e+02
-3.319090402599999834e+02
-3.319326383599999986e+02
-3.319617366400000265e+02
-3.319963647299999820e+02
-3.320365097900000251e+02
-3.320817240900000229e+02
-3.333673330299999975e+02
-3.333811831200000029e+02
-3.333964865500000201e+02
-3.334126480499999730e+02
-3.334296421199999827e+02
-3.334473026699999991e+02
-3.334658837000000062e+02
-3.334854891499999781e+02
-3.335060240700000236e+02
-3.335282570499999792e+02
-3.339391615800000181e+02
-3.339404276899999786e+02
-3.339395438099999751e+02
-3.339363049300000057e+02
-3.339313228500000150e+02
-3.339250962699999832e+02
-3.339178473599999961e+02
-3.339101212300000157e+02
-3.339024931700000138e+02
-3.338955599999999890e+02
-3.338178625200000056e+02
-3.338126668699999868e+02
-3.338051863800000092e+02
-3.337953236299999844e+02
-3.337835285900000031e+02
-3.337703994400000056e+02
-3.337564425900000060e+02
-3.337421215699999948e+02
-3.337278866699999753e+02
-3.337142840299999875e+02
-3.345192196699999840e+02
-3.345116736100000026e+02
-3.344987828600000057e+02
-3.344809242700000027e+02
-3.344583353699999861e+02
-3.344318480700000009e+02
-3.344019750799999997e+02
-3.343692045799999732e+02
-3.343346152400000051e+02
-3.342988015899999823e+02
