2.199999999999999943e-05 -1.219000000000000031e-03 -1.049300000000000059e-02 1.599999999999999928e-05 -1.224000000000000045e-03 -1.048999999999999932e-02 2.199999999999999943e-05 -1.229000000000000058e-03 -1.049199999999999959e-02 6.000000000000000152e-06 -1.227999999999999925e-03 -1.047700000000000020e-02 1.299999999999999920e-05 -1.232000000000000022e-03 -1.047299999999999967e-02 1.000000000000000082e-05 -1.229000000000000058e-03 -1.047599999999999920e-02 -6.000000000000000152e-06 -1.240000000000000000e-03 -1.049300000000000059e-02 -7.999999999999999638e-06 -1.234999999999999987e-03 -1.048900000000000006e-02 -1.099999999999999971e-05 -1.244000000000000097e-03 -1.048900000000000006e-02 -6.000000000000000152e-06 -2.662799999999999889e-02 -1.129699999999999975e-02 -6.999999999999999895e-06 -2.662700000000000136e-02 -1.129800000000000075e-02 -9.000000000000000228e-06 -2.663199999999999942e-02 -1.129999999999999928e-02 1.500000000000000038e-05 -2.661200000000000024e-02 -1.130399999999999981e-02 1.699999999999999987e-05 -2.661600000000000077e-02 -1.130300000000000055e-02 2.300000000000000002e-05 -2.661499999999999977e-02 -1.130300000000000055e-02 1.299999999999999920e-05 -2.662399999999999836e-02 -1.128799999999999942e-02 1.200000000000000030e-05 -2.661600000000000077e-02 -1.128799999999999942e-02 7.999999999999999638e-06 -2.661600000000000077e-02 -1.128599999999999916e-02 2.500000000000000120e-05 2.818800000000000125e-02 1.133200000000000006e-02 1.599999999999999928e-05 2.818299999999999972e-02 1.132999999999999979e-02 2.300000000000000002e-05 2.817800000000000166e-02 1.133200000000000006e-02 5.000000000000000409e-06 2.817800000000000166e-02 1.131700000000000067e-02 1.399999999999999979e-05 2.817199999999999913e-02 1.131300000000000014e-02 9.000000000000000228e-06 2.817800000000000166e-02 1.131599999999999967e-02 -7.999999999999999638e-06 2.816600000000000006e-02 1.133299999999999932e-02 -7.999999999999999638e-06 2.817000000000000060e-02 1.132900000000000053e-02 -1.000000000000000082e-05 2.816099999999999853e-02 1.132999999999999979e-02 -5.000000000000000409e-06 4.270000000000000249e-04 1.059000000000000045e-02 -6.000000000000000152e-06 4.260000000000000006e-04 1.059200000000000072e-02 -7.999999999999999638e-06 4.240000000000000062e-04 1.059299999999999999e-02 1.500000000000000038e-05 4.409999999999999858e-04 1.059500000000000025e-02 1.500000000000000038e-05 4.380000000000000213e-04 1.059599999999999952e-02 2.199999999999999943e-05 4.400000000000000157e-04 1.059500000000000025e-02 1.200000000000000030e-05 4.319999999999999838e-04 1.058100000000000013e-02 1.200000000000000030e-05 4.360000000000000269e-04 1.058100000000000013e-02 6.999999999999999895e-06 4.389999999999999914e-04 1.057899999999999986e-02 -1.299999999999999920e-05 9.218000000000000499e-03 -6.059999999999999849e-04 -9.000000000000000228e-06 9.221999999999999295e-03 -6.080000000000000335e-04 -9.000000000000000228e-06 9.216999999999999499e-03 -6.089999999999999494e-04 -3.999999999999999819e-06 9.218000000000000499e-03 -6.149999999999999868e-04 -7.999999999999999638e-06 9.225000000000000561e-03 -6.170000000000000354e-04 -6.999999999999999895e-06 9.220000000000000764e-03 -6.139999999999999625e-04 -2.699999999999999899e-05 9.204999999999999641e-03 -6.160000000000000111e-04 -2.799999999999999958e-05 9.211999999999999703e-03 -6.130000000000000466e-04 -2.900000000000000017e-05 9.209000000000000172e-03 -6.170000000000000354e-04 -1.399999999999999979e-05 -9.922999999999999529e-03 3.809999999999999910e-04 -1.200000000000000030e-05 -9.922000000000000264e-03 3.770000000000000022e-04 -1.200000000000000030e-05 -9.922000000000000264e-03 3.800000000000000209e-04 -6.999999999999999895e-06 -9.917999999999999733e-03 3.849999999999999798e-04 -6.000000000000000152e-06 -9.917000000000000468e-03 3.840000000000000097e-04 -3.000000000000000076e-06 -9.919999999999999998e-03 3.890000000000000228e-04 -2.300000000000000002e-05 -9.933000000000000856e-03 3.869999999999999742e-04 -2.799999999999999958e-05 -9.929999999999999591e-03 3.860000000000000041e-04 -2.900000000000000017e-05 -9.929000000000000326e-03 3.820000000000000153e-04
-5.226399999999999796e-02 1.399899999999999929e-02 -1.534300000000000073e-02 -1.079100000000000024e-02 -6.433999999999999615e-03 2.151499999999999940e-02 4.373000000000000151e-03 -3.224599999999999689e-02 3.919899999999999773e-02 -6.790000000000000029e-03 1.170000000000000033e-03 2.344999999999999862e-02 -1.833999999999999910e-03 1.293599999999999958e-02 1.720700000000000007e-02 2.341299999999999978e-02 2.174200000000000091e-02 1.853199999999999986e-02 1.271000000000000081e-02 1.634499999999999842e-02 -1.610299999999999926e-02 1.232100000000000035e-02 -5.529000000000000060e-03 -4.676999999999999734e-03 -2.387299999999999839e-02 -1.069100000000000085e-02 -4.474600000000000105e-02 -3.283599999999999713e-02 -3.388800000000000145e-02 -3.127400000000000319e-02 -2.309999999999999987e-03 -3.160099999999999715e-02 3.425999999999999792e-03 1.281999999999999980e-02 -5.383700000000000291e-02 -7.695999999999999716e-03 1.978800000000000003e-02 -2.340000000000000066e-03 -2.574900000000000105e-02 -2.293500000000000053e-02 -4.594600000000000073e-02 1.141799999999999933e-02 4.055000000000000271e-02 -5.730600000000000277e-02 5.965999999999999949e-03 7.896999999999999506e-03 -6.595700000000000174e-02 -4.533399999999999930e-02 1.238599999999999944e-02 -2.472200000000000092e-02 1.791699999999999890e-02 5.433999999999999594e-03 -5.136299999999999893e-02 -2.915200000000000083e-02 -1.039699999999999999e-02 5.217299999999999716e-02 3.423099999999999754e-02 2.139999999999999975e-03 1.339899999999999945e-02 3.138200000000000017e-02 -2.314799999999999844e-02 2.240400000000000030e-02 3.742600000000000093e-02 5.615000000000000199e-03 7.022999999999999729e-03 -2.554999999999999979e-03 1.588000000000000002e-03 4.957899999999999807e-02 4.595300000000000079e-02 2.542600000000000068e-02 3.098199999999999912e-02 2.017299999999999996e-02 9.464000000000000190e-03 4.401599999999999957e-02 4.967400000000000287e-02 -5.257000000000000388e-03 2.533099999999999935e-02 1.756200000000000122e-02 -4.870000000000000197e-03 3.156599999999999684e-02 4.323099999999999860e-02 -2.677600000000000119e-02 -1.333100000000000084e-02 -1.054800000000000008e-02 -1.506399999999999927e-02 -5.708000000000000400e-03 3.459600000000000175e-02 3.524900000000000255e-02 2.348899999999999946e-02 6.870000000000000022e-04 3.382399999999999990e-02 -8.892999999999999863e-03 1.146299999999999923e-02 1.879499999999999921e-02 -1.448400000000000035e-02 3.657200000000000034e-02 1.016999999999999892e-03 2.178099999999999828e-02 1.629399999999999946e-02 -1.294400000000000064e-02 2.484999999999999796e-03 2.153100000000000153e-02 -1.386000000000000079e-03 -1.729999999999999941e-02 3.742000000000000100e-03 5.067000000000000323e-03 -1.926800000000000040e-02 2.961000000000000090e-03 5.957699999999999801e-02 -1.110599999999999955e-02 1.327599999999999961e-02 1.299200000000000008e-02 9.964999999999999900e-03 -4.269300000000000178e-02 -2.037999999999999881e-03 4.184800000000000325e-02 -9.568300000000000416e-02 -1.416099999999999998e-02 4.588300000000000017e-02 -2.899499999999999994e-02 2.595099999999999837e-02 -2.641500000000000098e-02 -3.952800000000000064e-02 1.984999999999999785e-03 -1.661100000000000076e-02 -5.461499999999999688e-02 -5.290799999999999670e-02 -5.139099999999999918e-02 -4.574000000000000288e-02 1.252000000000000075e-03 2.296000000000000124e-02 -7.839999999999999747e-03 9.516999999999999418e-03 2.226200000000000054e-02 -1.298299999999999975e-02 2.190800000000000039e-02 2.796399999999999927e-02 -6.615000000000000220e-03 -4.094999999999999682e-03 1.622600000000000084e-02 -9.806800000000000239e-02 -8.264299999999999424e-02 -3.682900000000000063e-02 6.189000000000000057e-02 -4.399000000000000132e-02 2.504800000000000082e-02 2.999999999999999889e-02 6.374000000000000325e-03 2.651500000000000037e-02 3.488999999999999914e-03 -2.618300000000000141e-02 -1.998999999999999909e-03 -7.642999999999999620e-03 5.194200000000000206e-02 1.234099999999999954e-02 1.856500000000000164e-02 -1.245100000000000026e-02 -2.921800000000000092e-02 -5.841400000000000065e-02 1.048600000000000053e-02 3.364500000000000129e-02 3.760199999999999654e-02
-1.040890000000000010e-01 2.888599999999999848e-02 -2.071599999999999830e-02 -2.157099999999999990e-02 -1.171400000000000045e-02 5.277400000000000146e-02 8.685000000000000012e-03 -6.206400000000000111e-02 8.726000000000000423e-02 -1.324999999999999963e-02 3.441000000000000048e-03 5.648000000000000242e-02 -3.246000000000000187e-03 2.695699999999999832e-02 4.441500000000000309e-02 4.609800000000000009e-02 4.441200000000000009e-02 4.670900000000000052e-02 2.537400000000000072e-02 3.379900000000000265e-02 -2.205199999999999869e-02 2.441199999999999967e-02 -9.707999999999999616e-03 8.750000000000000182e-04 -4.815099999999999936e-02 -2.045500000000000096e-02 -7.906900000000000039e-02 -6.570900000000000352e-02 -4.123199999999999782e-02 -5.140100000000000224e-02 -4.647000000000000089e-03 -3.662399999999999683e-02 1.775499999999999995e-02 2.556999999999999898e-02 -8.079000000000000070e-02 -4.346000000000000037e-03 3.933500000000000191e-02 2.207900000000000140e-02 -4.031599999999999767e-02 -4.550900000000000084e-02 -6.510699999999999821e-02 3.350700000000000206e-02 8.105099999999999805e-02 -8.733399999999999497e-02 2.195099999999999829e-02 1.597799999999999915e-02 -1.053550000000000042e-01 -7.993000000000000105e-02 2.433099999999999846e-02 -2.273000000000000020e-02 4.663699999999999790e-02 1.089399999999999917e-02 -7.599699999999999511e-02 -4.703899999999999748e-02 -2.071999999999999884e-02 7.616799999999999959e-02 5.698299999999999893e-02 4.281000000000000083e-03 -1.405999999999999915e-03 5.128900000000000126e-02 -4.623700000000000032e-02 1.656900000000000039e-02 6.350999999999999701e-02 1.110300000000000002e-02 -1.393699999999999974e-02 -1.616700000000000081e-02 3.278000000000000098e-03 7.106400000000000217e-02 8.067000000000000559e-02 5.060200000000000115e-02 3.372399999999999703e-02 2.900700000000000153e-02 1.901699999999999918e-02 6.011699999999999683e-02 8.802400000000000502e-02 -1.058000000000000086e-02 2.263799999999999840e-02 2.367700000000000013e-02 -9.606999999999999221e-03 3.481000000000000066e-02 7.482900000000000662e-02 -5.306899999999999812e-02 -2.686399999999999899e-02 -3.123099999999999835e-02 -3.026099999999999970e-02 -1.193800000000000069e-02 5.849300000000000332e-02 6.963900000000000645e-02 4.612000000000000127e-02 -8.260999999999999246e-03 6.735499999999999821e-02 -1.824599999999999833e-02 1.261600000000000048e-02 3.792899999999999744e-02 -2.962400000000000103e-02 6.270699999999999885e-02 1.962000000000000202e-03 4.317900000000000210e-02 2.221199999999999911e-02 -2.584799999999999945e-02 4.527999999999999907e-03 3.255600000000000160e-02 -2.798999999999999839e-03 -3.473400000000000098e-02 -2.848999999999999970e-03 1.007199999999999936e-02 -3.876700000000000285e-02 -4.629000000000000302e-03 1.189270000000000049e-01 -3.107999999999999999e-02 2.734400000000000025e-02 2.574299999999999852e-02 1.077400000000000059e-02 -8.373899999999999400e-02 -4.291999999999999808e-03 7.336199999999999666e-02 -1.886200000000000099e-01 -2.783400000000000110e-02 8.213299999999999768e-02 -5.724300000000000221e-02 5.145799999999999680e-02 -6.167899999999999772e-02 -7.764300000000000368e-02 3.825999999999999974e-03 -4.179700000000000082e-02 -1.076050000000000062e-01 -1.047759999999999941e-01 -1.115099999999999980e-01 -9.008099999999999441e-02 2.373000000000000109e-03 3.661099999999999771e-02 -1.488599999999999993e-02 1.897199999999999928e-02 3.511000000000000232e-02 -2.511100000000000138e-02 4.357300000000000062e-02 6.546100000000000529e-02 -1.317499999999999921e-02 -8.259999999999999981e-03 4.189799999999999774e-02 -1.954039999999999944e-01 -1.640050000000000119e-01 -6.308400000000000118e-02 1.227239999999999998e-01 -8.784000000000000141e-02 5.979399999999999993e-02 5.965600000000000069e-02 1.279500000000000082e-02 6.237399999999999889e-02 6.512000000000000427e-03 -5.202099999999999780e-02 5.839999999999999705e-03 -1.538300000000000084e-02 1.035599999999999993e-01 3.432299999999999934e-02 3.664499999999999702e-02 -2.463600000000000165e-02 -4.852499999999999869e-02 -1.163740000000000052e-01 2.072099999999999984e-02 7.663200000000000567e-02 7.440499999999999892e-02
-1.552479999999999971e-01 4.326300000000000284e-02 -2.675599999999999853e-02 -3.215699999999999809e-02 -1.695500000000000132e-02 8.323300000000000143e-02 1.293399999999999932e-02 -9.052000000000000324e-02 1.335919999999999885e-01 -1.924500000000000169e-02 5.699000000000000073e-03 8.852699999999999458e-02 -4.317999999999999790e-03 4.073899999999999744e-02 7.117600000000000315e-02 6.787799999999999390e-02 6.656800000000000217e-02 7.390599999999999947e-02 3.773699999999999971e-02 5.109999999999999959e-02 -2.811200000000000157e-02 3.623099999999999932e-02 -1.394800000000000033e-02 6.024999999999999974e-03 -7.262499999999999512e-02 -3.040999999999999953e-02 -1.137119999999999936e-01 -9.854799999999999671e-02 -4.867699999999999805e-02 -7.169799999999999784e-02 -6.912999999999999874e-03 -4.171099999999999808e-02 3.159499999999999809e-02 3.812000000000000111e-02 -1.073729999999999962e-01 -1.231000000000000106e-03 5.881999999999999729e-02 4.649999999999999967e-02 -5.485600000000000198e-02 -6.770700000000000329e-02 -8.388900000000000523e-02 5.489800000000000235e-02 1.211939999999999962e-01 -1.166409999999999947e-01 3.678000000000000019e-02 2.406799999999999912e-02 -1.444799999999999973e-01 -1.147870000000000001e-01 3.575500000000000206e-02 -2.088399999999999979e-02 7.478300000000000225e-02 1.651199999999999890e-02 -1.003499999999999948e-01 -6.500100000000000322e-02 -3.087499999999999967e-02 1.001439999999999969e-01 7.949299999999999422e-02 6.409999999999999899e-03 -1.603999999999999870e-02 7.071800000000000308e-02 -6.909899999999999376e-02 1.055999999999999994e-02 8.948000000000000398e-02 1.659400000000000111e-02 -3.454000000000000126e-02 -2.959799999999999931e-02 4.951999999999999805e-03 9.251700000000000201e-02 1.151620000000000005e-01 7.539200000000000068e-02 3.617200000000000276e-02 3.757699999999999929e-02 2.855600000000000152e-02 7.637099999999999445e-02 1.261349999999999971e-01 -1.580399999999999860e-02 2.000100000000000142e-02 2.952600000000000016e-02 -1.424199999999999945e-02 3.805299999999999655e-02 1.061320000000000041e-01 -7.881399999999999517e-02 -4.012299999999999894e-02 -5.124700000000000089e-02 -4.534200000000000036e-02 -1.798399999999999999e-02 8.202600000000000169e-02 1.029100000000000015e-01 6.809700000000000475e-02 -1.619400000000000006e-02 1.006480000000000014e-01 -2.755499999999999963e-02 1.418999999999999949e-02 5.705999999999999961e-02 -4.462800000000000100e-02 8.880000000000000393e-02 2.811000000000000131e-03 6.428200000000000580e-02 2.808300000000000032e-02 -3.875100000000000072e-02 6.719000000000000146e-03 4.339099999999999902e-02 -4.167999999999999830e-03 -5.183800000000000213e-02 -9.277000000000000524e-03 1.506799999999999980e-02 -5.788100000000000189e-02 -1.199599999999999972e-02 1.777720000000000133e-01 -5.064799999999999858e-02 4.166899999999999771e-02 3.811400000000000204e-02 1.167799999999999915e-02 -1.234549999999999953e-01 -6.518000000000000356e-03 1.037129999999999996e-01 -2.789739999999999998e-01 -4.099400000000000266e-02 1.175869999999999971e-01 -8.490300000000000624e-02 7.634399999999999520e-02 -9.654300000000000381e-02 -1.148070000000000063e-01 5.347000000000000190e-03 -6.647899999999999643e-02 -1.594440000000000024e-01 -1.555030000000000023e-01 -1.710470000000000046e-01 -1.335109999999999908e-01 3.530000000000000152e-03 5.022100000000000175e-02 -2.163800000000000098e-02 2.850199999999999956e-02 4.793300000000000338e-02 -3.689599999999999824e-02 6.496300000000000685e-02 1.024579999999999935e-01 -1.920300000000000132e-02 -1.274400000000000012e-02 6.699600000000000000e-02 -2.908709999999999907e-01 -2.439489999999999992e-01 -8.859200000000000408e-02 1.823889999999999956e-01 -1.313950000000000118e-01 9.421200000000000407e-02 8.909599999999999465e-02 1.913799999999999876e-02 9.770299999999999818e-02 9.518999999999999684e-03 -7.738599999999999646e-02 1.359100000000000065e-02 -2.274400000000000033e-02 1.546559999999999879e-01 5.622800000000000020e-02 5.453700000000000214e-02 -3.644300000000000317e-02 -6.794000000000000039e-02 -1.731209999999999971e-01 3.073599999999999943e-02 1.190220000000000028e-01 1.105180000000000051e-01
-2.056939999999999880e-01 5.696699999999999681e-02 -3.348199999999999787e-02 -4.253500000000000336e-02 -2.221400000000000111e-02 1.125040000000000068e-01 1.717600000000000030e-02 -1.174990000000000062e-01 1.778869999999999896e-01 -2.470100000000000073e-02 7.969999999999999654e-03 1.193400000000000016e-01 -4.915000000000000098e-03 5.421399999999999830e-02 9.727600000000000136e-02 8.857600000000000195e-02 8.817600000000000438e-02 9.983400000000000607e-02 4.978300000000000086e-02 6.815300000000000524e-02 -3.427299999999999791e-02 4.765099999999999891e-02 -1.820799999999999849e-02 1.059799999999999978e-02 -9.711899999999999700e-02 -4.052000000000000046e-02 -1.485430000000000084e-01 -1.311289999999999956e-01 -5.598000000000000198e-02 -9.206100000000000394e-02 -9.294000000000000178e-03 -4.699500000000000205e-02 4.468199999999999950e-02 5.043899999999999773e-02 -1.335899999999999865e-01 1.641000000000000097e-03 7.795900000000000052e-02 7.070600000000000496e-02 -6.917399999999999938e-02 -8.923200000000000576e-02 -1.023349999999999954e-01 7.543099999999999805e-02 1.607300000000000118e-01 -1.448139999999999983e-01 5.046199999999999991e-02 3.229100000000000026e-02 -1.832739999999999925e-01 -1.495730000000000115e-01 4.655700000000000116e-02 -1.896600000000000022e-02 1.022089999999999943e-01 2.218099999999999933e-02 -1.243100000000000038e-01 -8.284600000000000297e-02 -4.080700000000000299e-02 1.240730000000000027e-01 1.015309999999999963e-01 8.451999999999999444e-03 -3.045600000000000043e-02 8.933699999999999974e-02 -9.154700000000000337e-02 4.334000000000000179e-03 1.152289999999999981e-01 2.210900000000000018e-02 -5.474699999999999706e-02 -4.284500000000000114e-02 6.661000000000000254e-03 1.138129999999999975e-01 1.491240000000000065e-01 9.960299999999999709e-02 3.823300000000000309e-02 4.571200000000000263e-02 3.811599999999999711e-02 9.260899999999999688e-02 1.635830000000000062e-01 -2.084599999999999995e-02 1.755999999999999922e-02 3.490599999999999953e-02 -1.878600000000000061e-02 4.130799999999999750e-02 1.368379999999999874e-01 -1.037720000000000031e-01 -5.275400000000000228e-02 -7.049099999999999810e-02 -6.037499999999999811e-02 -2.375899999999999887e-02 1.049770000000000009e-01 1.350369999999999904e-01 8.912499999999999589e-02 -2.305899999999999964e-02 1.333479999999999943e-01 -3.682499999999999662e-02 1.626000000000000015e-02 7.621899999999999509e-02 -5.945299999999999890e-02 1.146390000000000048e-01 3.527000000000000187e-03 8.518000000000000571e-02 3.380400000000000071e-02 -5.148599999999999705e-02 9.013999999999999443e-03 5.391900000000000165e-02 -5.461999999999999841e-03 -6.829599999999999560e-02 -1.549299999999999983e-02 1.983700000000000047e-02 -7.654299999999999993e-02 -1.916599999999999901e-02 2.354729999999999879e-01 -6.962400000000000533e-02 5.617400000000000171e-02 4.998400000000000065e-02 1.259200000000000076e-02 -1.613729999999999887e-01 -8.737999999999999240e-03 1.326859999999999984e-01 -3.658150000000000013e-01 -5.351100000000000301e-02 1.519600000000000117e-01 -1.116199999999999970e-01 1.004229999999999984e-01 -1.306539999999999924e-01 -1.505539999999999934e-01 6.555000000000000063e-03 -9.040800000000000225e-02 -2.094660000000000133e-01 -2.045980000000000021e-01 -2.293969999999999898e-01 -1.755249999999999866e-01 4.715999999999999706e-03 6.366700000000000137e-02 -2.793599999999999903e-02 3.800900000000000112e-02 6.059300000000000103e-02 -4.812000000000000305e-02 8.586499999999999688e-02 1.385959999999999970e-01 -2.467000000000000096e-02 -1.744700000000000070e-02 9.134299999999999364e-02 -3.835379999999999900e-01 -3.217450000000000032e-01 -1.131339999999999985e-01 2.403349999999999931e-01 -1.742470000000000130e-01 1.279689999999999994e-01 1.180189999999999989e-01 2.538599999999999884e-02 1.322010000000000129e-01 1.251299999999999982e-02 -1.020999999999999963e-01 2.117700000000000138e-02 -2.968600000000000058e-02 2.047630000000000006e-01 7.779700000000000504e-02 7.208399999999999530e-02 -4.781699999999999839e-02 -8.729099999999999360e-02 -2.280830000000000080e-01 4.041800000000000254e-02 1.604319999999999913e-01 1.455380000000000007e-01
-2.552420000000000244e-01 6.989900000000000280e-02 -4.089600000000000180e-02 -5.270500000000000185e-02 -2.745699999999999877e-02 1.403099999999999903e-01 2.144300000000000025e-02 -1.429769999999999930e-01 2.198970000000000091e-01 -2.962899999999999909e-02 1.031699999999999978e-02 1.486629999999999896e-01 -4.969999999999999592e-03 6.724700000000000122e-02 1.225699999999999984e-01 1.081010000000000026e-01 1.091950000000000004e-01 1.242769999999999986e-01 6.146100000000000174e-02 8.480899999999999550e-02 -4.055899999999999783e-02 5.862900000000000056e-02 -2.243399999999999908e-02 1.442200000000000079e-02 -1.214930000000000038e-01 -5.071200000000000013e-02 -1.834379999999999900e-01 -1.633199999999999930e-01 -6.328599999999999504e-02 -1.123930000000000068e-01 -1.158099999999999928e-02 -5.247500000000000081e-02 5.683099999999999957e-02 6.221499999999999947e-02 -1.591859999999999942e-01 4.259999999999999898e-03 9.690699999999999315e-02 9.461999999999999578e-02 -8.308599999999999319e-02 -1.101209999999999967e-01 -1.202460000000000057e-01 9.499499999999999611e-02 1.993389999999999884e-01 -1.718560000000000088e-01 6.302000000000000657e-02 4.041000000000000147e-02 -2.213400000000000090e-01 -1.838990000000000069e-01 5.660500000000000254e-02 -1.723299999999999832e-02 1.288050000000000028e-01 2.815900000000000000e-02 -1.476260000000000072e-01 -1.004329999999999945e-01 -5.039799999999999836e-02 1.479310000000000069e-01 1.229050000000000004e-01 1.027299999999999915e-02 -4.452899999999999914e-02 1.068149999999999933e-01 -1.133959999999999968e-01 -2.222000000000000017e-03 1.406250000000000000e-01 2.759599999999999900e-02 -7.447700000000000153e-02 -5.587799999999999712e-02 8.429000000000000728e-03 1.347559999999999869e-01 1.822290000000000021e-01 1.230990000000000001e-01 3.984000000000000041e-02 5.321499999999999841e-02 4.771399999999999947e-02 1.086000000000000021e-01 2.000049999999999883e-01 -2.557099999999999998e-02 1.546200000000000005e-02 3.964899999999999675e-02 -2.329900000000000027e-02 4.462399999999999700e-02 1.666950000000000098e-01 -1.278199999999999892e-01 -6.483400000000000274e-02 -8.886199999999999655e-02 -7.501399999999999735e-02 -2.901300000000000059e-02 1.270950000000000135e-01 1.656829999999999969e-01 1.091509999999999980e-01 -2.881399999999999934e-02 1.654950000000000032e-01 -4.589800000000000130e-02 1.888199999999999948e-02 9.504500000000000448e-02 -7.376599999999999824e-02 1.399829999999999963e-01 4.054999999999999577e-03 1.054780000000000023e-01 3.928399999999999948e-02 -6.418100000000000194e-02 1.160100000000000020e-02 6.400599999999999346e-02 -6.702999999999999757e-03 -8.418899999999999995e-02 -2.147400000000000003e-02 2.454599999999999838e-02 -9.454799999999999316e-02 -2.613400000000000098e-02 2.915289999999999826e-01 -8.787100000000000466e-02 7.080000000000000182e-02 6.128000000000000114e-02 1.345999999999999974e-02 -1.971140000000000114e-01 -1.090700000000000003e-02 1.601640000000000008e-01 -4.483989999999999920e-01 -6.532300000000000606e-02 1.849530000000000063e-01 -1.370270000000000099e-01 1.235160000000000008e-01 -1.637480000000000047e-01 -1.845299999999999996e-01 7.420999999999999645e-03 -1.134610000000000063e-01 -2.571479999999999877e-01 -2.516829999999999901e-01 -2.861250000000000182e-01 -2.157219999999999971e-01 5.970999999999999745e-03 7.688000000000000389e-02 -3.363300000000000317e-02 4.746700000000000225e-02 7.305499999999999494e-02 -5.860400000000000331e-02 1.061369999999999952e-01 1.736300000000000066e-01 -2.956299999999999900e-02 -2.230999999999999997e-02 1.147880000000000011e-01 -4.725329999999999808e-01 -3.969079999999999830e-01 -1.365719999999999990e-01 2.960300000000000153e-01 -2.160400000000000098e-01 1.608219999999999927e-01 1.461280000000000079e-01 3.148200000000000304e-02 1.656299999999999994e-01 1.550099999999999915e-02 -1.259820000000000106e-01 2.855399999999999952e-02 -3.616199999999999970e-02 2.535000000000000031e-01 9.886499999999999455e-02 8.913699999999999402e-02 -5.871699999999999836e-02 -1.064750000000000002e-01 -2.807990000000000208e-01 4.972700000000000037e-02 2.006120000000000125e-01 1.791490000000000027e-01
-3.038230000000000097e-01 8.188199999999999645e-02 -4.898999999999999883e-02 -6.256000000000000449e-02 -3.268200000000000272e-02 1.663920000000000121e-01 2.574600000000000152e-02 -1.668489999999999973e-01 2.594259999999999899e-01 -3.391600000000000170e-02 1.278999999999999929e-02 1.763200000000000045e-01 -4.459000000000000290e-03 7.983300000000000118e-02 1.469439999999999913e-01 1.263110000000000066e-01 1.295219999999999982e-01 1.470869999999999955e-01 7.268600000000000061e-02 1.010390000000000038e-01 -4.693499999999999756e-02 6.903499999999999914e-02 -2.667800000000000032e-02 1.736100000000000143e-02 -1.454989999999999895e-01 -6.092000000000000193e-02 -2.182550000000000046e-01 -1.949069999999999969e-01 -7.028399999999999925e-02 -1.326160000000000116e-01 -1.400799999999999962e-02 -5.827999999999999847e-02 6.785700000000000065e-02 7.354099999999999526e-02 -1.842040000000000066e-01 6.642000000000000334e-03 1.153539999999999982e-01 1.179400000000000032e-01 -9.641500000000000070e-02 -1.300590000000000079e-01 -1.376870000000000038e-01 1.134919999999999957e-01 2.367430000000000090e-01 -1.973399999999999876e-01 7.455599999999999727e-02 4.857999999999999818e-02 -2.586280000000000245e-01 -2.174500000000000044e-01 6.583100000000000063e-02 -1.542199999999999994e-02 1.544679999999999942e-01 3.426200000000000079e-02 -1.702599999999999947e-01 -1.176389999999999936e-01 -5.961299999999999932e-02 1.716310000000000058e-01 1.434310000000000029e-01 1.186899999999999934e-02 -5.815599999999999936e-02 1.228609999999999980e-01 -1.344930000000000014e-01 -9.105000000000000246e-03 1.655480000000000007e-01 3.314600000000000185e-02 -9.368300000000000238e-02 -6.870500000000000218e-02 1.024500000000000063e-02 1.552709999999999924e-01 2.141820000000000113e-01 1.456729999999999969e-01 4.084200000000000330e-02 5.989499999999999685e-02 5.731300000000000283e-02 1.242189999999999961e-01 2.350210000000000077e-01 -2.992699999999999874e-02 1.373399999999999968e-02 4.357300000000000062e-02 -2.773199999999999971e-02 4.803500000000000131e-02 1.954790000000000139e-01 -1.507550000000000001e-01 -7.598900000000000099e-02 -1.062609999999999943e-01 -8.936299999999999799e-02 -3.366299999999999848e-02 1.481750000000000012e-01 1.949579999999999924e-01 1.278559999999999974e-01 -3.349200000000000094e-02 1.967069999999999930e-01 -5.485299999999999898e-02 2.211600000000000024e-02 1.135869999999999935e-01 -8.752500000000000557e-02 1.646050000000000013e-01 4.351999999999999966e-03 1.253039999999999987e-01 4.440199999999999703e-02 -7.660699999999999454e-02 1.437100000000000009e-02 7.356999999999999651e-02 -7.853999999999999870e-03 -9.913199999999999790e-02 -2.721399999999999861e-02 2.892600000000000032e-02 -1.118979999999999975e-01 -3.289299999999999863e-02 3.454309999999999881e-01 -1.052700000000000025e-01 8.548300000000000343e-02 7.191400000000000570e-02 1.422099999999999927e-02 -2.303250000000000020e-01 -1.298799999999999955e-02 1.860459999999999892e-01 -5.260610000000000008e-01 -7.635799999999999532e-02 2.162999999999999923e-01 -1.607850000000000112e-01 1.454820000000000002e-01 -1.955790000000000028e-01 -2.164020000000000110e-01 7.931999999999999815e-03 -1.355099999999999916e-01 -3.020450000000000079e-01 -2.964350000000000041e-01 -3.408039999999999958e-01 -2.537490000000000023e-01 7.311999999999999923e-03 8.979199999999999682e-02 -3.859599999999999836e-02 5.682600000000000151e-02 8.527999999999999470e-02 -6.817399999999999849e-02 1.256220000000000114e-01 2.072660000000000058e-01 -3.386999999999999733e-02 -2.728200000000000069e-02 1.372120000000000006e-01 -5.570749999999999869e-01 -4.689360000000000195e-01 -1.587659999999999905e-01 3.490039999999999809e-01 -2.564429999999999765e-01 1.925119999999999887e-01 1.731260000000000021e-01 3.738899999999999862e-02 1.978159999999999918e-01 1.850500000000000062e-02 -1.488990000000000036e-01 3.562900000000000095e-02 -4.214699999999999697e-02 3.005039999999999933e-01 1.192750000000000060e-01 1.055549999999999961e-01 -6.909600000000000464e-02 -1.253549999999999942e-01 -3.308079999999999909e-01 5.861899999999999750e-02 2.392789999999999917e-01 2.110190000000000121e-01