-3.348890912699999944e+02
-3.348872142700000154e+02
-3.348793719500000066e+02
-3.348659188699999731e+02
-3.348469842299999755e+02
-3.348229899400000136e+02
-3.347948330899999974e+02
-3.347631592999999839e+02
-3.347284281199999896e+02
-3.346914638299999751e+02
-3.271218638199999873e+02
-3.271273580700000139e+02
-3.271566955200000280e+02
-3.272096933899999840e+02
-3.272859240999999884e+02
-3.273847836099999995e+02
-3.275050476600000025e+02
-3.276447842499999865e+02
-3.278019840000000045e+02
-3.279738275500000100e+02
-3.275978588699999818e+02
-3.276248911700000122e+02
-3.276611248300000057e+02
-3.277056693200000268e+02
-3.277577997800000276e+02
-3.278167425500000149e+02
-3.278815412199999741e+02
-3.279510449499999822e+02
-3.280240356400000223e+02
-3.280994431699999723e+02
-3.061785901800000147e+02
-3.063078502700000172e+02
-3.066344516199999930e+02
-3.071465258499999891e+02
-3.078206639499999824e+02
-3.086201730399999974e+02
-3.094959956399999896e+02
-3.103911250400000199e+02
-3.112533198200000015e+02
-3.120475009900000032e+02
-3.265243973099999835e+02
-3.265561846100000025e+02
-3.266085778400000095e+02
-3.266809502300000077e+02
-3.267725030199999878e+02
-3.268818494500000043e+02
-3.270076040800000214e+02
-3.271473902999999837e+02
-3.272988962000000015e+02
-3.274591372099999944e+02
-3.177470948600000042e+02
-3.178385494099999846e+02
-3.179878672400000141e+02
-3.181901871399999777e+02
-3.184381741700000248e+02
-3.187220553399999972e+02
-3.190303066199999762e+02
-3.193504435799999897e+02
-3.196704110800000080e+02
-3.199796283200000175e+02
-3.262715108300000111e+02
-3.263936775399999988e+02
-3.265799677599999882e+02
-3.268233136900000204e+02
-3.271140151999999830e+02
-3.274398441199999752e+02
-3.277865517000000182e+02
-3.281394194700000071e+02
-3.284847394399999985e+02
-3.288121229700000185e+02
-3.314455264399999805e+02
-3.314463653799999747e+02
-3.314537932900000214e+02
-3.314683815600000116e+02
-3.314899896200000171e+02
-3.315188202900000078e+02
-3.315549381000000153e+02
-3.315980345500000226e+02
-3.316479938800000014e+02
-3.317043679700000212e+02
-3.229846492300000023e+02
-3.231095824799999718e+02
-3.233308855700000208e+02
-3.236408001500000182e+02
-3.240269756000000143e+02
-3.244718688500000212e+02
-3.249540351399999736e+02
-3.254501180400000067e+02
-3.259381856900000116e+02
-3.264007397099999821e+02
-3.299521699499999841e+02
-3.299650147799999900e+02
-3.299851746400000252e+02
-3.300119990000000030e+02
-3.300444074999999771e+02
-3.300813166899999942e+02
-3.301217216000000008e+02
-3.301641009100000019e+02
-3.302071467800000164e+02
-3.302496117499999855e+02
-3.313690279200000077e+02
-3.313809125399999971e+02
-3.313972629799999936e+02
-3.314177799799999775e+02
-3.314424130500000274e+02
-3.314704602200000068e+02
-3.315017920299999901e+02
-3.315358701399999859e+02
-3.315719370599999820e+02
-3.316095891699999925e+02
-3.264344100499999968e+02
-3.265019423499999789e+02
-3.266145510700000045e+02
-3.267682740100000274e+02
-3.269572809800000073e+02
-3.271742894399999955e+02
-3.274106188800000155e+02
-3.276569932799999947e+02
-3.279043987300000254e+02
-3.281450945500000103e+02
-3.276738628900000094e+02
-3.276869969800000035e+02
-3.276998301300000094e+02
-3.277122177599999873e+02
-3.277238790100000188e+02
-3.277347979499999724e+02
-3.277446625599999948e+02
-3.277535999300000071e+02
-3.277616517499999986e+02
-3.277687857600000143e+02
-3.175106961999999839e+02
-3.176667475699999841e+02
-3.179893510399999741e+02
-3.184646666699999855e+02
-3.190687739599999873e+02
-3.197671766099999786e+02
-3.205168538099999864e+02
-3.212724346300000207e+02
-3.219931066699999747e+02
-3.226524743300000182e+02
-3.267603968600000144e+02
-3.267804075099999750e+02
-3.268255915699999719e+02
-3.268945188499999972e+02
-3.269843941899999891e+02
-3.270918899900000270e+02
-3.272131275500000243e+02
-3.273437755599999832e+02
-3.274793087400000218e+02
-3.276152904599999829e+02
-3.250204204400000094e+02
-3.251107719099999827e+02
-3.252590018199999804e+02
-3.254600657700000284e+02
-3.257067212000000040e+02
-3.259886301600000138e+02
-3.262940254399999844e+02
-3.266104513799999722e+02
-3.269258656299999757e+02
-3.272298121200000196e+02
-3.288972302000000241e+02
-3.289099848600000087e+02
-3.289220438799999897e+02
-3.289334726999999816e+02
-3.289437924100000146e+02
-3.289529760199999942e+02
-3.289609351600000196e+02
-3.289677142300000128e+02
-3.289732445000000212e+02
-3.289779655300000059e+02
-3.289629801199999974e+02
-3.289579636299999947e+02
-3.289692659599999729e+02
-3.289968253100000197e+02
-3.290404451399999743e+02
-3.290995349099999885e+02
-3.291731332499999780e+02
-3.292604714600000193e+02
-3.293601386199999865e+02
-3.294702644600000099e+02
-3.194227471599999717e+02
-3.195018980799999895e+02
-3.197135021400000028e+02
-3.200495292699999936e+02
-3.204951011800000060e+02
-3.210271221300000093e+02
-3.216153358600000161e+02
-3.222254844799999773e+02
-3.228249276000000236e+02
-3.233873937899999760e+02
-3.319500063799999907e+02
-3.319579739600000039e+02
-3.319660063599999944e+02
-3.319740556699999843e+02
-3.319822022299999844e+02
-3.319904220700000224e+02
-3.319985527599999955e+02
-3.320065320499999757e+02
-3.320143693300000223e+02
-3.320219421400000215e+02
-3.300716040300000031e+02
-3.301188185799999815e+02
-3.301923007600000233e+02
-3.302903662100000020e+02
-3.304110151599999767e+02
-3.305515576000000237e+02
-3.307088160700000117e+02
-3.308790617000000225e+02
-3.310586822800000277e+02
-3.312412659999999960e+02
-3.222814725399999816e+02
-3.223307259100000124e+02
-3.224265617400000110e+02
-3.225676629199999752e+02
-3.227521473300000139e+02
-3.229767942299999959e+02
-3.232367371899999853e+02
-3.235255727200000138e+02
-3.238352988199999913e+02
-3.241571916099999839e+02
-3.276091732300000103e+02
-3.276658399899999949e+02
-3.277711626799999749e+02
-3.279215964499999814e+02
-3.281116948200000252e+02
-3.283345087499999977e+02
-3.285816682799999739e+02
-3.288440488599999867e+02
-3.291125047599999789e+02
-3.293785609099999760e+02
-3.291504627499999742e+02
-3.291567838600000186e+02
-3.291668184700000097e+02
-3.291803483200000073e+02
-3.291972619699999996e+02
-3.292173028500000100e+02
-3.292402958700000113e+02
-3.292661051300000281e+02
-3.292943824899999754e+02
-3.293248696800000062e+02
-3.218586253400000032e+02
-3.219919851700000208e+02
-3.222490170300000045e+02
-3.226197796999999809e+02
-3.230878792799999815e+02
-3.236294611600000053e+02
-3.242159204100000238e+02
-3.248146844799999826e+02
-3.253959441000000083e+02
-3.259400407800000039e+02
-3.232449947700000052e+02
-3.233078376099999787e+02
-3.234344606500000054e+02
-3.236194958899999961e+02
-3.238546449799999891e+02
-3.241286764600000083e+02
-3.244289608299999941e+02
-3.247411184200000207e+02
-3.250514690399999722e+02
-3.253494967999999972e+02
-3.256880218599999921e+02
-3.257244258299999728e+02
-3.257855277900000033e+02
-3.258705755099999806e+02
-3.259782944699999803e+02
-3.261070352400000161e+02
-3.262548275300000000e+02
-3.264185647599999811e+02
-3.265944274199999882e+02
-3.267785972699999775e+02
-3.256315212599999995e+02
-3.256180670900000109e+02
-3.256378698400000076e+02
-3.256905981799999950e+02
-3.257749799100000132e+02
-3.258884231499999942e+02
-3.260274325099999828e+02
-3.261870206199999984e+02
-3.263619302100000255e+02
-3.265459752599999774e+02
-3.300435777800000210e+02
-3.300592537800000059e+02
-3.300914345699999899e+02
-3.301395302700000229e+02
-3.302027928900000120e+02
-3.302797323799999845e+02
-3.303692163499999879e+02
-3.304695867400000111e+02
-3.305784202400000140e+02
-3.306936515099999951e+02
-3.277331909999999766e+02
-3.277489405700000020e+02
-3.277806616899999881e+02
-3.278275126600000249e+02
-3.278874259599999732e+02
-3.279584841099999721e+02
-3.280387884699999859e+02
-3.281263526199999774e+02
-3.282189177000000200e+02
-3.283142454300000281e+02
-3.290049392099999750e+02
-3.290163607999999726e+02
-3.290626425099999892e+02
-3.291420489000000202e+02
-3.292526328100000228e+02
-3.293913257400000134e+02
-3.295541403299999956e+02
-3.297362706700000103e+02
-3.299321285600000238e+02
-3.301358148200000073e+02
-3.279207182700000089e+02
-3.279244840599999975e+02
-3.279407420499999830e+02
-3.279691438500000231e+02
-3.280096165699999915e+02
-3.280618445599999973e+02
-3.281251371600000084e+02
-3.281988150799999744e+02
-3.282819243700000129e+02
-3.283733951400000137e+02
-3.222876962400000025e+02
-3.222700684800000204e+02
-3.222652165200000240e+02
-3.222736945500000161e+02
-3.222957956999999851e+02
-3.223315785699999765e+02
-3.223811162999999738e+02
-3.224436089499999980e+02
-3.225182850099999996e+02
-3.226039522699999793e+02
-3.179572572399999899e+02
-3.180344288800000072e+02
-3.181874014200000147e+02
-3.184116301799999746e+02
-3.186989252500000021e+02
-3.190384312499999737e+02
-3.194162544700000126e+02
-3.198163705800000116e+02
-3.202222476000000029e+02
-3.206191241700000205e+02
-3.305043472300000076e+02
-3.305131295200000068e+02
-3.305274386400000139e+02
-3.305472500299999865e+02
-3.305723917099999767e+02
-3.306026258599999892e+02
-3.306377042299999971e+02
-3.306771463599999947e+02
-3.307207437299999810e+02
-3.307681064500000048e+02
-3.260220706999999720e+02
-3.261182147600000008e+02
-3.262674582899999791e+02
-3.264631214899999918e+02
-3.266961934199999860e+02
-3.269559213200000158e+02
-3.272302018799999814e+02
-3.275074820199999976e+02
-3.277772438399999828e+02
-3.280317765799999847e+02
-3.310259591500000056e+02
-3.310308526499999857e+02
-3.310409002299999770e+02
-3.310563573499999848e+02
-3.310770113799999876e+02
-3.311028072199999883e+02
-3.311336969100000260e+02
-3.311694697699999779e+02
-3.312098565800000074e+02
-3.312548299499999871e+02
-3.255230984300000046e+02
-3.255352377699999806e+02
-3.255553318600000239e+02
-3.255833266099999719e+02
-3.256188777899999991e+02
-3.256620740700000169e+02
-3.257124726900000269e+02
-3.257699708600000008e+02
-3.258341100999999753e+02
-3.259046113399999740e+02
-3.301795890899999790e+02
-3.302258492799999772e+02
-3.302992448399999716e+02
-3.303977329699999927e+02
-3.305179294899999718e+02
-3.306566793000000075e+02
-3.308095409300000256e+02
-3.309718041099999937e+02
-3.311389602599999762e+02
-3.313067796199999862e+02
-3.265440137200000095e+02
-3.265663064099999815e+02
-3.266019186699999750e+02
-3.266508449099999893e+02
-3.267126339399999893e+02
-3.267866374399999927e+02
-3.268722606200000200e+02
-3.269685880100000190e+02
-3.270744048399999997e+02
-3.271882971100000077e+02
-3.280410596199999986e+02
-3.280727752700000224e+02
-3.281280400699999973e+02
-3.282062972699999932e+02
-3.283065173100000038e+02
-3.284271703100000082e+02
-3.285663818699999865e+02
-3.287215676100000223e+02
-3.288896836399999870e+02
-3.290673188499999924e+02
-3.285997241599999938e+02
-3.286390146300000197e+02
-3.287088741599999935e+02
-3.288070634499999869e+02
-3.289304980499999829e+02
-3.290750358099999744e+02
-3.292359594000000129e+02
-3.294080948899999726e+02
-3.295859267100000238e+02
-3.297645802000000117e+02
-3.288091006799999718e+02
-3.288229714999999942e+02
-3.288462119499999972e+02
-3.288783856599999922e+02
-3.289191828300000111e+02
-3.289679364400000168e+02
-3.290240463299999760e+02
-3.290863751399999728e+02
-3.291539080000000013e+02
-3.292255485800000088e+02
-3.297523403700000131e+02
-3.297583899499999802e+02
-3.297754590800000187e+02
-3.298032635999999798e+02
-3.298414266699999757e+02
-3.298897449500000221e+02
-3.299473159799999848e+02
-3.300134139099999970e+02
-3.300869253899999762e+02
-3.301665578999999866e+02
-3.238355530100000124e+02
-3.238589198299999907e+02
-3.239216566299999727e+02
-3.240231932199999960e+02
-3.241619708399999809e+02
-3.243361198800000125e+02
-3.245425584600000093e+02
-3.247768995499999960e+02
-3.250334923799999842e+02
-3.253052174900000182e+02
-3.307791815699999916e+02
-3.307869169100000022e+02
-3.308047064099999943e+02
-3.308320652099999961e+02
-3.308686077699999828e+02
-3.309141847899999789e+02
-3.309682765100000097e+02
-3.310306128400000034e+02
-3.311004769300000135e+02
-3.311772281699999780e+02
-3.305135770200000138e+02
-3.305163368199999923e+02
-3.305387833999999998e+02
-3.305809879999999907e+02
-3.306425423599999931e+02
-3.307226886999999920e+02
-3.308199959500000205e+02
-3.309334809399999813e+02
-3.310609849599999848e+02
-3.312003066899999908e+02
-3.307633379399999853e+02
-3.307932340699999827e+02
-3.308320300699999734e+02
-3.308789825700000051e+02
-3.309323994800000150e+02
-3.309909780099999921e+02
-3.310535200400000235e+02
-3.311184894099999951e+02
-3.311843287500000201e+02
-3.312498688599999923e+02
-3.169898665700000038e+02
-3.170303451099999847e+02
-3.171119819099999972e+02
-3.172330578300000070e+02
-3.173907861600000047e+02
-3.175809082399999852e+02
-3.177987409300000081e+02
-3.180380072300000052e+02
-3.182918692999999735e+02
-3.185524049200000150e+02
-3.302046828599999913e+02
-3.302062714799999981e+02
-3.302104377100000079e+02
-3.302169913199999769e+02
-3.302254872500000147e+02
-3.302357928399999878e+02
-3.302473280400000135e+02
-3.302595345299999963e+02
-3.302719504600000278e+02
-3.302839252499999816e+02
-3.291869579300000055e+02
-3.291861046600000122e+02
-3.291935826199999724e+02
-3.292091185699999869e+02
-3.292326554499999816e+02
-3.292639510800000266e+02
-3.293026831899999820e+02
-3.293484403200000088e+02
-3.294002631000000179e+02
-3.294576759400000014e+02
-3.205262436400000183e+02
-3.206203590299999746e+02
-3.208242537099999936e+02
-3.211292777300000125e+02
-3.215210556499999939e+02
-3.219792536100000007e+02
-3.224790448200000128e+02
-3.229934603799999877e+02
-3.234973693200000184e+02
-3.239710045300000161e+02
-3.255020588300000099e+02
-3.255567681800000059e+02
-3.256381474699999785e+02
-3.257454985400000282e+02
-3.258768026500000019e+02
-3.260297644799999830e+02
-3.262016367100000025e+02
-3.263887523899999792e+02
-3.265868084800000020e+02
-3.267912930499999788e+02
-3.284911733100000220e+02
-3.285060010799999759e+02
-3.285194201099999987e+02
-3.285313863000000083e+02
-3.285415494100000160e+02
-3.285501721800000041e+02
-3.285568572000000245e+02
-3.285623392800000033e+02
-3.285667933299999959e+02
-3.285706169499999874e+02
-3.259985524400000259e+02
-3.260089148499999965e+02
-3.260315835700000093e+02
-3.260663169599999947e+02
-3.261127435000000219e+02
-3.261706835499999784e+02
-3.262395015399999920e+02
-3.263183963800000242e+02
-3.264065728400000239e+02
-3.265031975599999896e+02
-3.236162766699999906e+02
-3.237427767799999856e+02
-3.239473783000000253e+02
-3.242223129000000199e+02
-3.245566703599999983e+02
-3.249358249499999829e+02
-3.253429720400000065e+02
-3.257603029699999979e+02
-3.261712252300000046e+02
-3.265629463700000201e+02
-3.272062854700000116e+02
-3.272110587999999893e+02
-3.272328778899999975e+02
-3.272715012599999795e+02
-3.273267211099999940e+02
-3.273979732299999910e+02
-3.274842024399999900e+02
-3.275842744299999936e+02
-3.276965077400000155e+02
-3.278191061300000229e+02
-2.981148871799999824e+02
-2.983588361299999860e+02
-2.988821826999999871e+02
-2.996605171699999914e+02
-3.006482958999999937e+02
-3.017768040400000018e+02
-3.029600896800000100e+02
-3.041121514999999818e+02
-3.051704725999999823e+02
-3.061026530699999739e+02
-3.211249957699999982e+02
-3.212587879399999906e+02
-3.214942450199999939e+02
-3.218217138300000215e+02
-3.222265997599999992e+02
-3.226889556500000253e+02
-3.231852827600000069e+02
-3.236894444700000122e+02
-3.241793228500000055e+02
-3.246377979999999752e+02
-3.187304537499999810e+02
-3.187435157200000049e+02
-3.187910322899999755e+02
-3.188716230200000155e+02
-3.189832594100000165e+02
-3.191233959300000151e+02
-3.192882871099999988e+02
-3.194735973900000090e+02
-3.196742732899999737e+02
-3.198844468199999937e+02
-3.218162545000000136e+02
-3.219257130699999720e+02
-3.221393655900000113e+02
-3.224485599199999797e+02
-3.228389336700000172e+02
-3.232908519599999977e+02
-3.237798226799999952e+02
-3.242795515700000237e+02
-3.247659667300000024e+02
-3.252201716600000054e+02
-3.224267305399999941e+02
-3.224698973900000283e+02
-3.225503645800000072e+02
-3.226659547799999928e+02
-3.228138571499999898e+02
-3.229898622900000191e+02
-3.231890960900000209e+02
-3.234051253999999744e+02
-3.236313248499999986e+02
-3.238616276500000026e+02
-3.277170964200000185e+02
-3.277623965600000133e+02
-3.278280004499999905e+02
-3.279132302200000026e+02
-3.280170376300000044e+02
-3.281378819299999918e+02
-3.282737794299999905e+02
-3.284222668400000202e+02
-3.285807859299999905e+02
-3.287459301800000162e+02
-3.310856080699999779e+02
-3.310826917599999888e+02
-3.310834714900000222e+02
-3.310881016600000066e+02
-3.310966965200000232e+02
-3.311092169600000261e+02
-3.311254796399999805e+02
-3.311455915600000139e+02
-3.311693908799999804e+02
-3.311969627099999798e+02
-3.267034848000000125e+02
-3.267688378299999954e+02
-3.268822506100000282e+02
-3.270391811900000221e+02
-3.272336347500000215e+02
-3.274575771300000042e+02
-3.277018742399999951e+02
-3.279560939799999915e+02
-3.282105865799999833e+02
-3.284564697499999966e+02
-3.326642648200000281e+02
-3.326690531099999930e+02
-3.326735550700000204e+02
-3.326775441699999760e+02
-3.326806530299999736e+02
-3.326829036099999826e+02
-3.326840520700000070e+02
-3.326840820900000040e+02
-3.326828733199999988e+02
-3.326805051900000194e+02
-3.241586462299999880e+02
-3.241958642800000234e+02
-3.242586733300000219e+02
-3.243458601599999724e+02
-3.244559785899999724e+02
-3.245865723900000148e+02
-3.247347528500000067e+02
-3.248970840399999815e+02
-3.250694467600000053e+02
-3.252475209099999915e+02
-3.129180386599999792e+02
-3.130691303699999821e+02
-3.133790705800000183e+02
-3.138348374799999760e+02
-3.144148932300000183e+02
-3.150875099099999943e+02
-3.158131252900000163e+02
-3.165493336800000179e+02
-3.172580206100000169e+02
-3.179127464300000270e+02
-3.298781182000000172e+02
-3.299279867800000261e+02
-3.299934144100000140e+02
-3.300732795000000124e+02
-3.301661728500000095e+02
-3.302706243900000231e+02
-3.303846771600000238e+02
-3.305061655900000233e+02
-3.306327001299999893e+02
-3.307620846600000277e+02
-3.296687110500000131e+02
-3.296738015999999902e+02
-3.296860880199999997e+02
-3.297052903300000253e+02
-3.297313290999999822e+02
-3.297636130500000036e+02
-3.298021576500000265e+02
-3.298464477699999975e+02
-3.298960827099999733e+02
-3.299507444199999782e+02
-3.291691613200000006e+02
-3.291611125800000082e+02
-3.291812641800000279e+02
-3.292290831600000161e+02
-3.293039505200000008e+02
-3.294032807699999807e+02
-3.295242887599999904e+02
-3.296629774500000281e+02
-3.298151199000000133e+02
-3.299753970599999775e+02
-3.250740325599999778e+02
-3.251169443599999909e+02
-3.251885332699999935e+02
-3.252879095700000107e+02
-3.254136211900000148e+02
-3.255637060000000247e+02
-3.257353318199999990e+02
-3.259248991800000113e+02
-3.261282757199999764e+02
-3.263407698799999821e+02
-3.306889333600000214e+02
-3.306875674400000094e+02
-3.306890433699999789e+02
-3.306931795500000248e+02
-3.306999710299999720e+02
-3.307095301400000267e+02
-3.307217409799999928e+02
-3.307365323899999794e+02
-3.307543195399999831e+02
-3.307746611100000109e+02
-3.284272061400000098e+02
-3.284566648399999735e+02
-3.285104778400000214e+02
-3.285871313999999757e+02
-3.286846972000000164e+02
-3.288002572899999905e+02
-3.289303835399999798e+02
-3.290714727299999822e+02
-3.292196530300000177e+02
-3.293709546599999953e+02
-3.331781741600000259e+02
-3.331867476400000214e+02
-3.331942843599999833e+02
-3.332007681299999717e+02
-3.332060467599999924e+02
-3.332101557500000126e+02
-3.332127558500000077e+02
-3.332141015899999843e+02
-3.332141293199999836e+02
-3.332130709599999818e+02
-3.237099811699999918e+02
-3.237473128699999734e+02
-3.238420132100000046e+02
-3.239905024700000240e+02
-3.241873049199999741e+02
-3.244246829800000000e+02
-3.246927678999999785e+02
-3.249800542400000154e+02
-3.252745812499999829e+02
-3.255650389799999971e+02
-3.275281388099999731e+02
-3.275589892400000167e+02
-3.276066215499999998e+02
-3.276699374300000045e+02
-3.277477125500000170e+02
-3.278378768000000036e+02
-3.279384948599999916e+02
-3.280474535399999922e+02
-3.281620041699999888e+02
-3.282796402999999827e+02
-3.157246180399999957e+02
-3.158352113299999928e+02
-3.160781618099999832e+02
-3.164425484899999788e+02
-3.169109608300000218e+02
-3.174584833200000276e+02
-3.180549716300000114e+02
-3.186674072000000137e+02
-3.192656823699999791e+02
-3.198264434000000165e+02
-3.280364582799999766e+02
-3.280997973600000250e+02
-3.281859619599999860e+02
-3.282940373600000044e+02
-3.284219981400000279e+02
-3.285677592100000197e+02
-3.287286911300000156e+02
-3.289011487399999965e+02
-3.290813658999999802e+02
-3.292656545199999982e+02
-3.222534969100000239e+02
-3.223580866799999853e+02
-3.225444737199999850e+02
-3.228072171399999775e+02
-3.231370881700000268e+02
-3.235216689000000088e+02
-3.239453482800000188e+02
-3.243894084600000269e+02
-3.248347839900000054e+02
-3.252658103100000062e+02
-3.281643985499999872e+02
-3.281648087899999950e+02
-3.281662824399999749e+02
-3.281687665700000025e+02
-3.281725569700000165e+02
-3.281776908300000173e+02
-3.281845192100000190e+02
-3.281932343700000274e+02
-3.282041520199999809e+02
-3.282174497999999971e+02
-3.284665166099999851e+02
-3.284812864099999956e+02
-3.285092958700000167e+02
-3.285499819300000013e+02
-3.286027610200000026e+02
-3.286665862899999979e+02
-3.287404403099999968e+02
-3.288230173900000182e+02
-3.289130020100000138e+02
-3.290087699100000123e+02
-3.143853763199999776e+02
-3.144548037700000123e+02
-3.146978962200000183e+02
-3.151046710800000028e+02
-3.156564331999999808e+02
-3.163235415899999907e+02
-3.170667928199999892e+02
-3.178407006799999976e+02
-3.185996688100000256e+02
-3.193093803099999946e+02
-3.270292086000000040e+02
-3.270740308300000265e+02
-3.271424326599999972e+02
-3.272336841700000036e+02
-3.273467657099999997e+02
-3.274800164299999778e+02
-3.276313550899999996e+02
-3.277980754700000148e+02
-3.279772246200000154e+02
-3.281650280399999815e+02
-3.322700960399999985e+02
-3.322748338999999760e+02
-3.322821385500000133e+02
-3.322917805800000224e+02
-3.323040642899999852e+02
-3.323192296799999781e+02
-3.323377088199999889e+02
-3.323592620200000169e+02
-3.323841346099999896e+02
-3.324122760199999789e+02
-3.223206404399999769e+02
-3.223605087799999751e+02
-3.224243351399999824e+02
-3.225104740900000024e+02
-3.226168302899999958e+02
-3.227410393399999862e+02
-3.228799976899999820e+02
-3.230306360000000154e+02
-3.231888193999999999e+02
-3.233510849499999722e+02
-3.191720877899999778e+02
-3.192448089100000175e+02
-3.193829398199999900e+02
-3.195816295800000262e+02
-3.198336261800000102e+02
-3.201291922099999852e+02
-3.204563473100000124e+02
-3.208018731999999886e+02
-3.211525162199999954e+02
-3.214965684499999838e+02
-3.288108411100000126e+02
-3.288824310699999955e+02
-3.289893421300000114e+02
-3.291286382299999786e+02
-3.292967380900000194e+02
-3.294884777500000155e+02
-3.296986619300000143e+02
-3.299211663400000134e+02
-3.301500088899999810e+02
-3.303791066000000001e+02
-3.028771701399999756e+02
-3.031226525899999729e+02
-3.035782686699999999e+02
-3.042215977700000167e+02
-3.050159228399999733e+02
-3.059095877299999984e+02
-3.068413396199999852e+02
-3.077512480999999980e+02
-3.085958333099999891e+02
-3.093498751800000264e+02
-3.250959915000000251e+02
-3.251180760199999895e+02
-3.251971596899999781e+02
-3.253308229300000107e+02
-3.255144474100000025e+02
-3.257415185199999996e+02
-3.260024986000000240e+02
-3.262870448400000214e+02
-3.265833501800000249e+02
-3.268800875300000257e+02
-3.315867255200000159e+02
-3.316234672200000091e+02
-3.316693755599999918e+02
-3.317231148000000189e+02
-3.317829398399999832e+02
-3.318473135300000081e+02
-3.319143691200000035e+02
-3.319820612699999742e+02
-3.320487445499999808e+02
-3.321124783000000207e+02
-3.244569221599999764e+02
-3.245048851799999738e+02
-3.246116153599999734e+02
-3.247713876299999924e+02
-3.249763355900000192e+02
-3.252160399800000050e+02
-3.254786436800000047e+02
-3.257515248600000177e+02
-3.260227817499999787e+02
-3.262827262100000212e+02
-3.263160270600000104e+02
-3.263651906900000199e+02
-3.264312060199999905e+02
-3.265123485600000208e+02
-3.266063580900000147e+02
-3.267106939099999749e+02
-3.268223166399999968e+02
-3.269383001799999988e+02
-3.270560965500000066e+02
-3.271729047100000116e+02
-3.297675620900000126e+02
-3.297758377700000096e+02
-3.297908817399999748e+02
-3.298123409899999956e+02
-3.298400395699999876e+02
-3.298736515699999927e+02
-3.299126179400000183e+02
-3.299563671899999804e+02
-3.300042149500000050e+02
-3.300553906600000005e+02
-3.333807702899999867e+02
-3.333838498599999980e+02
-3.333834213299999760e+02
-3.333797506999999882e+02
-3.333730948300000136e+02
-3.333636214399999744e+02
-3.333518000099999767e+02
-3.333379169699999807e+02
-3.333222465800000123e+02
-3.333054846300000236e+02
-3.238174584299999879e+02
-3.238729097500000194e+02
-3.239926577400000269e+02
-3.241721886799999766e+02
-3.244046046999999930e+02
-3.246797434900000212e+02
-3.249848160700000221e+02
-3.253052565500000242e+02
-3.256284915800000022e+02
-3.259427456500000062e+02
-3.311944929800000068e+02
-3.312101969099999792e+02
-3.312372961099999884e+02
-3.312753440700000169e+02
-3.313242667999999753e+02
-3.313832022000000279e+02
-3.314515912499999786e+02
-3.315285672300000215e+02
-3.316130891299999917e+02
-3.317039440799999852e+02
-3.265150495500000147e+02
-3.265664328600000204e+02
-3.266358157000000233e+02
-3.267209138900000198e+02
-3.268191581400000132e+02
-3.269271626999999967e+02
-3.270413049900000146e+02
-3.271578030599999920e+02
-3.272733284199999844e+02
-3.273849489199999994e+02
-3.160196151200000259e+02
-3.162109445699999810e+02
-3.165509880899999757e+02
-3.170202426999999830e+02
-3.175890872400000262e+02
-3.182201899099999878e+02
-3.188720443099999784e+02
-3.195070413299999927e+02
-3.200966239599999881e+02
-3.206245404200000166e+02
-3.275715539500000091e+02
-3.276009108200000242e+02
-3.276524637699999971e+02
-3.277242797999999766e+02
-3.278139192699999853e+02
-3.279181898699999920e+02
-3.280336757300000272e+02
-3.281571577700000262e+02
-3.282845964200000139e+02
-3.284125783700000056e+02
-3.302355646999999976e+02
-3.302652654699999744e+02
-3.303070429599999898e+02
-3.303605922599999758e+02
-3.304251231399999824e+02
-3.304997708399999965e+02
-3.305835324500000070e+02
-3.306752752699999860e+02
-3.307735854300000256e+02
-3.308772882499999923e+02
-3.203143766800000094e+02
-3.204128224400000136e+02
-3.206291889299999980e+02
-3.209554139599999871e+02
-3.213783136700000114e+02
-3.218781814399999917e+02
-3.224300469600000270e+02
-3.230054032400000210e+02
-3.235766379199999960e+02
-3.241202971600000069e+02
-3.302621506799999906e+02
-3.302546520999999871e+02
-3.302574318200000221e+02
-3.302705400099999906e+02
-3.302941452599999934e+02
-3.303279749999999808e+02
-3.303716566599999851e+02
-3.304247500199999763e+02
-3.304865328199999794e+02
-3.305562764100000095e+02
-3.265490014100000167e+02
-3.265717262000000005e+02
-3.266152593099999990e+02
-3.266791825899999822e+02
-3.267625996900000018e+02
-3.268646954999999821e+02
-3.269834036099999821e+02
-3.271169408999999746e+02
-3.272628347799999915e+02
-3.274182988900000169e+02
-3.288880473699999811e+02
-3.289100520399999823e+02
-3.289572204899999974e+02
-3.290273635799999852e+02
-3.291173221099999751e+02
-3.292236792900000069e+02
-3.293414652000000160e+02
-3.294664307499999722e+02
-3.295937006799999835e+02
-3.297193843900000161e+02
-3.302456287200000133e+02
-3.302682415599999786e+02
-3.303033834799999795e+02
-3.303499915799999940e+02
-3.304072590000000105e+02
-3.304739488899999742e+02
-3.305486440999999900e+02
-3.306294146199999773e+02
-3.307142052199999966e+02
-3.308015592599999763e+02
-3.246016806900000233e+02
-3.246671981299999743e+02
-3.247748551999999904e+02
-3.249205201999999986e+02
-3.250986766699999748e+02
-3.253018721299999925e+02
-3.255221315100000083e+02
-3.257513801499999886e+02
-3.259815384099999847e+02
-3.262054671899999789e+02
-2.985739297299999748e+02
-2.988468462100000238e+02
-2.994528710499999988e+02
-3.003613934499999800e+02
-3.015129714400000012e+02
-3.028168744899999751e+02
-3.041638232799999741e+02
-3.054504358400000115e+02
-3.066078223600000001e+02
-3.076074099100000012e+02
-3.286227882000000022e+02
-3.286113890299999980e+02
-3.286102414700000054e+02
-3.286193232699999953e+02
-3.286386358299999984e+02
-3.286680800699999736e+02
-3.287075229999999806e+02
-3.287565525699999966e+02
-3.288148383700000181e+02
-3.288814287999999806e+02
-3.255587323099999821e+02
-3.255572835599999735e+02
-3.255818387300000154e+02
-3.256321577100000013e+02
-3.257077757600000041e+02
-3.258076952000000119e+02
-3.259309006099999806e+02
-3.260752326300000163e+02
-3.262383916800000065e+02
-3.264168651100000034e+02
-3.305244143200000053e+02
-3.305510215799999969e+02
-3.305857002800000259e+02
-3.306278462700000205e+02
-3.306768120300000078e+02
-3.307314333099999999e+02
-3.307911272599999961e+02
-3.308550705299999777e+02
-3.309222962499999880e+02
-3.309920903099999805e+02
-3.279113287999999784e+02
-3.279664221500000281e+02
-3.280337720499999818e+02
-3.281115158000000065e+02
-3.281971710600000165e+02
-3.282882107600000268e+02
-3.283821909100000198e+02
-3.284766325699999925e+02
-3.285696341099999813e+02
-3.286596063299999742e+02
-3.258190027900000132e+02
-3.258751836899999716e+02
-3.259618311699999822e+02
-3.260778961799999820e+02
-3.262217749600000047e+02
-3.263913195499999915e+02
-3.265832870300000081e+02
-3.267938162500000203e+02
-3.270180469000000016e+02
-3.272506231200000002e+02
-3.256118136800000116e+02
-3.256272212900000227e+02
-3.256739661799999794e+02
-3.257518028900000218e+02
-3.258596247699999822e+02
-3.259962114599999836e+02
-3.261592804900000147e+02
-3.263457437899999718e+02
-3.265518673700000249e+02
-3.267726414900000123e+02
-3.306713098100000252e+02
-3.306888254500000244e+02
-3.307132264499999792e+02
-3.307440728500000091e+02
-3.307806206999999858e+02
-3.308224648699999761e+02
-3.308691707599999745e+02
-3.309197661599999947e+02
-3.309738037700000177e+02
-3.310302539200000069e+02
-3.303353527300000110e+02
-3.303533400599999936e+02
-3.303726120300000275e+02