0.000000000000000000e+00 2.032270000000000021e+00 9.633689999999999642e+00 -1.760000000000000009e+00 5.080680000000000085e+00 9.633689999999999642e+00 -3.520000000000000018e+00 8.129089999999999705e+00 9.633689999999999642e+00 3.520000000000000018e+00 2.032270000000000021e+00 9.633689999999999642e+00 1.760000000000000009e+00 5.080680000000000085e+00 9.633689999999999642e+00 0.000000000000000000e+00 8.129089999999999705e+00 9.633689999999999642e+00 7.040000000000000036e+00 2.032270000000000021e+00 9.633689999999999642e+00 5.280000000000000249e+00 5.080680000000000085e+00 9.633689999999999642e+00 3.520000000000000018e+00 8.129089999999999705e+00 9.633689999999999642e+00 1.760000000000000009e+00 2.946800000000000086e+00 1.674669000000000096e+01 0.000000000000000000e+00 5.995210000000000150e+00 1.674669000000000096e+01 -1.760000000000000009e+00 9.043609999999999260e+00 1.674669000000000096e+01 5.280000000000000249e+00 2.946800000000000086e+00 1.674669000000000096e+01 3.520000000000000018e+00 5.995210000000000150e+00 1.674669000000000096e+01 1.760000000000000009e+00 9.043609999999999260e+00 1.674669000000000096e+01 8.800000000000000711e+00 2.946800000000000086e+00 1.674669000000000096e+01 7.040000000000000036e+00 5.995210000000000150e+00 1.674669000000000096e+01 5.280000000000000249e+00 9.043609999999999260e+00 1.674669000000000096e+01 0.000000000000000000e+00 2.032270000000000021e+00 1.325413999999999959e+01 -1.760000000000000009e+00 5.080680000000000085e+00 1.325413999999999959e+01 -3.520000000000000018e+00 8.129089999999999705e+00 1.325413999999999959e+01 3.520000000000000018e+00 2.032270000000000021e+00 1.325413999999999959e+01 1.760000000000000009e+00 5.080680000000000085e+00 1.325413999999999959e+01 0.000000000000000000e+00 8.129089999999999705e+00 1.325413999999999959e+01 7.040000000000000036e+00 2.032270000000000021e+00 1.325413999999999959e+01 5.280000000000000249e+00 5.080680000000000085e+00 1.325413999999999959e+01 3.520000000000000018e+00 8.129089999999999705e+00 1.325413999999999959e+01 1.760000000000000009e+00 2.946800000000000086e+00 2.036675999999999931e+01 0.000000000000000000e+00 5.995210000000000150e+00 2.036675999999999931e+01 -1.760000000000000009e+00 9.043609999999999260e+00 2.036675999999999931e+01 5.280000000000000249e+00 2.946800000000000086e+00 2.036675999999999931e+01 3.520000000000000018e+00 5.995210000000000150e+00 2.036675999999999931e+01 1.760000000000000009e+00 9.043609999999999260e+00 2.036675999999999931e+01 8.800000000000000711e+00 2.946800000000000086e+00 2.036675999999999931e+01 7.040000000000000036e+00 5.995210000000000150e+00 2.036675999999999931e+01 5.280000000000000249e+00 9.043609999999999260e+00 2.036675999999999931e+01 0.000000000000000000e+00 0.000000000000000000e+00 1.144256000000000029e+01 -1.760000000000000009e+00 3.048410000000000064e+00 1.144256000000000029e+01 -3.520000000000000018e+00 6.096820000000000128e+00 1.144256000000000029e+01 3.520000000000000018e+00 0.000000000000000000e+00 1.144256000000000029e+01 1.760000000000000009e+00 3.048410000000000064e+00 1.144256000000000029e+01 0.000000000000000000e+00 6.096820000000000128e+00 1.144256000000000029e+01 7.040000000000000036e+00 0.000000000000000000e+00 1.144256000000000029e+01 5.280000000000000249e+00 3.048410000000000064e+00 1.144256000000000029e+01 3.520000000000000018e+00 6.096820000000000128e+00 1.144256000000000029e+01 1.760000000000000009e+00 9.145199999999999996e-01 1.855620000000000047e+01 0.000000000000000000e+00 3.962930000000000064e+00 1.855620000000000047e+01 -1.760000000000000009e+00 7.011339999999999684e+00 1.855620000000000047e+01 5.280000000000000249e+00 9.145199999999999996e-01 1.855620000000000047e+01 3.520000000000000018e+00 3.962930000000000064e+00 1.855620000000000047e+01 1.760000000000000009e+00 7.011339999999999684e+00 1.855620000000000047e+01 8.800000000000000711e+00 9.145199999999999996e-01 1.855620000000000047e+01 7.040000000000000036e+00 3.962930000000000064e+00 1.855620000000000047e+01 5.280000000000000249e+00 7.011339999999999684e+00 1.855620000000000047e+01
-1.299999999999999886e-04 2.031229999999999869e+00 9.634639999999999205e+00 -1.760459999999999914e+00 5.080070000000000086e+00 9.631270000000000664e+00 -3.520770000000000177e+00 8.131460000000000576e+00 9.634980000000000544e+00 3.521999999999999797e+00 2.034889999999999866e+00 9.635930000000000106e+00 1.756559999999999899e+00 5.078759999999999941e+00 9.631940000000000168e+00 6.700000000000000226e-04 8.128740000000000521e+00 9.634690000000000865e+00 7.039970000000000283e+00 2.033959999999999990e+00 9.636029999999999873e+00 5.276559999999999917e+00 5.076559999999999739e+00 9.635379999999999612e+00 3.518829999999999902e+00 8.129500000000000171e+00 9.633630000000000138e+00 1.759689999999999976e+00 2.947820000000000107e+00 1.674867000000000061e+01 1.680000000000000070e-03 5.995770000000000266e+00 1.674577999999999989e+01 -1.759830000000000005e+00 9.046099999999999142e+00 1.674712999999999852e+01 5.279880000000000351e+00 2.944529999999999870e+00 1.674821000000000026e+01 3.519559999999999800e+00 5.993330000000000268e+00 1.674861999999999895e+01 1.759870000000000045e+00 9.045400000000000773e+00 1.674465000000000003e+01 8.801690000000000680e+00 2.945759999999999934e+00 1.674489000000000161e+01 7.039810000000000123e+00 5.992659999999999876e+00 1.674748999999999910e+01 5.280850000000000044e+00 9.042569999999999553e+00 1.674872999999999834e+01 1.389999999999999960e-03 2.031229999999999869e+00 1.325633000000000017e+01 -1.761300000000000088e+00 5.080040000000000333e+00 1.325308000000000064e+01 -3.518489999999999895e+00 8.128709999999999880e+00 1.325520000000000032e+01 3.522419999999999884e+00 2.034790000000000099e+00 1.325328000000000017e+01 1.758739999999999970e+00 5.079690000000000261e+00 1.325275000000000070e+01 -1.139999999999999954e-03 8.131119999999999237e+00 1.325417999999999985e+01 7.043549999999999756e+00 2.033500000000000085e+00 1.325217999999999918e+01 5.281080000000000219e+00 5.082699999999999996e+00 1.325113999999999947e+01 3.517850000000000144e+00 8.129179999999999851e+00 1.325528000000000084e+01 1.761160000000000059e+00 2.945539999999999825e+00 2.036584999999999823e+01 6.000000000000000152e-05 5.993689999999999962e+00 2.036670000000000158e+01 -1.758869999999999933e+00 9.044169999999999376e+00 2.036503000000000085e+01 5.275050000000000239e+00 2.946470000000000145e+00 2.036501000000000161e+01 3.522029999999999994e+00 5.994909999999999961e+00 2.036765000000000114e+01 1.759460000000000024e+00 9.041399999999999437e+00 2.036776000000000053e+01 8.796749999999999403e+00 2.946130000000000138e+00 2.036689000000000149e+01 7.037379999999999747e+00 5.994839999999999947e+00 2.036764000000000152e+01 5.280700000000000394e+00 9.043409999999999727e+00 2.036817999999999884e+01 3.720000000000000216e-03 1.420000000000000038e-03 1.144368000000000052e+01 -1.758049999999999891e+00 3.047639999999999905e+00 1.144229999999999947e+01 -3.520540000000000003e+00 6.097979999999999734e+00 1.144159999999999933e+01 -1.757209999999999939e+00 9.143860000000000099e+00 1.144121999999999950e+01 1.761400000000000077e+00 3.047820000000000196e+00 1.144148999999999994e+01 2.220000000000000185e-03 6.096860000000000390e+00 1.144500999999999991e+01 7.042200000000000237e+00 1.629999999999999939e-03 1.144473999999999947e+01 5.281589999999999563e+00 3.048649999999999860e+00 1.143823000000000079e+01 3.520080000000000098e+00 6.098259999999999792e+00 1.144111999999999973e+01 1.761130000000000084e+00 9.119500000000000384e-01 1.855350999999999928e+01 -5.000000000000000104e-04 3.963940000000000019e+00 1.855756999999999834e+01 -1.760380000000000056e+00 7.014710000000000001e+00 1.855580000000000140e+01 5.278819999999999624e+00 9.142599999999999616e-01 1.855504000000000175e+01 3.516830000000000123e+00 3.962219999999999853e+00 1.855695000000000050e+01 1.759179999999999966e+00 7.014219999999999899e+00 1.855558999999999870e+01 8.800060000000000215e+00 9.166400000000000103e-01 1.855705999999999989e+01 7.038219999999999921e+00 3.961460000000000203e+00 1.855516000000000076e+01 5.278859999999999886e+00 7.010939999999999728e+00 1.855584999999999951e+01
-2.500000000000000052e-04 2.030190000000000161e+00 9.635600000000000165e+00 -1.760920000000000041e+00 5.079449999999999577e+00 9.628859999999999530e+00 -3.521539999999999893e+00 8.133820000000000050e+00 9.636260000000000048e+00 3.523989999999999956e+00 2.037490000000000023e+00 9.638149999999999551e+00 1.753130000000000077e+00 5.076839999999999797e+00 9.630190000000000694e+00 1.340000000000000045e-03 8.128389999999999560e+00 9.635680000000000689e+00 7.039939999999999642e+00 2.035649999999999959e+00 9.638360000000000483e+00 5.273119999999999585e+00 5.072460000000000413e+00 9.637069999999999581e+00 3.517679999999999918e+00 8.129899999999999238e+00 9.633580000000000254e+00 1.759379999999999944e+00 2.948840000000000128e+00 1.675063000000000102e+01 3.360000000000000139e-03 5.996340000000000003e+00 1.674486999999999881e+01 -1.759660000000000002e+00 9.048569999999999780e+00 1.674755000000000038e+01 5.279759999999999565e+00 2.942270000000000163e+00 1.674971000000000032e+01 3.519109999999999960e+00 5.991460000000000008e+00 1.675054000000000087e+01 1.759740000000000082e+00 9.047190000000000509e+00 1.674259999999999948e+01 8.803380000000000649e+00 2.944729999999999848e+00 1.674308999999999870e+01 7.039609999999999701e+00 5.990120000000000111e+00 1.674829000000000079e+01 5.281690000000000218e+00 9.041520000000000223e+00 1.675075999999999965e+01 2.789999999999999945e-03 2.030190000000000161e+00 1.325850999999999935e+01 -1.762590000000000101e+00 5.079399999999999693e+00 1.325201999999999991e+01 -3.516970000000000152e+00 8.128330000000000055e+00 1.325624999999999964e+01 3.524830000000000130e+00 2.037290000000000045e+00 1.325242000000000075e+01 1.757479999999999931e+00 5.078700000000000436e+00 1.325136000000000003e+01 -2.269999999999999882e-03 8.133129999999999526e+00 1.325423999999999936e+01 7.047100000000000364e+00 2.034720000000000084e+00 1.325022000000000055e+01 5.282160000000000188e+00 5.084710000000000285e+00 1.324815000000000076e+01 3.515719999999999956e+00 8.129269999999999996e+00 1.325642000000000031e+01 1.762320000000000109e+00 2.944290000000000074e+00 2.036494000000000071e+01 1.200000000000000030e-04 5.992180000000000284e+00 2.036663000000000068e+01 -1.757749999999999924e+00 9.044719999999999871e+00 2.036330999999999847e+01 5.270100000000000229e+00 2.946140000000000203e+00 2.036326999999999998e+01 3.524049999999999905e+00 5.994620000000000282e+00 2.036853999999999942e+01 1.758920000000000039e+00 9.039189999999999614e+00 2.036876000000000175e+01 8.793499999999999872e+00 2.945460000000000189e+00 2.036702000000000012e+01 7.034760000000000346e+00 5.994469999999999743e+00 2.036851000000000056e+01 5.281399999999999650e+00 9.043210000000000193e+00 2.036958999999999875e+01 7.420000000000000380e-03 2.820000000000000024e-03 1.144481000000000037e+01 -1.756099999999999994e+00 3.046879999999999811e+00 1.144204000000000043e+01 -3.521079999999999988e+00 6.099129999999999718e+00 1.144063000000000052e+01 -1.754429999999999934e+00 9.142500000000000071e+00 1.143989000000000011e+01 1.762790000000000079e+00 3.047239999999999949e+00 1.144041999999999959e+01 4.429999999999999910e-03 6.096899999999999764e+00 1.144744000000000028e+01 7.044389999999999930e+00 3.259999999999999877e-03 1.144689999999999941e+01 5.283179999999999765e+00 3.048890000000000100e+00 1.143394999999999939e+01 3.520140000000000047e+00 6.099700000000000344e+00 1.143967999999999918e+01 1.762259999999999938e+00 9.093900000000000317e-01 1.855083000000000126e+01 -1.000000000000000021e-03 3.964939999999999909e+00 1.855893000000000015e+01 -1.760750000000000037e+00 7.018060000000000187e+00 1.855540999999999840e+01 5.277650000000000396e+00 9.139899999999999691e-01 1.855389999999999873e+01 3.513679999999999914e+00 3.961520000000000152e+00 1.855769000000000091e+01 1.758359999999999923e+00 7.017079999999999984e+00 1.855499000000000009e+01 8.800110000000000099e+00 9.187400000000000011e-01 1.855791999999999931e+01 7.036459999999999937e+00 3.959999999999999964e+00 1.855412000000000106e+01 5.277730000000000032e+00 7.010539999999999772e+00 1.855551000000000172e+01
-3.699999999999999947e-04 2.029150000000000009e+00 9.636530000000000484e+00 -1.761370000000000102e+00 5.078850000000000087e+00 9.626469999999999416e+00 -3.522289999999999921e+00 8.136169999999999902e+00 9.637520000000000309e+00 3.525980000000000114e+00 2.040080000000000116e+00 9.640349999999999753e+00 1.749710000000000099e+00 5.074930000000000163e+00 9.628450000000000841e+00 2.020000000000000094e-03 8.128030000000000754e+00 9.636670000000000513e+00 7.039930000000000021e+00 2.037319999999999798e+00 9.640660000000000451e+00 5.269700000000000273e+00 5.068399999999999572e+00 9.638719999999999288e+00 3.516529999999999934e+00 8.130319999999999325e+00 9.633520000000000749e+00 1.759060000000000068e+00 2.949860000000000149e+00 1.675256999999999863e+01 5.020000000000000157e-03 5.996920000000000250e+00 1.674397000000000091e+01 -1.759489999999999998e+00 9.051040000000000418e+00 1.674794999999999945e+01 5.279630000000000045e+00 2.940030000000000143e+00 1.675119000000000113e+01 3.518660000000000121e+00 5.989600000000000257e+00 1.675244000000000000e+01 1.759619999999999962e+00 9.048980000000000246e+00 1.674057000000000173e+01 8.805059999999999221e+00 2.943719999999999892e+00 1.674128999999999934e+01 7.039419999999999789e+00 5.987599999999999589e+00 1.674907999999999930e+01 5.282519999999999882e+00 9.040480000000000516e+00 1.675277000000000172e+01 4.190000000000000148e-03 2.029160000000000075e+00 1.326069000000000031e+01 -1.763879999999999892e+00 5.078759999999999941e+00 1.325097000000000058e+01 -3.515449999999999964e+00 8.127950000000000230e+00 1.325731000000000037e+01 3.527249999999999996e+00 2.039779999999999927e+00 1.325154999999999994e+01 1.756250000000000089e+00 5.077700000000000102e+00 1.324999000000000038e+01 -3.389999999999999784e-03 8.135139999999999816e+00 1.325430000000000064e+01 7.050629999999999953e+00 2.035950000000000149e+00 1.324827999999999939e+01 5.283220000000000027e+00 5.086710000000000065e+00 1.324516999999999989e+01 3.513609999999999900e+00 8.129350000000000520e+00 1.325755999999999979e+01 1.763449999999999962e+00 2.943029999999999813e+00 2.036402999999999963e+01 1.700000000000000122e-04 5.990680000000000227e+00 2.036656999999999940e+01 -1.756629999999999914e+00 9.045279999999999987e+00 2.036160999999999888e+01 5.265179999999999971e+00 2.945800000000000196e+00 2.036154000000000153e+01 3.526050000000000129e+00 5.994329999999999714e+00 2.036942000000000164e+01 1.758369999999999989e+00 9.037000000000000810e+00 2.036975999999999942e+01 8.790259999999999962e+00 2.944799999999999862e+00 2.036715999999999838e+01 7.032160000000000188e+00 5.994100000000000428e+00 2.036936000000000035e+01 5.282099999999999795e+00 9.042999999999999261e+00 2.037098999999999904e+01 1.106000000000000039e-02 4.199999999999999740e-03 1.144594000000000023e+01 -1.754140000000000033e+00 3.046129999999999782e+00 1.144177999999999962e+01 -3.521609999999999907e+00 6.100279999999999703e+00 1.143965000000000032e+01 -1.751679999999999904e+00 9.141170000000000684e+00 1.143858999999999959e+01 1.764159999999999950e+00 3.046660000000000146e+00 1.143937999999999988e+01 6.590000000000000371e-03 6.096940000000000026e+00 1.144983000000000040e+01 7.046560000000000379e+00 4.859999999999999737e-03 1.144904000000000011e+01 5.284779999999999589e+00 3.049129999999999896e+00 1.142975000000000030e+01 3.520169999999999799e+00 6.101110000000000255e+00 1.143825000000000003e+01 1.763379999999999947e+00 9.068699999999999539e-01 1.854821000000000097e+01 -1.510000000000000057e-03 3.965920000000000112e+00 1.856026999999999916e+01 -1.761130000000000084e+00 7.021359999999999602e+00 1.855500999999999934e+01 5.276500000000000412e+00 9.137100000000000222e-01 1.855276999999999887e+01 3.510559999999999903e+00 3.960820000000000007e+00 1.855842000000000169e+01 1.757570000000000077e+00 7.019910000000000316e+00 1.855440000000000111e+01 8.800159999999999982e+00 9.208199999999999719e-01 1.855876999999999910e+01 7.034699999999999953e+00 3.958540000000000170e+00 1.855310000000000059e+01 5.276609999999999800e+00 7.010139999999999816e+00 1.855518999999999963e+01
-4.699999999999999859e-04 2.028109999999999857e+00 9.637449999999999406e+00 -1.761810000000000098e+00 5.078260000000000218e+00 9.624109999999999943e+00 -3.523029999999999884e+00 8.138500000000000512e+00 9.638759999999999550e+00 3.527950000000000141e+00 2.042629999999999946e+00 9.642500000000000071e+00 1.746320000000000094e+00 5.073039999999999772e+00 9.626720000000000610e+00 2.729999999999999788e-03 8.127670000000000172e+00 9.637660000000000338e+00 7.039939999999999642e+00 2.038969999999999949e+00 9.642920000000000158e+00 5.266300000000000203e+00 5.064379999999999882e+00 9.640330000000000510e+00 3.515410000000000146e+00 8.130750000000000810e+00 9.633480000000000487e+00 1.758729999999999905e+00 2.950860000000000039e+00 1.675449000000000055e+01 6.669999999999999714e-03 5.997499999999999609e+00 1.674306999999999945e+01 -1.759319999999999995e+00 9.053490000000000038e+00 1.674830000000000041e+01 5.279480000000000395e+00 2.937809999999999810e+00 1.675265999999999877e+01 3.518200000000000216e+00 5.987759999999999749e+00 1.675431999999999988e+01 1.759509999999999907e+00 9.050769999999999982e+00 1.673854000000000042e+01 8.806739999999999569e+00 2.942720000000000002e+00 1.673950999999999922e+01 7.039229999999999876e+00 5.985109999999999708e+00 1.674986000000000175e+01 5.283330000000000304e+00 9.039440000000000808e+00 1.675475000000000136e+01 5.599999999999999943e-03 2.028129999999999988e+00 1.326285999999999987e+01 -1.765160000000000062e+00 5.078129999999999811e+00 1.324990999999999985e+01 -3.513920000000000154e+00 8.127570000000000405e+00 1.325835999999999970e+01 3.529669999999999863e+00 2.042250000000000121e+00 1.325067999999999913e+01 1.755030000000000090e+00 5.076710000000000278e+00 1.324863000000000035e+01 -4.490000000000000067e-03 8.137140000000000484e+00 1.325437999999999938e+01 7.054140000000000299e+00 2.037180000000000213e+00 1.324637000000000064e+01 5.284279999999999866e+00 5.088689999999999714e+00 1.324220000000000041e+01 3.511530000000000040e+00 8.129429999999999268e+00 1.325869999999999926e+01 1.764569999999999972e+00 2.941749999999999865e+00 2.036314000000000135e+01 2.200000000000000078e-04 5.989220000000000432e+00 2.036649999999999849e+01 -1.755519999999999969e+00 9.045830000000000481e+00 2.035994000000000170e+01 5.260279999999999845e+00 2.945469999999999811e+00 2.035981999999999914e+01 3.528020000000000156e+00 5.994049999999999656e+00 2.037030000000000030e+01 1.757830000000000004e+00 9.034829999999999472e+00 2.037075000000000102e+01 8.787039999999999296e+00 2.944160000000000110e+00 2.036730999999999980e+01 7.029580000000000162e+00 5.993730000000000224e+00 2.037020000000000053e+01 5.282799999999999940e+00 9.042799999999999727e+00 2.037237999999999971e+01 1.464000000000000024e-02 5.550000000000000246e-03 1.144708999999999932e+01 -1.752170000000000005e+00 3.045399999999999885e+00 1.144152000000000058e+01 -3.522139999999999826e+00 6.101420000000000066e+00 1.143865000000000087e+01 -1.748969999999999914e+00 9.139879999999999782e+00 1.143731999999999971e+01 1.765500000000000069e+00 3.046089999999999964e+00 1.143837000000000081e+01 8.699999999999999400e-03 6.096980000000000288e+00 1.145215999999999923e+01 7.048680000000000057e+00 6.450000000000000004e-03 1.145112999999999914e+01 5.286380000000000301e+00 3.049370000000000136e+00 1.142570000000000086e+01 3.520150000000000112e+00 6.102490000000000414e+00 1.143683000000000050e+01 1.764480000000000048e+00 9.043900000000000272e-01 1.854566000000000159e+01 -2.040000000000000147e-03 3.966880000000000184e+00 1.856159999999999854e+01 -1.761500000000000066e+00 7.024600000000000399e+00 1.855461999999999989e+01 5.275380000000000180e+00 9.134200000000000097e-01 1.855167000000000144e+01 3.507480000000000153e+00 3.960150000000000059e+00 1.855912999999999968e+01 1.756799999999999917e+00 7.022689999999999877e+00 1.855382000000000176e+01 8.800200000000000244e+00 9.228399999999999936e-01 1.855960999999999927e+01 7.032969999999999722e+00 3.957079999999999931e+00 1.855210999999999899e+01 5.275500000000000078e+00 7.009730000000000238e+00 1.855488000000000071e+01
-5.599999999999999509e-04 2.027070000000000149e+00 9.638350000000000861e+00 -1.762240000000000029e+00 5.077679999999999971e+00 9.621790000000000731e+00 -3.523750000000000160e+00 8.140819999999999723e+00 9.639960000000000306e+00 3.529910000000000103e+00 2.045139999999999958e+00 9.644590000000000884e+00 1.742949999999999999e+00 5.071170000000000400e+00 9.625000000000000000e+00 3.459999999999999968e-03 8.127319999999999212e+00 9.638640000000000541e+00 7.039990000000000414e+00 2.040589999999999904e+00 9.645129999999999981e+00 5.262940000000000396e+00 5.060430000000000206e+00 9.641880000000000450e+00 3.514310000000000045e+00 8.131199999999999761e+00 9.633440000000000225e+00 1.758380000000000054e+00 2.951859999999999928e+00 1.675638000000000005e+01 8.279999999999999166e-03 5.998099999999999987e+00 1.674220000000000041e+01 -1.759139999999999926e+00 9.055910000000000792e+00 1.674859999999999971e+01 5.279309999999999725e+00 2.935620000000000118e+00 1.675409000000000148e+01 3.517739999999999867e+00 5.985940000000000261e+00 1.675618000000000052e+01 1.759409999999999918e+00 9.052569999999999339e+00 1.673652999999999835e+01 8.808400000000000674e+00 2.941739999999999799e+00 1.673776000000000153e+01 7.039049999999999585e+00 5.982639999999999958e+00 1.675064000000000064e+01 5.284119999999999706e+00 9.038410000000000721e+00 1.675669999999999860e+01 7.020000000000000198e-03 2.027109999999999967e+00 1.326501999999999981e+01 -1.766429999999999945e+00 5.077499999999999680e+00 1.324887000000000015e+01 -3.512379999999999836e+00 8.127190000000000580e+00 1.325939999999999941e+01 3.532099999999999795e+00 2.044700000000000184e+00 1.324980000000000047e+01 1.753859999999999975e+00 5.075719999999999565e+00 1.324729999999999919e+01 -5.570000000000000298e-03 8.139110000000000511e+00 1.325446999999999953e+01 7.057620000000000005e+00 2.038419999999999899e+00 1.324447999999999936e+01 5.285330000000000084e+00 5.090650000000000119e+00 1.323925000000000018e+01 3.509500000000000064e+00 8.129509999999999792e+00 1.325982999999999912e+01 1.765640000000000098e+00 2.940459999999999852e+00 2.036226999999999876e+01 2.599999999999999772e-04 5.987790000000000390e+00 2.036643000000000114e+01 -1.754429999999999934e+00 9.046369999999999578e+00 2.035829999999999984e+01 5.255410000000000359e+00 2.945120000000000182e+00 2.035812999999999917e+01 3.529949999999999921e+00 5.993789999999999729e+00 2.037115999999999971e+01 1.757290000000000019e+00 9.032709999999999795e+00 2.037172999999999945e+01 8.783830000000000027e+00 2.943540000000000045e+00 2.036746000000000123e+01 7.027020000000000266e+00 5.993360000000000021e+00 2.037100999999999829e+01 5.283500000000000085e+00 9.042609999999999815e+00 2.037372999999999834e+01 1.811000000000000110e-02 6.859999999999999779e-03 1.144825999999999944e+01 -1.750189999999999912e+00 3.044690000000000119e+00 1.144125999999999976e+01 -3.522639999999999993e+00 6.102540000000000298e+00 1.143762000000000079e+01 -1.746320000000000094e+00 9.138650000000000162e+00 1.143609999999999971e+01 1.766790000000000083e+00 3.045519999999999783e+00 1.143740999999999985e+01 1.072000000000000036e-02 6.097010000000000041e+00 1.145439999999999969e+01 7.050749999999999851e+00 8.009999999999999759e-03 1.145317000000000007e+01 5.287989999999999746e+00 3.049619999999999997e+00 1.142182000000000031e+01 3.520070000000000032e+00 6.103830000000000311e+00 1.143543999999999983e+01 1.765570000000000084e+00 9.019700000000000495e-01 1.854319999999999879e+01 -2.589999999999999854e-03 3.967810000000000059e+00 1.856289999999999907e+01 -1.761859999999999982e+00 7.027739999999999654e+00 1.855423000000000044e+01 5.274309999999999832e+00 9.131099999999999772e-01 1.855060999999999893e+01 3.504459999999999908e+00 3.959499999999999797e+00 1.855983000000000160e+01 1.756059999999999954e+00 7.025409999999999933e+00 1.855326000000000164e+01 8.800230000000000885e+00 9.248199999999999754e-01 1.856044999999999945e+01 7.031270000000000131e+00 3.955630000000000202e+00 1.855114999999999981e+01 5.274420000000000108e+00 7.009310000000000151e+00 1.855461000000000027e+01
-6.300000000000000261e-04 2.026040000000000063e+00 9.639219999999999899e+00 -1.762650000000000050e+00 5.077119999999999855e+00 9.619510000000000005e+00 -3.524449999999999861e+00 8.143119999999999692e+00 9.641130000000000422e+00 3.531839999999999868e+00 2.047590000000000021e+00 9.646620000000000417e+00 1.739610000000000101e+00 5.069329999999999892e+00 9.623300000000000409e+00 4.230000000000000253e-03 8.126950000000000784e+00 9.639609999999999346e+00 7.040070000000000050e+00 2.042180000000000106e+00 9.647280000000000300e+00 5.259610000000000340e+00 5.056560000000000166e+00 9.643370000000000886e+00 3.513250000000000206e+00 8.131679999999999353e+00 9.633419999999999206e+00 1.758019999999999916e+00 2.952850000000000197e+00 1.675824000000000069e+01 9.870000000000000301e-03 5.998719999999999608e+00 1.674133000000000138e+01 -1.758950000000000014e+00 9.058310000000000528e+00 1.674883000000000166e+01 5.279110000000000191e+00 2.933450000000000113e+00 1.675547999999999860e+01 3.517269999999999897e+00 5.984149999999999636e+00 1.675800999999999874e+01 1.759319999999999995e+00 9.054370000000000474e+00 1.673453999999999908e+01 8.810060000000000002e+00 2.940789999999999793e+00 1.673601999999999990e+01 7.038859999999999673e+00 5.980199999999999960e+00 1.675140999999999991e+01 5.284880000000000244e+00 9.037380000000000635e+00 1.675861000000000089e+01 8.460000000000000506e-03 2.026110000000000078e+00 1.326716000000000051e+01 -1.767679999999999918e+00 5.076880000000000059e+00 1.324782000000000082e+01 -3.510819999999999830e+00 8.126810000000000755e+00 1.326043999999999912e+01 3.534530000000000172e+00 2.047109999999999985e+00 1.324890000000000079e+01 1.752720000000000056e+00 5.074720000000000120e+00 1.324597999999999942e+01 -6.610000000000000424e-03 8.141069999999999141e+00 1.325459000000000032e+01 7.061069999999999958e+00 2.039680000000000160e+00 1.324263000000000012e+01 5.286349999999999660e+00 5.092590000000000394e+00 1.323630999999999958e+01 3.507519999999999971e+00 8.129580000000000695e+00 1.326096000000000075e+01 1.766680000000000028e+00 2.939160000000000217e+00 2.036140999999999934e+01 2.900000000000000017e-04 5.986390000000000100e+00 2.036636000000000024e+01 -1.753349999999999964e+00 9.046920000000000073e+00 2.035670000000000002e+01 5.250580000000000247e+00 2.944770000000000110e+00 2.035644999999999882e+01 3.531829999999999803e+00 5.993529999999999802e+00 2.037200999999999951e+01 1.756750000000000034e+00 9.030620000000000758e+00 2.037268999999999863e+01 8.780630000000000379e+00 2.942940000000000111e+00 2.036762999999999835e+01 7.024499999999999744e+00 5.993000000000000327e+00 2.037179000000000073e+01 5.284189999999999721e+00 9.042419999999999902e+00 2.037507000000000090e+01 2.147999999999999909e-02 8.109999999999999154e-03 1.144945000000000057e+01 -1.748189999999999911e+00 3.044020000000000170e+00 1.144100000000000072e+01 -3.523130000000000095e+00 6.103640000000000398e+00 1.143656000000000006e+01 -1.743740000000000068e+00 9.137489999999999668e+00 1.143495000000000061e+01 1.768019999999999925e+00 3.044970000000000176e+00 1.143648999999999916e+01 1.265999999999999938e-02 6.097030000000000172e+00 1.145655000000000001e+01 7.052749999999999631e+00 9.539999999999999869e-03 1.145514000000000010e+01 5.289600000000000080e+00 3.049859999999999793e+00 1.141816999999999993e+01 3.519909999999999872e+00 6.105120000000000324e+00 1.143407000000000018e+01 1.766620000000000079e+00 8.996199999999999752e-01 1.854085999999999856e+01 -3.170000000000000075e-03 3.968700000000000117e+00 1.856416000000000111e+01 -1.762219999999999898e+00 7.030780000000000030e+00 1.855385000000000062e+01 5.273279999999999745e+00 9.127800000000000358e-01 1.854960000000000164e+01 3.501500000000000057e+00 3.958880000000000177e+00 1.856051000000000073e+01 1.755360000000000031e+00 7.028059999999999974e+00 1.855273000000000039e+01 8.800240000000000506e+00 9.267199999999999882e-01 1.856127000000000038e+01 7.029609999999999914e+00 3.954180000000000028e+00 1.855022999999999911e+01 5.273360000000000269e+00 7.008890000000000065e+00 1.855436999999999870e+01