2.500000000000000120e-05 8.649999999999999920e-04 -1.101199999999999922e-02 1.800000000000000046e-05 8.639999999999999677e-04 -1.101300000000000022e-02 2.000000000000000164e-05 8.620000000000000275e-04 -1.101000000000000069e-02 6.999999999999999895e-06 8.599999999999999789e-04 -1.099100000000000077e-02 1.599999999999999928e-05 8.540000000000000499e-04 -1.099100000000000077e-02 7.999999999999999638e-06 8.599999999999999789e-04 -1.099600000000000057e-02 -9.000000000000000228e-06 8.480000000000000124e-04 -1.101099999999999995e-02 -1.099999999999999971e-05 8.499999999999999526e-04 -1.100399999999999989e-02 -6.000000000000000152e-06 8.419999999999999750e-04 -1.100600000000000016e-02 2.199999999999999943e-05 9.625999999999999140e-03 -1.033500000000000044e-02 2.400000000000000061e-05 9.634999999999999468e-03 -1.033500000000000044e-02 1.200000000000000030e-05 9.627000000000000141e-03 -1.033700000000000070e-02 9.000000000000000228e-06 9.631000000000000671e-03 -1.031999999999999931e-02 0.000000000000000000e+00 9.622999999999999610e-03 -1.031900000000000005e-02 1.800000000000000046e-05 9.617000000000000548e-03 -1.031699999999999978e-02 -1.200000000000000030e-05 9.608999999999999486e-03 -1.032800000000000037e-02 -3.999999999999999819e-06 9.610000000000000486e-03 -1.033199999999999917e-02 -1.000000000000000082e-05 9.620999999999999344e-03 -1.032600000000000011e-02 2.599999999999999840e-05 -1.023199999999999978e-02 1.036699999999999948e-02 1.699999999999999987e-05 -1.023400000000000004e-02 1.036800000000000048e-02 2.000000000000000164e-05 -1.023499999999999931e-02 1.036399999999999995e-02 6.999999999999999895e-06 -1.023699999999999957e-02 1.034799999999999956e-02 1.699999999999999987e-05 -1.024300000000000037e-02 1.034700000000000029e-02 1.000000000000000082e-05 -1.023800000000000057e-02 1.035200000000000009e-02 -9.000000000000000228e-06 -1.024899999999999943e-02 1.036800000000000048e-02 -1.099999999999999971e-05 -1.024699999999999916e-02 1.035900000000000015e-02 -6.000000000000000152e-06 -1.025599999999999949e-02 1.036499999999999921e-02 2.199999999999999943e-05 2.469999999999999865e-04 1.062800000000000029e-02 2.400000000000000061e-05 2.559999999999999884e-04 1.062899999999999956e-02 1.299999999999999920e-05 2.469999999999999865e-04 1.063000000000000056e-02 1.200000000000000030e-05 2.509999999999999753e-04 1.061299999999999917e-02 9.999999999999999547e-07 2.449999999999999921e-04 1.061100000000000064e-02 1.900000000000000105e-05 2.380000000000000117e-04 1.060999999999999964e-02 -1.099999999999999971e-05 2.290000000000000098e-04 1.062300000000000050e-02 -3.000000000000000076e-06 2.300000000000000070e-04 1.062600000000000003e-02 -9.000000000000000228e-06 2.429999999999999977e-04 1.062199999999999950e-02 -1.000000000000000082e-05 -3.419999999999999863e-03 -8.120000000000000048e-04 -1.200000000000000030e-05 -3.416000000000000199e-03 -8.120000000000000048e-04 -1.699999999999999987e-05 -3.416000000000000199e-03 -8.130000000000000291e-04 -6.999999999999999895e-06 -3.410999999999999970e-03 -8.189999999999999581e-04 -1.999999999999999909e-06 -3.412000000000000102e-03 -8.220000000000000310e-04 -3.000000000000000076e-06 -3.413999999999999934e-03 -8.170000000000000179e-04 -2.799999999999999958e-05 -3.426999999999999925e-03 -8.189999999999999581e-04 -3.199999999999999855e-05 -3.422999999999999828e-03 -8.170000000000000179e-04 -2.500000000000000120e-05 -3.429000000000000190e-03 -8.199999999999999824e-04 -1.699999999999999987e-05 2.910999999999999959e-03 8.469999999999999881e-04 -1.299999999999999920e-05 2.906999999999999862e-03 8.440000000000000236e-04 -1.200000000000000030e-05 2.907999999999999995e-03 8.450000000000000479e-04 -1.999999999999999909e-06 2.912999999999999791e-03 8.499999999999999526e-04 -6.000000000000000152e-06 2.915000000000000056e-03 8.540000000000000499e-04 -3.000000000000000076e-06 2.915000000000000056e-03 8.549999999999999658e-04 -2.599999999999999840e-05 2.899999999999999800e-03 8.520000000000000013e-04 -2.500000000000000120e-05 2.899000000000000101e-03 8.520000000000000013e-04 -3.000000000000000076e-05 2.903000000000000198e-03 8.499999999999999526e-04
1.282400000000000033e-02 4.662999999999999610e-03 -2.824099999999999874e-02 1.225000000000000047e-02 1.462899999999999964e-02 2.678300000000000125e-02 1.611299999999999885e-02 -1.627899999999999833e-02 -3.577999999999999931e-02 -1.464700000000000030e-02 -3.648099999999999954e-02 -5.658200000000000035e-02 2.633200000000000124e-02 1.997600000000000070e-02 4.008000000000000278e-03 2.190800000000000039e-02 -1.286999999999999950e-03 -1.371700000000000003e-02 2.422600000000000101e-02 -2.337200000000000041e-02 -5.314599999999999880e-02 2.806499999999999967e-02 5.739299999999999957e-02 -5.545699999999999935e-02 2.468300000000000008e-02 1.571099999999999927e-02 -1.800000000000000046e-05 -1.199700000000000072e-02 -2.484999999999999796e-03 -3.510100000000000026e-02 -2.213999999999999996e-02 1.711700000000000027e-02 5.389999999999999826e-03 3.240999999999999957e-03 -1.498599999999999932e-02 -5.191599999999999687e-02 -1.844200000000000006e-02 3.139399999999999830e-02 -3.398299999999999932e-02 -6.199999999999999782e-03 2.600099999999999981e-02 -2.923399999999999957e-02 9.823000000000000134e-03 8.618999999999999925e-03 6.637999999999999803e-03 -1.005499999999999970e-02 2.644000000000000170e-02 1.026200000000000029e-02 2.520999999999999804e-03 3.197400000000000242e-02 -1.465299999999999936e-02 -1.911799999999999958e-02 1.173899999999999944e-02 -3.648699999999999860e-02 8.887000000000000802e-03 2.294000000000000032e-03 -4.409999999999999858e-03 1.051000000000000024e-02 -1.840999999999999972e-03 1.139599999999999988e-02 8.384000000000000827e-03 -4.910999999999999567e-03 2.292000000000000200e-03 1.766999999999999908e-03 -3.141499999999999848e-02 -1.196999999999999930e-03 2.932299999999999837e-02 -5.749999999999999903e-03 2.487400000000000028e-02 2.227499999999999966e-02 -2.276800000000000004e-02 2.278099999999999917e-02 -2.680400000000000144e-02 -1.397999999999999937e-03 3.273100000000000315e-02 -1.285099999999999958e-02 -2.611899999999999986e-02 2.211400000000000171e-02 3.980500000000000010e-02 -1.008700000000000048e-02 1.495000000000000018e-03 -2.830900000000000083e-02 -1.199899999999999925e-02 1.988799999999999943e-02 -7.047999999999999578e-03 2.947299999999999920e-02 5.486000000000000425e-03 -1.122300000000000034e-02 -2.298999999999999828e-03 3.670199999999999851e-02 3.064300000000000010e-02 -4.438000000000000105e-03 2.550200000000000036e-02 -3.436000000000000165e-02 9.565000000000000585e-03 -2.922000000000000118e-03 9.100000000000000287e-05 3.142199999999999854e-02 -1.593000000000000015e-03 1.496399999999999987e-02 1.609700000000000020e-02 1.487899999999999986e-02 2.367199999999999860e-02 1.196000000000000014e-03 -1.549000000000000030e-02 -1.858999999999999975e-03 3.720000000000000216e-03 -1.341600000000000084e-02 -6.326700000000000379e-02 -3.124700000000000047e-02 1.101000000000000069e-02 7.132000000000000318e-03 1.396400000000000072e-02 3.780000000000000265e-04 9.096999999999999184e-03 -1.270499999999999928e-02 -1.745800000000000129e-02 -3.669200000000000239e-02 3.387699999999999739e-02 3.192099999999999799e-02 -2.917600000000000054e-02 3.184999999999999897e-03 2.673100000000000129e-02 -4.999499999999999778e-02 -5.845999999999999634e-03 -5.358600000000000169e-02 -3.515499999999999875e-02 -2.103000000000000008e-02 -3.645099999999999729e-02 3.222000000000000038e-03 -4.200000000000000174e-04 1.142780000000000046e-01 -3.968900000000000206e-02 -2.858000000000000124e-02 1.234200000000000054e-02 -1.385699999999999953e-02 4.115900000000000114e-02 6.264300000000000423e-02 -1.430999999999999980e-02 -1.842699999999999894e-02 -1.685800000000000146e-02 3.485999999999999949e-03 -5.563400000000000289e-02 4.159000000000000370e-03 2.664800000000000155e-02 -8.288000000000000228e-03 2.671199999999999963e-02 3.806500000000000161e-02 1.724099999999999938e-02 -1.049500000000000086e-02 2.150499999999999981e-02 -3.799199999999999799e-02 1.430400000000000074e-02 -7.527999999999999969e-03 -3.569499999999999756e-02 -5.426000000000000267e-03 1.958400000000000071e-02 6.160999999999999810e-03 2.344699999999999909e-02 1.358099999999999932e-02 -1.562999999999999936e-03 1.968599999999999864e-02
2.563999999999999960e-02 8.448999999999999913e-03 -4.550300000000000178e-02 2.399099999999999844e-02 2.803599999999999842e-02 6.349499999999999589e-02 3.235299999999999981e-02 -3.331800000000000039e-02 -6.069399999999999795e-02 -2.971499999999999836e-02 -7.415900000000000269e-02 -1.023079999999999962e-01 5.219300000000000328e-02 3.877200000000000091e-02 1.865999999999999950e-02 4.358200000000000268e-02 -3.507999999999999834e-03 -1.682700000000000168e-02 4.894799999999999846e-02 -4.781200000000000033e-02 -9.558400000000000230e-02 5.587500000000000105e-02 1.146760000000000002e-01 -1.007669999999999955e-01 4.892699999999999827e-02 3.028600000000000042e-02 1.030999999999999972e-02 -2.415399999999999839e-02 -1.468099999999999961e-02 -6.001999999999999696e-02 -4.404500000000000082e-02 2.443199999999999886e-02 2.082000000000000170e-02 6.651999999999999927e-03 -3.973399999999999849e-02 -9.370900000000000063e-02 -3.673099999999999976e-02 5.321499999999999841e-02 -5.782400000000000040e-02 -1.233800000000000001e-02 4.239799999999999819e-02 -4.815200000000000036e-02 1.950100000000000097e-02 7.485999999999999599e-03 2.350000000000000006e-02 -2.006199999999999997e-02 4.293700000000000294e-02 3.063600000000000004e-02 4.934000000000000018e-03 5.423800000000000149e-02 -1.901299999999999865e-02 -3.832800000000000096e-02 1.375200000000000033e-02 -6.266299999999999648e-02 1.761499999999999871e-02 1.480000000000000066e-02 -1.886600000000000082e-02 2.096200000000000147e-02 6.625999999999999945e-03 1.243900000000000040e-02 1.667799999999999838e-02 2.079999999999999872e-04 -5.746000000000000239e-03 3.420999999999999996e-03 -5.226499999999999896e-02 -1.233199999999999921e-02 5.862300000000000150e-02 -1.461999999999999975e-03 3.972699999999999843e-02 4.446599999999999858e-02 -3.528599999999999792e-02 3.522299999999999737e-02 -5.344000000000000139e-02 7.381000000000000408e-03 5.556799999999999934e-02 -2.572999999999999940e-02 -4.177299999999999763e-02 3.417599999999999805e-02 7.912900000000000489e-02 -1.023300000000000078e-02 -6.732000000000000137e-03 -5.679000000000000020e-02 -2.416000000000000092e-02 2.956200000000000147e-02 -1.400999999999999988e-02 5.861600000000000144e-02 8.310000000000000329e-04 -2.243300000000000155e-02 -4.832999999999999623e-03 6.291499999999999870e-02 6.139200000000000212e-02 -9.164999999999999536e-03 4.059000000000000108e-02 -6.823500000000000398e-02 1.872199999999999906e-02 -1.603399999999999964e-02 2.799999999999999755e-04 6.239200000000000301e-02 -1.330600000000000012e-02 2.974999999999999867e-02 3.185700000000000337e-02 1.932000000000000037e-02 4.697899999999999993e-02 2.075000000000000022e-03 -4.102999999999999703e-02 -3.837999999999999832e-03 7.100999999999999673e-03 -3.703999999999999654e-02 -1.255010000000000014e-01 -5.847900000000000320e-02 2.293099999999999999e-02 1.434999999999999991e-02 3.137399999999999911e-02 1.533000000000000074e-03 1.826200000000000045e-02 -2.171400000000000066e-02 -3.396899999999999920e-02 -7.318700000000000205e-02 7.085199999999999831e-02 6.407599999999999407e-02 -5.806900000000000256e-02 9.887999999999999221e-03 5.401199999999999751e-02 -9.937500000000000500e-02 -7.858999999999999667e-03 -1.056630000000000069e-01 -7.002099999999999991e-02 -3.860999999999999849e-02 -7.186499999999999833e-02 6.303999999999999708e-03 2.207999999999999893e-03 2.301370000000000082e-01 -7.877199999999999480e-02 -5.342700000000000227e-02 2.567699999999999844e-02 -2.768299999999999927e-02 7.934299999999999686e-02 1.241540000000000005e-01 -2.844100000000000100e-02 -3.961800000000000044e-02 -3.456999999999999656e-02 7.004999999999999942e-03 -1.135509999999999992e-01 7.028999999999999658e-03 5.326199999999999685e-02 -1.939600000000000005e-02 5.243300000000000044e-02 7.600899999999999324e-02 3.179699999999999888e-02 -2.181500000000000106e-02 4.264199999999999935e-02 -7.840999999999999359e-02 2.707599999999999937e-02 -1.487699999999999960e-02 -7.389199999999999935e-02 -1.182700000000000071e-02 3.891599999999999920e-02 9.286000000000000851e-03 4.596700000000000091e-02 2.712600000000000081e-02 -6.039000000000000097e-03 3.827400000000000246e-02
3.838600000000000345e-02 1.215399999999999987e-02 -6.260599999999999499e-02 3.515499999999999875e-02 4.100299999999999778e-02 9.913500000000000090e-02 4.856200000000000100e-02 -5.022200000000000275e-02 -8.543100000000000693e-02 -4.512399999999999745e-02 -1.119389999999999968e-01 -1.479920000000000124e-01 7.756100000000000494e-02 5.720700000000000091e-02 3.301199999999999968e-02 6.486599999999999311e-02 -5.719000000000000125e-03 -2.024799999999999864e-02 7.402699999999999558e-02 -7.236199999999999577e-02 -1.381390000000000118e-01 8.335399999999999754e-02 1.724960000000000104e-01 -1.466310000000000113e-01 7.259999999999999787e-02 4.446499999999999758e-02 2.020599999999999827e-02 -3.637100000000000055e-02 -2.695900000000000032e-02 -8.482900000000000162e-02 -6.564599999999999602e-02 3.148700000000000110e-02 3.597100000000000297e-02 1.013499999999999991e-02 -6.458700000000000552e-02 -1.352669999999999983e-01 -5.475499999999999812e-02 7.504299999999999859e-02 -8.167299999999999560e-02 -1.837099999999999844e-02 5.875600000000000267e-02 -6.700799999999999812e-02 2.897100000000000022e-02 6.054999999999999619e-03 4.024799999999999905e-02 -3.006899999999999851e-02 5.907599999999999657e-02 5.079000000000000181e-02 7.270000000000000420e-03 7.632899999999999407e-02 -2.342999999999999944e-02 -5.743899999999999700e-02 1.573300000000000046e-02 -8.870699999999999419e-02 2.604700000000000071e-02 2.715199999999999905e-02 -3.306300000000000211e-02 3.138900000000000023e-02 1.517100000000000046e-02 1.344500000000000035e-02 2.465399999999999883e-02 5.095999999999999835e-03 -1.376499999999999946e-02 4.808999999999999907e-03 -7.272099999999999398e-02 -2.280899999999999941e-02 8.764099999999999668e-02 2.717999999999999930e-03 5.484100000000000086e-02 6.657499999999999529e-02 -4.785600000000000270e-02 4.752599999999999880e-02 -7.974499999999999644e-02 1.588399999999999881e-02 7.874000000000000443e-02 -3.862299999999999761e-02 -5.706599999999999867e-02 4.657900000000000235e-02 1.177440000000000014e-01 -1.066199999999999960e-02 -1.448799999999999914e-02 -8.532399999999999707e-02 -3.602299999999999947e-02 3.953099999999999670e-02 -2.083099999999999882e-02 8.750199999999999645e-02 -3.520000000000000125e-03 -3.361900000000000305e-02 -7.451000000000000158e-03 8.916599999999999526e-02 9.228100000000000191e-02 -1.387200000000000065e-02 5.585799999999999793e-02 -1.015589999999999965e-01 2.760800000000000060e-02 -2.858000000000000124e-02 6.059999999999999849e-04 9.299100000000000421e-02 -2.447699999999999876e-02 4.442200000000000315e-02 4.742999999999999994e-02 2.382199999999999943e-02 6.996099999999999541e-02 2.844999999999999873e-03 -6.588399999999999812e-02 -5.941000000000000100e-03 1.037899999999999934e-02 -6.014900000000000108e-02 -1.864909999999999901e-01 -8.499299999999999911e-02 3.473699999999999705e-02 2.148800000000000016e-02 4.864500000000000074e-02 2.654000000000000109e-03 2.738099999999999909e-02 -3.042999999999999872e-02 -5.013800000000000201e-02 -1.093070000000000014e-01 1.072970000000000035e-01 9.536899999999999544e-02 -8.653299999999999881e-02 1.664300000000000154e-02 8.076099999999999945e-02 -1.478190000000000059e-01 -9.438999999999999474e-03 -1.566079999999999972e-01 -1.043430000000000052e-01 -5.609900000000000303e-02 -1.068270000000000053e-01 9.183999999999999456e-03 4.449999999999999963e-03 3.456650000000000000e-01 -1.169830000000000036e-01 -7.774899999999999867e-02 3.911300000000000193e-02 -4.140499999999999736e-02 1.172740000000000032e-01 1.848400000000000043e-01 -4.220999999999999752e-02 -6.052899999999999947e-02 -5.213799999999999685e-02 1.052600000000000063e-02 -1.705450000000000021e-01 9.419999999999999554e-03 7.960599999999999621e-02 -3.031400000000000067e-02 7.778400000000000591e-02 1.135869999999999935e-01 4.646800000000000236e-02 -3.305199999999999805e-02 6.323299999999999754e-02 -1.182580000000000020e-01 3.910500000000000087e-02 -2.198299999999999907e-02 -1.114440000000000014e-01 -1.834500000000000020e-02 5.788399999999999795e-02 1.234700000000000034e-02 6.824500000000000011e-02 4.059700000000000114e-02 -1.051000000000000024e-02 5.639399999999999968e-02
5.101800000000000085e-02 1.582899999999999932e-02 -7.939599999999999436e-02 4.569100000000000245e-02 5.340899999999999814e-02 1.334780000000000133e-01 6.475799999999999612e-02 -6.686100000000000376e-02 -1.097930000000000017e-01 -6.077500000000000263e-02 -1.496020000000000127e-01 -1.930749999999999966e-01 1.023410000000000014e-01 7.509299999999999309e-02 4.697500000000000286e-02 8.540599999999999581e-02 -7.781999999999999855e-03 -2.397900000000000031e-02 9.927999999999999325e-02 -9.676300000000000179e-02 -1.805080000000000018e-01 1.104190000000000033e-01 2.304680000000000062e-01 -1.927540000000000087e-01 9.556599999999999817e-02 5.811600000000000099e-02 2.950399999999999898e-02 -4.853699999999999681e-02 -3.933699999999999697e-02 -1.094910000000000050e-01 -8.683100000000000540e-02 3.825800000000000034e-02 5.075899999999999856e-02 1.366000000000000027e-02 -8.944900000000000073e-02 -1.761870000000000103e-01 -7.236900000000000277e-02 9.672200000000000242e-02 -1.054360000000000019e-01 -2.420599999999999835e-02 7.509399999999999409e-02 -8.580200000000000327e-02 3.821399999999999797e-02 4.257000000000000367e-03 5.692699999999999844e-02 -4.014899999999999719e-02 7.464600000000000402e-02 7.074099999999999833e-02 9.478000000000000314e-03 9.816999999999999338e-02 -2.781199999999999992e-02 -7.635200000000000320e-02 1.771700000000000011e-02 -1.144190000000000068e-01 3.409299999999999831e-02 3.937000000000000222e-02 -4.699699999999999711e-02 4.174699999999999939e-02 2.372799999999999909e-02 1.445199999999999957e-02 3.232399999999999857e-02 9.768999999999999906e-03 -2.184799999999999937e-02 5.773999999999999619e-03 -9.279300000000000048e-02 -3.259200000000000291e-02 1.161169999999999980e-01 6.745000000000000127e-03 7.023200000000000276e-02 8.839099999999999735e-02 -6.040100000000000330e-02 5.955699999999999883e-02 -1.055129999999999957e-01 2.400199999999999903e-02 1.022109999999999963e-01 -5.147899999999999698e-02 -7.188899999999999457e-02 5.942200000000000260e-02 1.553839999999999943e-01 -1.137299999999999943e-02 -2.164299999999999904e-02 -1.137510000000000049e-01 -4.743599999999999900e-02 4.989999999999999991e-02 -2.747300000000000089e-02 1.160029999999999950e-01 -7.452000000000000290e-03 -4.474299999999999805e-02 -1.022499999999999971e-02 1.153850000000000015e-01 1.232889999999999958e-01 -1.855100000000000152e-02 7.127899999999999514e-02 -1.341660000000000075e-01 3.618199999999999888e-02 -4.046899999999999803e-02 1.150999999999999896e-03 1.230839999999999990e-01 -3.518899999999999806e-02 5.895600000000000146e-02 6.260400000000000686e-02 2.844299999999999953e-02 9.254400000000000126e-02 3.487000000000000082e-03 -8.984499999999999431e-02 -8.236999999999999530e-03 1.351800000000000050e-02 -8.270099999999999674e-02 -2.457550000000000012e-01 -1.105479999999999935e-01 4.623100000000000126e-02 2.841899999999999982e-02 6.565400000000000402e-02 3.732000000000000074e-03 3.645600000000000229e-02 -3.882300000000000334e-02 -6.576100000000000001e-02 -1.448619999999999908e-01 1.430299999999999905e-01 1.255620000000000069e-01 -1.143190000000000039e-01 2.330099999999999880e-02 1.067110000000000003e-01 -1.951289999999999969e-01 -1.061299999999999917e-02 -2.060659999999999992e-01 -1.379799999999999915e-01 -7.329600000000000004e-02 -1.410879999999999912e-01 1.175799999999999935e-02 6.238999999999999754e-03 4.597330000000000028e-01 -1.539830000000000088e-01 -1.014929999999999999e-01 5.254500000000000143e-02 -5.495499999999999691e-02 1.546520000000000117e-01 2.442169999999999896e-01 -5.550100000000000172e-02 -8.106800000000000117e-02 -6.949400000000000022e-02 1.397200000000000004e-02 -2.261910000000000032e-01 1.132599999999999926e-02 1.054999999999999966e-01 -4.095800000000000135e-02 1.025220000000000020e-01 1.505920000000000036e-01 6.113600000000000284e-02 -4.414400000000000268e-02 8.319899999999999518e-02 -1.572379999999999889e-01 5.031700000000000061e-02 -2.881600000000000134e-02 -1.481520000000000059e-01 -2.498399999999999926e-02 7.635599999999999332e-02 1.535100000000000006e-02 9.010300000000000253e-02 5.392600000000000171e-02 -1.489500000000000025e-02 7.390499999999999847e-02
6.342899999999999927e-02 1.920699999999999838e-02 -9.588099999999999401e-02 5.559299999999999659e-02 6.530900000000000594e-02 1.663370000000000126e-01 8.055500000000000160e-02 -8.318000000000000393e-02 -1.337250000000000105e-01 -7.639200000000000157e-02 -1.867119999999999891e-01 -2.373719999999999997e-01 1.264949999999999963e-01 9.258500000000000063e-02 6.059300000000000103e-02 1.052089999999999970e-01 -9.764000000000000110e-03 -2.810700000000000004e-02 1.243839999999999946e-01 -1.208999999999999936e-01 -2.222179999999999989e-01 1.368089999999999862e-01 2.882430000000000270e-01 -2.383409999999999973e-01 1.177590000000000026e-01 7.105499999999999317e-02 3.846299999999999719e-02 -6.067700000000000177e-02 -5.167000000000000065e-02 -1.336019999999999985e-01 -1.074979999999999963e-01 4.449399999999999883e-02 6.526300000000000157e-02 1.716300000000000117e-02 -1.141849999999999948e-01 -2.159059999999999868e-01 -8.947399999999999798e-02 1.181569999999999981e-01 -1.288100000000000078e-01 -2.976200000000000026e-02 9.132300000000000140e-02 -1.044350000000000001e-01 4.707000000000000073e-02 1.974000000000000060e-03 7.343800000000000328e-02 -5.014400000000000107e-02 8.974799999999999445e-02 9.032900000000000651e-02 1.156000000000000083e-02 1.196590000000000015e-01 -3.221899999999999764e-02 -9.481799999999999951e-02 1.966599999999999945e-02 -1.397100000000000009e-01 4.160099999999999909e-02 5.123799999999999882e-02 -6.041699999999999848e-02 5.203499999999999792e-02 3.243499999999999855e-02 1.542800000000000074e-02 3.934499999999999803e-02 1.406400000000000011e-02 -2.977700000000000138e-02 6.348000000000000344e-03 -1.122380000000000044e-01 -4.112600000000000283e-02 1.438200000000000034e-01 1.092100000000000015e-02 8.565000000000000391e-02 1.100079999999999947e-01 -7.313000000000000056e-02 7.126300000000000689e-02 -1.306849999999999956e-01 3.159499999999999809e-02 1.258700000000000097e-01 -6.431900000000000117e-02 -8.606800000000000561e-02 7.248100000000000376e-02 1.918060000000000043e-01 -1.248999999999999937e-02 -2.851400000000000115e-02 -1.420359999999999956e-01 -5.811800000000000299e-02 6.034199999999999980e-02 -3.386600000000000027e-02 1.437549999999999939e-01 -1.116900000000000011e-02 -5.566700000000000120e-02 -1.315999999999999982e-02 1.413300000000000112e-01 1.543090000000000017e-01 -2.325400000000000036e-02 8.674199999999999966e-02 -1.659859999999999947e-01 4.431899999999999729e-02 -5.160200000000000203e-02 1.765999999999999992e-03 1.524929999999999897e-01 -4.511099999999999832e-02 7.347399999999999765e-02 7.742699999999999583e-02 3.318399999999999822e-02 1.147389999999999938e-01 3.963999999999999642e-03 -1.126560000000000061e-01 -1.064700000000000021e-02 1.650400000000000131e-02 -1.043160000000000059e-01 -3.030169999999999808e-01 -1.351870000000000016e-01 5.729800000000000171e-02 3.505099999999999882e-02 8.223900000000000654e-02 4.701999999999999583e-03 4.521200000000000219e-02 -4.685099999999999681e-02 -8.082000000000000295e-02 -1.794010000000000049e-01 1.776310000000000111e-01 1.542630000000000112e-01 -1.410609999999999919e-01 2.999699999999999936e-02 1.315060000000000118e-01 -2.406409999999999938e-01 -1.133900000000000012e-02 -2.534420000000000006e-01 -1.703649999999999887e-01 -9.020599999999999452e-02 -1.742279999999999940e-01 1.414800000000000085e-02 7.784000000000000120e-03 5.708609999999999518e-01 -1.894629999999999925e-01 -1.242540000000000033e-01 6.571699999999999764e-02 -6.809199999999999975e-02 1.912230000000000041e-01 3.014470000000000205e-01 -6.816300000000000137e-02 -1.009550000000000031e-01 -8.639199999999999657e-02 1.740099999999999980e-02 -2.799829999999999819e-01 1.263500000000000040e-02 1.305999999999999939e-01 -5.126800000000000107e-02 1.262989999999999946e-01 1.864230000000000054e-01 7.558199999999999641e-02 -5.504900000000000071e-02 1.021849999999999981e-01 -1.950850000000000084e-01 6.058800000000000296e-02 -3.532600000000000323e-02 -1.835440000000000127e-01 -3.168900000000000189e-02 9.415999999999999370e-02 1.826200000000000045e-02 1.112309999999999965e-01 6.697300000000000475e-02 -1.921099999999999891e-02 9.047900000000000387e-02
7.566399999999999515e-02 2.242099999999999996e-02 -1.118610000000000021e-01 6.482100000000000362e-02 7.659900000000000042e-02 1.975570000000000104e-01 9.611500000000000599e-02 -9.900100000000000566e-02 -1.569560000000000122e-01 -9.198299999999999532e-02 -2.231750000000000123e-01 -2.802419999999999911e-01 1.498559999999999892e-01 1.093530000000000058e-01 7.378400000000000236e-02 1.238090000000000024e-01 -1.145200000000000037e-02 -3.254399999999999654e-02 1.491959999999999953e-01 -1.445029999999999926e-01 -2.630709999999999993e-01 1.625880000000000103e-01 3.454119999999999968e-01 -2.833640000000000048e-01 1.390689999999999982e-01 8.329100000000000392e-02 4.674999999999999989e-02 -7.258199999999999374e-02 -6.399000000000000521e-02 -1.572489999999999999e-01 -1.276400000000000035e-01 5.025500000000000106e-02 7.925799999999999512e-02 2.054599999999999829e-02 -1.387569999999999915e-01 -2.541649999999999743e-01 -1.059110000000000051e-01 1.393030000000000102e-01 -1.517600000000000060e-01 -3.486800000000000316e-02 1.074480000000000018e-01 -1.228699999999999931e-01 5.563599999999999796e-02 -8.000000000000000383e-04 8.982800000000000507e-02 -6.028399999999999731e-02 1.041340000000000043e-01 1.095679999999999987e-01 1.341999999999999964e-02 1.407039999999999957e-01 -3.658800000000000247e-02 -1.127959999999999935e-01 2.158200000000000049e-02 -1.642820000000000114e-01 4.858699999999999825e-02 6.286400000000000321e-02 -7.340099999999999403e-02 6.221999999999999753e-02 4.121199999999999863e-02 1.646699999999999900e-02 4.586699999999999805e-02 1.806999999999999926e-02 -3.770600000000000340e-02 6.251999999999999745e-03 -1.312029999999999863e-01 -4.851500000000000257e-02 1.703800000000000037e-01 1.503999999999999955e-02 1.011880000000000002e-01 1.310919999999999863e-01 -8.591200000000000225e-02 8.248999999999999388e-02 -1.550229999999999941e-01 3.858500000000000124e-02 1.497960000000000125e-01 -7.698800000000000088e-02 -9.953900000000000248e-02 8.612300000000000511e-02 2.268030000000000046e-01 -1.388499999999999977e-02 -3.477999999999999842e-02 -1.699519999999999920e-01 -6.795900000000000551e-02 7.097699999999999843e-02 -4.005700000000000233e-02 1.707519999999999871e-01 -1.438500000000000022e-02 -6.641700000000000381e-02 -1.640000000000000138e-02 1.670169999999999988e-01 1.853690000000000060e-01 -2.788300000000000153e-02 1.023420000000000024e-01 -1.968100000000000127e-01 5.200799999999999867e-02 -6.200499999999999762e-02 2.639999999999999986e-03 1.811589999999999867e-01 -5.432499999999999829e-02 8.788400000000000378e-02 9.161199999999999899e-02 3.801199999999999718e-02 1.364769999999999872e-01 4.282000000000000216e-03 -1.343330000000000080e-01 -1.330899999999999965e-02 1.927099999999999994e-02 -1.251259999999999872e-01 -3.577879999999999949e-01 -1.585959999999999870e-01 6.771499999999999742e-02 4.129399999999999737e-02 9.832499999999999574e-02 5.569000000000000165e-03 5.379699999999999760e-02 -5.446999999999999759e-02 -9.507899999999999685e-02 -2.128569999999999907e-01 2.109930000000000139e-01 1.812989999999999879e-01 -1.666559999999999986e-01 3.647100000000000342e-02 1.549190000000000011e-01 -2.843899999999999761e-01 -1.171499999999999972e-02 -2.985050000000000203e-01 -2.015170000000000017e-01 -1.065720000000000001e-01 -2.060809999999999864e-01 1.618899999999999853e-02 8.961000000000000215e-03 6.779479999999999951e-01 -2.231549999999999923e-01 -1.461020000000000096e-01 7.856399999999999495e-02 -8.082799999999999707e-02 2.266680000000000084e-01 3.561710000000000154e-01 -8.007100000000000328e-02 -1.202030000000000043e-01 -1.028010000000000035e-01 2.065399999999999875e-02 -3.316069999999999851e-01 1.342400000000000017e-02 1.548009999999999942e-01 -6.109699999999999853e-02 1.489240000000000008e-01 2.211019999999999930e-01 8.972700000000000120e-02 -6.567199999999999427e-02 1.203029999999999933e-01 -2.315730000000000011e-01 6.991799999999999404e-02 -4.148199999999999804e-02 -2.175890000000000046e-01 -3.844600000000000101e-02 1.111260000000000026e-01 2.111700000000000035e-02 1.315149999999999930e-01 7.968899999999999595e-02 -2.338799999999999907e-02 1.060429999999999984e-01