1.390958760135519112e+00 -1.103060079409610723e-03 -1.808295212146902902e-05 -1.103060079409610723e-03 9.846890748224745860e-01 4.861420848335734068e-01 -1.808295212146902902e-05 4.861420848335734068e-01 4.357268143189177434e-01
1.453290696098222812e+00 -7.140957792768119761e-02 -1.287506191048594720e-02 -7.140957792768119761e-02 1.178990395367659261e+00 4.614769381398896031e-01 -1.287506191048594720e-02 4.614769381398896031e-01 7.697912718109366503e-01
1.525550172775613111e+00 -1.406311186486646492e-01 -2.486405916701991611e-02 -1.406311186486646492e-01 1.379837744580815651e+00 4.380956810468302209e-01 -2.486405916701991611e-02 4.380956810468302209e-01 1.115067159618266190e+00
1.608279678731334039e+00 -2.082251936787158642e-01 -3.596699176960189981e-02 -2.082251936787158642e-01 1.586905629323757561e+00 4.159078987937877003e-01 -3.596699176960189981e-02 4.159078987937877003e-01 1.470831159656047937e+00
1.699815582370210132e+00 -2.739024757838913748e-01 -4.629235743096071776e-02 -2.739024757838913748e-01 1.797951763533422787e+00 3.948231766201548143e-01 -4.629235743096071776e-02 3.948231766201548143e-01 1.832833778175736450e+00
1.804732870578973580e+00 -3.369758127835753569e-01 -5.576782434261048221e-02 -3.369758127835753569e-01 2.016357659256525547e+00 3.747691827174456369e-01 -5.576782434261048221e-02 3.747691827174456369e-01 2.208959182302292490e+00
1.914297477482954202e+00 -3.971558774438243011e-01 -6.457422202576590387e-02 -3.971558774438243011e-01 2.233280752905668187e+00 3.557278341335387561e-01 -6.457422202576590387e-02 3.557278341335387561e-01 2.581449913052432432e+00
2.027822250901536894e+00 -4.540810107222087999e-01 -7.267538457618402670e-02 -4.540810107222087999e-01 2.447762648018412257e+00 3.374821354429764497e-01 -7.267538457618402670e-02 3.374821354429764497e-01 2.951571777074660563e+00
2.147603725754148041e+00 -5.073533876720565106e-01 -8.032447332356543179e-02 -5.073533876720565106e-01 2.661249980764475609e+00 3.197789253160582823e-01 -8.032447332356543179e-02 3.197789253160582823e-01 3.321603226336281356e+00
2.269229661723148439e+00 -5.566294322030596042e-01 -8.743107350730275340e-02 -5.566294322030596042e-01 2.869420925586827043e+00 3.027267014655130040e-01 -8.743107350730275340e-02 3.027267014655130040e-01 3.680857236133507016e+00
-1.944541016416596335e+01 -3.425794715077317143e+00 -1.778543841048436036e+01 -3.425794715077317143e+00 -3.126745381821573844e+01 -1.884376314035517552e+01 -1.778543841048436036e+01 -1.884376314035517552e+01 -2.922636151258224757e+01
-1.966336997842188694e+01 -3.444079808657666053e+00 -1.770602190260823505e+01 -3.444079808657666053e+00 -3.147012609521596005e+01 -1.880934744680281767e+01 -1.770602190260823505e+01 -1.880934744680281767e+01 -2.984042966041329592e+01
-1.984277372445203369e+01 -3.461484370067649863e+00 -1.760185682032673782e+01 -3.461484370067649863e+00 -3.162380706103522598e+01 -1.874651117234739672e+01 -1.760185682032673782e+01 -1.874651117234739672e+01 -3.034606120820021857e+01
-1.997991192630464852e+01 -3.477933460399151855e+00 -1.747309304145610298e+01 -3.477933460399151855e+00 -3.172474977026772436e+01 -1.865555407262137777e+01 -1.747309304145610298e+01 -1.865555407262137777e+01 -3.073242748372024025e+01
-2.007489699234191249e+01 -3.493127324019708713e+00 -1.731989917853959327e+01 -3.493127324019708713e+00 -3.177359120363244926e+01 -1.853666349489505194e+01 -1.731989917853959327e+01 -1.853666349489505194e+01 -3.099994065096798579e+01
-2.012499365241758298e+01 -3.507103430383376796e+00 -1.714208788430691754e+01 -3.507103430383376796e+00 -3.176767102989126812e+01 -1.838978323498733047e+01 -1.714208788430691754e+01 -1.838978323498733047e+01 -3.114331751692127881e+01
-2.014116172184364828e+01 -3.519955453125302558e+00 -1.694040854783923322e+01 -3.519955453125302558e+00 -3.171882959652654321e+01 -1.821598117233887137e+01 -1.694040854783923322e+01 -1.821598117233887137e+01 -3.118296019931473850e+01
-2.011543894163277102e+01 -3.531252493523817648e+00 -1.671381202442292135e+01 -3.531252493523817648e+00 -3.161927325709419279e+01 -1.801445171368741782e+01 -1.671381202442292135e+01 -1.801445171368741782e+01 -3.110341254834941083e+01
-2.005284621862872285e+01 -3.541331776665444409e+00 -1.646212970151471566e+01 -3.541331776665444409e+00 -3.147451002134075893e+01 -1.778538220630327515e+01 -1.646212970151471566e+01 -1.778538220630327515e+01 -3.091494119443720479e+01
-1.994974901578788717e+01 -3.549837342736631207e+00 -1.618470586366860076e+01 -3.549837342736631207e+00 -3.128131751621723211e+01 -1.752845415982693567e+01 -1.618470586366860076e+01 -1.752845415982693567e+01 -3.060774787534193919e+01
1.738541191254446261e+01 -2.431994476349476075e-01 -6.856805984297538181e+00 -2.431994476349476075e-01 -1.091765322476623190e+01 -1.881708369962957406e+01 -6.856805984297538181e+00 -1.881708369962957406e+01 2.901348762122150760e+01
1.735792292366819112e+01 -2.254779374972072647e-01 -6.940547750541125716e+00 -2.254779374972072647e-01 -1.099972518306371150e+01 -1.888640766177933372e+01 -6.940547750541125716e+00 -1.888640766177933372e+01 2.886853751854473416e+01
1.727357069000344580e+01 -2.081334807666528619e-01 -7.006801420660945467e+00 -2.081334807666528619e-01 -1.110364828405382376e+01 -1.891454302792506681e+01 -7.006801420660945467e+00 -1.891454302792506681e+01 2.860429489980397832e+01
1.713508436002128477e+01 -1.913276717606498256e-01 -7.055782453746817673e+00 -1.913276717606498256e-01 -1.122574176828547010e+01 -1.890089728556976567e+01 -7.055782453746817673e+00 -1.890089728556976567e+01 2.822778014034256344e+01
1.693811884207699592e+01 -1.756530229762046924e-01 -7.087401075177983678e+00 -1.756530229762046924e-01 -1.137013526831354326e+01 -1.884503951653378806e+01 -7.087401075177983678e+00 -1.884503951653378806e+01 2.773342721367345831e+01
1.668768356000890662e+01 -1.613429484272897174e-01 -7.101711149726898320e+00 -1.613429484272897174e-01 -1.153138844212007363e+01 -1.874619765907861080e+01 -7.101711149726898320e+00 -1.874619765907861080e+01 2.712872332316792878e+01
1.637961297141382033e+01 -1.488104113693942965e-01 -7.098964046331686539e+00 -1.488104113693942965e-01 -1.171469026278490766e+01 -1.860447944274914178e+01 -7.098964046331686539e+00 -1.860447944274914178e+01 2.641025703323714779e+01
1.601739033157717174e+01 -1.384145102855527110e-01 -7.079680457792746573e+00 -1.384145102855527110e-01 -1.191702430305055849e+01 -1.841950781413819627e+01 -7.079680457792746573e+00 -1.841950781413819627e+01 2.558503076430028145e+01
1.559945356209775724e+01 -1.304604788863440168e-01 -7.044039933351597504e+00 -1.304604788863440168e-01 -1.214144290002281323e+01 -1.819149823233560070e+01 -7.044039933351597504e+00 -1.819149823233560070e+01 2.464983058493417900e+01
1.512817271296360389e+01 -1.251458213374370687e-01 -6.992868399519216460e+00 -1.251458213374370687e-01 -1.238798196354998105e+01 -1.792070206627947115e+01 -6.992868399519216460e+00 -1.792070206627947115e+01 2.361138959169572971e+01
6.678047667451765790e+01 2.978439410107533991e+00 -1.175958087688986886e+01 2.978439410107533991e+00 4.439683848225102025e+01 -1.200432419759223457e+01 -1.175958087688986886e+01 -1.200432419759223457e+01 7.482557413546089720e+01
6.637319842616402354e+01 3.108711485216773429e+00 -1.167198121368197583e+01 3.108711485216773429e+00 4.435442037554575023e+01 -1.202843233018012192e+01 -1.167198121368197583e+01 -1.202843233018012192e+01 7.427752948424002000e+01
6.582237337146605682e+01 3.226471744679134002e+00 -1.154535417971647604e+01 3.226471744679134002e+00 4.419717499597283705e+01 -1.202027761022599250e+01 -1.154535417971647604e+01 -1.202027761022599250e+01 7.340516093962509103e+01
6.513324019746288229e+01 3.330024820520783635e+00 -1.138088653257504745e+01 3.330024820520783635e+00 4.392476326993754299e+01 -1.197928361261873675e+01 -1.138088653257504745e+01 -1.197928361261873675e+01 7.221555513974675478e+01
6.431286858860539724e+01 3.418014418362656848e+00 -1.118022277919230945e+01 3.418014418362656848e+00 4.353793115934832514e+01 -1.190480609752830432e+01 -1.118022277919230945e+01 -1.190480609752830432e+01 7.071769753486631771e+01
6.337014227307646053e+01 3.489287687982546959e+00 -1.094583815681005667e+01 3.489287687982546959e+00 4.303856052265615517e+01 -1.179647208400044889e+01 -1.094583815681005667e+01 -1.179647208400044889e+01 6.892482894885939970e+01
6.231497915352299088e+01 3.543183435870662645e+00 -1.068069955938249294e+01 3.543183435870662645e+00 4.242900792134465604e+01 -1.165419680363647892e+01 -1.068069955938249294e+01 -1.165419680363647892e+01 6.685354703418980193e+01
6.115878905640888519e+01 3.579379542111972512e+00 -1.038867242588995587e+01 3.579379542111972512e+00 4.171307097967520150e+01 -1.147835323739064073e+01 -1.038867242588995587e+01 -1.147835323739064073e+01 6.452238216281153882e+01
5.991545704543981543e+01 3.598045543503860522e+00 -1.007399517626702767e+01 3.598045543503860522e+00 4.089697169811175570e+01 -1.126975516189036952e+01 -1.007399517626702767e+01 -1.126975516189036952e+01 6.195740909416211650e+01
5.859900381375938849e+01 3.599774818837169210e+00 -9.741482655559385861e+00 3.599774818837169210e+00 3.998733896543202349e+01 -1.102994536199185482e+01 -9.741482655559385861e+00 -1.102994536199185482e+01 5.918477040239802989e+01
2.819577830672261243e+01 -1.105536531501927122e+01 8.737176804027665611e+00 -1.105536531501927122e+01 4.208495890815334661e+01 2.611864201993982348e+01 8.737176804027665611e+00 2.611864201993982348e+01 5.922124660832280085e+01
2.795164078044223288e+01 -1.116380154962417315e+01 8.508015126004741191e+00 -1.116380154962417315e+01 4.207736698507838469e+01 2.604189079762036840e+01 8.508015126004741191e+00 2.604189079762036840e+01 5.889943920236458297e+01
2.762955604396072573e+01 -1.125592728282830812e+01 8.262525613423340687e+00 -1.125592728282830812e+01 4.195437089800095976e+01 2.589740159498826344e+01 8.262525613423340687e+00 2.589740159498826344e+01 5.832137839288991898e+01
2.723214140409160677e+01 -1.133073719148475789e+01 8.002146918373012952e+00 -1.133073719148475789e+01 4.171671597270239573e+01 2.568559040782842828e+01 8.002146918373012952e+00 2.568559040782842828e+01 5.748923082461198675e+01
2.675705688454464948e+01 -1.138743395033908001e+01 7.728751021885940986e+00 -1.138743395033908001e+01 4.136060624764521521e+01 2.540739322665696420e+01 7.728751021885940986e+00 2.540739322665696420e+01 5.640117651597171289e+01
2.621444238257749859e+01 -1.142556689729093122e+01 7.443689910263142195e+00 -1.142556689729093122e+01 4.089562695904049860e+01 2.506362470988601743e+01 7.443689910263142195e+00 2.506362470988601743e+01 5.507421929467808752e+01
2.560292857873143646e+01 -1.144475470287079588e+01 7.149251560321728149e+00 -1.144475470287079588e+01 4.032014879006393215e+01 2.465674616590975887e+01 7.149251560321728149e+00 2.465674616590975887e+01 5.351373243961977266e+01
2.492717809242920879e+01 -1.144510136602490391e+01 6.847585283617168450e+00 -1.144510136602490391e+01 3.963980501696978109e+01 2.418954823311875302e+01 6.847585283617168450e+00 2.418954823311875302e+01 5.172997718015837165e+01
2.419072688784271818e+01 -1.142707488201130062e+01 6.540753725916403916e+00 -1.142707488201130062e+01 3.885963958865030321e+01 2.366579220673506612e+01 6.540753725916403916e+00 2.366579220673506612e+01 4.973881335559430994e+01
2.339882691175668938e+01 -1.139140324345361321e+01 6.231062197194249919e+00 -1.139140324345361321e+01 3.798717509554963101e+01 2.309019270565456594e+01 6.231062197194249919e+00 2.309019270565456594e+01 4.755665546627458440e+01
-3.666334756599225386e+01 -1.279968535507185656e+01 -1.617487226156627855e+01 -1.279968535507185656e+01 4.344453442996520920e+00 2.017373399455551919e+01 -1.617487226156627855e+01 2.017373399455551919e+01 -4.483551024969352738e+01
-3.653538936881459165e+01 -1.273757371411842421e+01 -1.613634661054795671e+01 -1.273757371411842421e+01 4.452355145169982542e+00 2.015646001142806298e+01 -1.613634661054795671e+01 2.015646001142806298e+01 -4.450517566856747464e+01
-3.633299431028984827e+01 -1.266991572398785060e+01 -1.608428189167298328e+01 -1.266991572398785060e+01 4.607186057721065708e+00 2.010178085186352348e+01 -1.608428189167298328e+01 2.010178085186352348e+01 -4.401239094773789873e+01
-3.605756298364457280e+01 -1.259691680502003308e+01 -1.601886485070489030e+01 -1.259691680502003308e+01 4.806891977250831616e+00 2.000954711925107432e+01 -1.601886485070489030e+01 2.000954711925107432e+01 -4.336229159570216041e+01
-3.570974899905116473e+01 -1.251876370297850727e+01 -1.593994609103285320e+01 -1.251876370297850727e+01 5.050408452907101164e+00 1.987970278986165340e+01 -1.593994609103285320e+01 1.987970278986165340e+01 -4.255723060908085387e+01
-3.529121439380512726e+01 -1.243607267888295809e+01 -1.584750693808051025e+01 -1.243607267888295809e+01 5.335307789763854558e+00 1.971290147386765312e+01 -1.584750693808051025e+01 1.971290147386765312e+01 -4.160266096416935966e+01
-3.480412541876353316e+01 -1.234886240730973839e+01 -1.574121124947349593e+01 -1.234886240730973839e+01 5.659349038658608499e+00 1.950942328991437691e+01 -1.574121124947349593e+01 1.950942328991437691e+01 -4.050317660675075615e+01
-3.425077904681790386e+01 -1.225774914927853132e+01 -1.562076023199013974e+01 -1.225774914927853132e+01 6.019843060596387296e+00 1.927044473631212895e+01 -1.562076023199013974e+01 1.927044473631212895e+01 -3.926602327245041124e+01
-3.363472344747552256e+01 -1.216308772174006236e+01 -1.548570569579795198e+01 -1.216308772174006236e+01 6.413223011493575321e+00 1.899704893848944565e+01 -1.548570569579795198e+01 1.899704893848944565e+01 -3.789911898164240966e+01
-3.295898390210572870e+01 -1.206521426706870415e+01 -1.533558077648807583e+01 -1.206521426706870415e+01 6.836575657438945797e+00 1.869093528289454298e+01 -1.533558077648807583e+01 1.869093528289454298e+01 -3.641116608690772694e+01
-6.073260580505118078e+00 -1.031056847094941453e+01 -6.443730530805887646e+00 -1.031056847094941453e+01 -1.415181144949507974e+01 1.903741399270368717e+01 -6.443730530805887646e+00 1.903741399270368717e+01 -4.022933893576028908e+01
-6.074259949938440428e+00 -1.032126542525423218e+01 -6.527473987950007661e+00 -1.032126542525423218e+01 -1.412355150274169446e+01 1.910694419568500280e+01 -6.527473987950007661e+00 1.910694419568500280e+01 -4.018954922684098108e+01
-6.017777070114385118e+00 -1.032374534199617955e+01 -6.601575380746703914e+00 -1.032374534199617955e+01 -1.403377481531492776e+01 1.915123106705425826e+01 -6.601575380746703914e+00 1.915123106705425826e+01 -3.999358028370306783e+01
-5.904940858355777422e+00 -1.031798971433389944e+01 -6.666293804974988468e+00 -1.031798971433389944e+01 -1.388346224980674215e+01 1.917055220943181837e+01 -6.666293804974988468e+00 1.917055220943181837e+01 -3.964283862628972344e+01
-5.735103575215096505e+00 -1.030401704910874727e+01 -6.721370164855850149e+00 -1.030401704910874727e+01 -1.367228068307269773e+01 1.916466703388002912e+01 -6.721370164855850149e+00 1.916466703388002912e+01 -3.913726873407689766e+01
-5.510115904828121636e+00 -1.028177182579665150e+01 -6.766804460389289844e+00 -1.028177182579665150e+01 -1.340233989502758760e+01 1.913368658144704781e+01 -6.766804460389289844e+00 1.913368658144704781e+01 -3.848121971478366277e+01
-5.231458394503478715e+00 -1.025118001703218162e+01 -6.802374609479013401e+00 -1.025118001703218162e+01 -1.307552758348990629e+01 1.907731474267113470e+01 -6.802374609479013401e+00 1.907731474267113470e+01 -3.767911470349453396e+01
-4.900333988929427953e+00 -1.021244519807027196e+01 -6.827988077918230481e+00 -1.021244519807027196e+01 -1.269312072051334539e+01 1.899545898334551808e+01 -6.827988077918230481e+00 1.899545898334551808e+01 -3.673411837008171688e+01
-4.518278755938665014e+00 -1.016541931418005973e+01 -6.843478304134722912e+00 -1.016541931418005973e+01 -1.225739564758491440e+01 1.888773065980166521e+01 -6.843478304134722912e+00 1.888773065980166521e+01 -3.565096846593279878e+01
-4.086514147060807289e+00 -1.011026892693376666e+01 -6.848697233397627038e+00 -1.011026892693376666e+01 -1.176905562467621280e+01 1.875400022415008294e+01 -6.848697233397627038e+00 1.875400022415008294e+01 -3.443347740036748661e+01
-5.811558799372735784e+00 9.206662190823566405e+00 -1.118710601468747790e+00 9.206662190823566405e+00 5.234218698955837468e+00 2.289572600951035142e+01 -1.118710601468747790e+00 2.289572600951035142e+01 9.907969914994822602e+00
-5.779115631317985446e+00 9.228779244631235557e+00 -1.032882688655009540e+00 9.228779244631235557e+00 5.206929545893062006e+00 2.284035199580709730e+01 -1.032882688655009540e+00 2.284035199580709730e+01 9.917518405927323144e+00
-5.741681206639427160e+00 9.238002218827404022e+00 -9.510513979929431372e-01 9.238002218827404022e+00 5.167668610638399329e+00 2.273987582985827061e+01 -9.510513979929431372e-01 2.273987582985827061e+01 9.896558744959957465e+00
-5.701027783123775450e+00 9.234367281938325789e+00 -8.733794878507166182e-01 9.234367281938325789e+00 5.115802943982310502e+00 2.259474961824211547e+01 -8.733794878507166182e-01 2.259474961824211547e+01 9.843806949410510043e+00
-5.658330837874462560e+00 9.217928686753392498e+00 -7.996499470707730817e-01 9.217928686753392498e+00 5.051187871819754704e+00 2.240569673148383245e+01 -7.996499470707730817e-01 2.240569673148383245e+01 9.759226850752723337e+00
-5.615344544415074246e+00 9.188975781482682237e+00 -7.296457644955557376e-01 9.188975781482682237e+00 4.973208529204322659e+00 2.217324161321417364e+01 -7.296457644955557376e-01 2.217324161321417364e+01 9.641462129251866742e+00
-5.572810357533930059e+00 9.147779830073137219e+00 -6.631499289675075737e-01 9.147779830073137219e+00 4.882678707976851662e+00 2.189816188674772235e+01 -6.631499289675075737e-01 2.189816188674772235e+01 9.491055312801831789e+00
-5.533440916700489431e+00 9.094973781734299934e+00 -5.998007552240339768e-01 9.094973781734299934e+00 4.778133582823834047e+00 2.158118092260966847e+01 -5.998007552240339768e-01 2.158118092260966847e+01 9.306053300984608256e+00
-5.499406333490321153e+00 9.030955490255028195e+00 -5.390195468449830996e-01 9.030955490255028195e+00 4.659265721272063843e+00 2.122284124869390354e+01 -5.390195468449830996e-01 2.122284124869390354e+01 9.085624217696226523e+00
-5.472840550952735583e+00 8.956538747476153972e+00 -4.803180287258522196e-01 8.956538747476153972e+00 4.524971983270626552e+00 2.082379389847309525e+01 -4.803180287258522196e-01 2.082379389847309525e+01 8.828447911728217079e+00
1.684605095479031434e+01 -1.057733307983114557e+01 1.410090814797294989e+01 -1.057733307983114557e+01 3.062277007490014569e+01 -2.494508020705302087e+01 1.410090814797294989e+01 -2.494508020705302087e+01 5.205232034593663570e+01
1.697358119736882287e+01 -1.078671684534005770e+01 1.422896421618055918e+01 -1.078671684534005770e+01 3.049159410795985536e+01 -2.501655743756911932e+01 1.422896421618055918e+01 -2.501655743756911932e+01 5.204948088753948099e+01
1.703464708042867670e+01 -1.097455928757670485e+01 1.431877523363139382e+01 -1.097455928757670485e+01 3.026860898617813689e+01 -2.501424380480106890e+01 1.431877523363139382e+01 -2.501424380480106890e+01 5.182752988949500406e+01
1.702132616449139491e+01 -1.113872204898273743e+01 1.436902663625269305e+01 -1.113872204898273743e+01 2.995036178792388881e+01 -2.493910332240221450e+01 1.436902663625269305e+01 -2.493910332240221450e+01 5.137507446317263060e+01
1.693836840773987262e+01 -1.127736473985629395e+01 1.437807083707326861e+01 -1.127736473985629395e+01 2.954526572326274803e+01 -2.479167934352263458e+01 1.437807083707326861e+01 -2.479167934352263458e+01 5.070597887765972445e+01
1.677506449486137541e+01 -1.138880471818424134e+01 1.434483865731394481e+01 -1.138880471818424134e+01 2.904837803128115326e+01 -2.457405764315777219e+01 1.434483865731394481e+01 -2.457405764315777219e+01 4.980995447814682819e+01
1.653830274159715685e+01 -1.147190269510352323e+01 1.426836608332136258e+01 -1.147190269510352323e+01 2.847030286216601880e+01 -2.428746514777553500e+01 1.426836608332136258e+01 -2.428746514777553500e+01 4.869781574507249644e+01
1.621674284187955095e+01 -1.152590498721242618e+01 1.414816234450836241e+01 -1.152590498721242618e+01 2.780622014765055994e+01 -2.393524961388121497e+01 1.414816234450836241e+01 -2.393524961388121497e+01 4.737142059565956487e+01
1.581764118939018893e+01 -1.155070642938513004e+01 1.398420991335397012e+01 -1.155070642938513004e+01 2.706687425808945946e+01 -2.351951434399121865e+01 1.398420991335397012e+01 -2.351951434399121865e+01 4.583692118976853891e+01
1.533735205976728544e+01 -1.154639465922648256e+01 1.377705214300826242e+01 -1.154639465922648256e+01 2.625454377120882654e+01 -2.304436077801255678e+01 1.377705214300826242e+01 -2.304436077801255678e+01 4.410027688452925787e+01
2.105923123990201162e+01 1.053156265092506061e+01 2.080600904488733605e+01 1.053156265092506061e+01 -1.198992490662185695e+01 -1.729293418543091576e+01 2.080600904488733605e+01 -1.729293418543091576e+01 8.819148909243155643e+00
2.118849246290181298e+01 1.059206483563738210e+01 2.089223727774759354e+01 1.059206483563738210e+01 -1.177164110075273484e+01 -1.715444259336891974e+01 2.089223727774759354e+01 -1.715444259336891974e+01 9.268029689085846456e+00
2.129550705421657142e+01 1.064147976063632939e+01 2.093386407885031986e+01 1.064147976063632939e+01 -1.153989033064639358e+01 -1.699195564735815367e+01 2.093386407885031986e+01 -1.699195564735815367e+01 9.686334871410032576e+00
2.137766094448297238e+01 1.067932066817839143e+01 2.093097958851838314e+01 1.067932066817839143e+01 -1.129898130373616105e+01 -1.680568968417350106e+01 2.093097958851838314e+01 -1.680568968417350106e+01 1.006578957457598200e+01
2.143033894916992210e+01 1.070493854793888211e+01 2.088371000320381299e+01 1.070493854793888211e+01 -1.105439455165271490e+01 -1.659503174961942662e+01 2.088371000320381299e+01 -1.659503174961942662e+01 1.040255382082930247e+01
2.145723682151520961e+01 1.071748608088279653e+01 2.079228968774607011e+01 1.071748608088279653e+01 -1.080362417342018233e+01 -1.635994578756678663e+01 2.079228968774607011e+01 -1.635994578756678663e+01 1.069855661307947692e+01
2.145487514505593651e+01 1.071626017249172413e+01 2.065713328763037993e+01 1.071626017249172413e+01 -1.055229492518583712e+01 -1.609992701220749112e+01 2.065713328763037993e+01 -1.609992701220749112e+01 1.094655066936752341e+01
2.142262293753200098e+01 1.070109857018449517e+01 2.047905206576259118e+01 1.070109857018449517e+01 -1.030251609050490913e+01 -1.581423627289398048e+01 2.047905206576259118e+01 -1.581423627289398048e+01 1.114480529549427779e+01
2.136029991829764541e+01 1.067093761815120700e+01 2.025856883601536751e+01 1.067093761815120700e+01 -1.005652314938464365e+01 -1.550173780155805758e+01 2.025856883601536751e+01 -1.550173780155805758e+01 1.129285176178080086e+01
2.126603116863712017e+01 1.062608379348963084e+01 1.999676528226318695e+01 1.062608379348963084e+01 -9.817903686675384378e+00 -1.516125977400237090e+01 1.999676528226318695e+01 -1.516125977400237090e+01 1.138490305949865267e+01
-3.065784848010711983e+01 6.490068768687299539e+00 9.553551097247357404e+00 6.490068768687299539e+00 -2.777579563258512607e+01 1.836791990598728663e+00 9.553551097247357404e+00 1.836791990598728663e+00 -4.154527681586880306e+01
-3.058241786747306890e+01 6.574890492594295921e+00 9.533788276737235279e+00 6.574890492594295921e+00 -2.765508779471747758e+01 1.983240525027747836e+00 9.533788276737235279e+00 1.983240525027747836e+00 -4.126344918941481410e+01
-3.044021230500471020e+01 6.654488646576382394e+00 9.501560547489335207e+00 6.654488646576382394e+00 -2.747016964784508986e+01 2.125653521680844538e+00 9.501560547489335207e+00 2.125653521680844538e+00 -4.080971519676781156e+01
-3.023920857998811229e+01 6.728900945939878753e+00 9.457018770728925716e+00 6.728900945939878753e+00 -2.722922541343875835e+01 2.264558994846458173e+00 9.457018770728925716e+00 2.264558994846458173e+00 -4.019999069719357720e+01
-2.997848266741850054e+01 6.797882241193722308e+00 9.400162946456005031e+00 6.797882241193722308e+00 -2.693163278894425261e+01 2.399692937380368374e+00 9.400162946456005031e+00 2.399692937380368374e+00 -3.943263507486732777e+01
-2.965980718669277394e+01 6.861074236927902525e+00 9.330974217017418582e+00 6.861074236927902525e+00 -2.657939068559636908e+01 2.530942203363625520e+00 9.330974217017418582e+00 2.530942203363625520e+00 -3.851249474665080896e+01
-2.928521876435205229e+01 6.918326071917150877e+00 9.249528013025797080e+00 6.918326071917150877e+00 -2.617472430646781945e+01 2.658118216264643063e+00 9.249528013025797080e+00 2.658118216264643063e+00 -3.744564187686103907e+01
-2.885681059989693509e+01 6.969279450751455940e+00 9.155767761521666159e+00 6.969279450751455940e+00 -2.571993428524394076e+01 2.781239833736580458e+00 9.155767761521666159e+00 2.781239833736580458e+00 -3.623658344460292113e+01
-2.837597815966114467e+01 7.013896658124499695e+00 9.049787750770818207e+00 7.013896658124499695e+00 -2.521668009540268329e+01 2.900080763941534467e+00 9.049787750770818207e+00 2.900080763941534467e+00 -3.489282479583354046e+01
-2.784653068958271049e+01 7.051649679747844068e+00 8.931625696079569465e+00 7.051649679747844068e+00 -2.466897841706680339e+01 3.014810725757933074e+00 8.931625696079569465e+00 3.014810725757933074e+00 -3.342158841171259809e+01
8.019135158476098013e+01 -3.944746249136025007e+00 4.883930511151114984e-01 -3.944746249136025007e+00 7.709651629960615082e+01 -1.093534098762435924e+01 4.883930511151114984e-01 -1.093534098762435924e+01 9.576499308103812780e+01
8.005100342046748096e+01 -3.986723094118366006e+00 5.781966527571592573e-01 -3.986723094118366006e+00 7.683192794311658247e+01 -1.086694839416122349e+01 5.781966527571592573e-01 -1.086694839416122349e+01 9.528849871713080688e+01
7.972450211772682849e+01 -4.017281839537804267e+00 6.638904014360721417e-01 -4.017281839537804267e+00 7.638862727068168113e+01 -1.076247858335637630e+01 6.638904014360721417e-01 -1.076247858335637630e+01 9.437498446414755904e+01
7.921391917500832847e+01 -4.036223621541284778e+00 7.447782736661578973e-01 -4.036223621541284778e+00 7.577102243104413049e+01 -1.062284301453631841e+01 7.447782736661578973e-01 -1.062284301453631841e+01 9.303126140905550301e+01
7.852273470974047598e+01 -4.043531868141053032e+00 8.200482420474424217e-01 -4.043531868141053032e+00 7.498464846811398843e+01 -1.044928458678264249e+01 8.200482420474424217e-01 -1.044928458678264249e+01 9.126710702462987967e+01
7.765822382454750539e+01 -4.039488303128935698e+00 8.890871430330062886e-01 -4.039488303128935698e+00 7.403881883900932337e+01 -1.024347707085856207e+01 8.890871430330062886e-01 -1.024347707085856207e+01 8.910061792149862470e+01
7.662973312052299946e+01 -4.024772378002872131e+00 9.513149570514394249e-01 -4.024772378002872131e+00 7.294457048757466566e+01 -1.000760796914768136e+01 9.513149570514394249e-01 -1.000760796914768136e+01 8.655688408912222087e+01
7.545022189209105079e+01 -4.000361840040382866e+00 1.006217952482350242e+00 -4.000361840040382866e+00 7.171575759557283902e+01 -9.744676811433578223e+00 1.006217952482350242e+00 -9.744676811433578223e+00 8.366452535035278970e+01
7.412520861117391746e+01 -3.967433300372039895e+00 1.053497833546155560e+00 -3.967433300372039895e+00 7.035884323822816100e+01 -9.458362578997766335e+00 1.053497833546155560e+00 -9.458362578997766335e+00 8.046762319261752339e+01
7.269806216972534685e+01 -3.927643957773302219e+00 1.093071740304083272e+00 -3.927643957773302219e+00 6.891699744364126445e+01 -9.152427113060538133e+00 1.093071740304083272e+00 -9.152427113060538133e+00 7.701199916205780482e+01
4.770868669575369836e+01 -5.891602586202081326e+00 2.179237290910344527e+01 -5.891602586202081326e+00 4.535569878055534332e+01 -1.851288846342929517e+01 2.179237290910344527e+01 -1.851288846342929517e+01 3.427852783626851618e+01
4.776594761733703365e+01 -5.739653502084768100e+00 2.178382598851803209e+01 -5.739653502084768100e+00 4.521289972633894649e+01 -1.840880902726819457e+01 2.178382598851803209e+01 -1.840880902726819457e+01 3.416117999516634995e+01
4.777656234128988899e+01 -5.580501569570876619e+00 2.172751281014477698e+01 -5.580501569570876619e+00 4.502195531705068277e+01 -1.825603282180390607e+01 2.172751281014477698e+01 -1.825603282180390607e+01 3.391073454398001985e+01
4.773977267304420025e+01 -5.416162896943657046e+00 2.162405371499390583e+01 -5.416162896943657046e+00 4.478319295489038154e+01 -1.805595561430944684e+01 2.162405371499390583e+01 -1.805595561430944684e+01 3.352672622695186533e+01
4.765480318633718326e+01 -5.249032689770395166e+00 2.147400011729674674e+01 -5.249032689770395166e+00 4.449745699289976386e+01 -1.781067967154172038e+01 2.147400011729674674e+01 -1.781067967154172038e+01 3.301046465288124665e+01
4.752108523524279349e+01 -5.081195983113258485e+00 2.127792066297933715e+01 -5.081195983113258485e+00 4.416585025954145749e+01 -1.752211771161559994e+01 2.127792066297933715e+01 -1.752211771161559994e+01 3.236331112565173385e+01
4.734051430618117706e+01 -4.914910128981701654e+00 2.103624614440989760e+01 -4.914910128981701654e+00 4.379173293528754130e+01 -1.719269940348782910e+01 2.103624614440989760e+01 -1.719269940348782910e+01 3.158979758097697399e+01
4.710721439124986887e+01 -4.752587564637735795e+00 2.075006215835633583e+01 -4.752587564637735795e+00 4.337133127899245011e+01 -1.682511289153607947e+01 2.075006215835633583e+01 -1.682511289153607947e+01 3.068442710823850916e+01
4.682366685448977961e+01 -4.595985922943684798e+00 2.041983396057631950e+01 -4.595985922943684798e+00 4.290878089739106827e+01 -1.642192569827492221e+01 2.041983396057631950e+01 -1.642192569827492221e+01 2.965552261599029293e+01
4.648823468490171251e+01 -4.447328092519545528e+00 2.004649206258519456e+01 -4.447328092519545528e+00 4.240432303420958249e+01 -1.598618783367132856e+01 2.004649206258519456e+01 -1.598618783367132856e+01 2.850101630086488669e+01