-3.379805788699999880e+02
-3.379779616199999737e+02
-3.379701072999999951e+02
-3.379572259600000166e+02
-3.379396523999999999e+02
-3.379178276299999766e+02
-3.378922810199999844e+02
-3.378636040900000239e+02
-3.378324251799999729e+02
-3.377993901799999890e+02
-3.375688608799999884e+02
-3.375722150199999874e+02
-3.375709688599999936e+02
-3.375651806500000021e+02
-3.375550262400000179e+02
-3.375407910399999878e+02
-3.375228542199999993e+02
-3.375016767199999776e+02
-3.374777852299999950e+02
-3.374517361000000051e+02
-3.370958266399999843e+02
-3.370934704100000090e+02
-3.370881909799999789e+02
-3.370801682100000107e+02
-3.370696841500000005e+02
-3.370571013300000232e+02
-3.370428507500000137e+02
-3.370274216999999908e+02
-3.370113256700000193e+02
-3.369950989399999912e+02
-3.365657176600000184e+02
-3.365723402699999838e+02
-3.365809065700000247e+02
-3.365912879800000042e+02
-3.366033604699999842e+02
-3.366169997700000067e+02
-3.366320906500000092e+02
-3.366485233199999811e+02
-3.366662025100000051e+02
-3.366850372100000186e+02
-3.377248832299999890e+02
-3.377197187500000268e+02
-3.377099467400000208e+02
-3.376958374600000070e+02
-3.376777574600000094e+02
-3.376561648499999819e+02
-3.376315806000000066e+02
-3.376045765599999982e+02
-3.375757495299999960e+02
-3.375457024400000137e+02
-3.370450029099999938e+02
-3.370427642999999875e+02
-3.370403321100000085e+02
-3.370379688599999781e+02
-3.370359941799999888e+02
-3.370347845599999914e+02
-3.370347367200000122e+02
-3.370362435399999868e+02
-3.370396669900000006e+02
-3.370453193100000249e+02
-3.374823034899999925e+02
-3.374811704699999950e+02
-3.374763704499999903e+02
-3.374681364900000062e+02
-3.374568370299999742e+02
-3.374429610600000160e+02
-3.374270942800000057e+02
-3.374098838400000204e+02
-3.373920163199999820e+02
-3.373741827599999965e+02
-3.365132505500000093e+02
-3.365114456399999767e+02
-3.365099478500000032e+02
-3.365088567600000147e+02
-3.365082913599999870e+02
-3.365083941600000230e+02
-3.365093254899999806e+02
-3.365112529500000278e+02
-3.365143563799999811e+02
-3.365188094299999761e+02
-3.372155817699999716e+02
-3.372153910499999938e+02
-3.372135092999999983e+02
-3.372100827799999934e+02
-3.372053163200000085e+02
-3.371994841499999893e+02
-3.371929031600000144e+02
-3.371859280300000137e+02
-3.371789421400000037e+02
-3.371723360799999796e+02
-3.368846050099999729e+02
-3.368888129900000195e+02
-3.368909003900000130e+02
-3.368908663500000102e+02
-3.368888082999999938e+02
-3.368849103100000093e+02
-3.368794436700000006e+02
-3.368727519999999913e+02
-3.368652462300000252e+02
-3.368573828300000059e+02
-3.372147535600000197e+02
-3.372059609400000113e+02
-3.371941724299999805e+02
-3.371796448700000042e+02
-3.371627258400000073e+02
-3.371438377700000046e+02
-3.371234620399999926e+02
-3.371021234199999981e+02
-3.370803680999999870e+02
-3.370587503900000002e+02
-3.371116255399999773e+02
-3.371058752600000048e+02
-3.370981610000000046e+02
-3.370888697699999739e+02
-3.370784699299999829e+02
-3.370674895399999969e+02
-3.370564866899999856e+02
-3.370460297199999786e+02
-3.370366738600000076e+02
-3.370289411699999960e+02
-3.373120318699999984e+02
-3.373105134400000225e+02
-3.373050901700000281e+02
-3.372959099899999842e+02
-3.372832118399999786e+02
-3.372673172099999874e+02
-3.372486122199999841e+02
-3.372275334099999782e+02
-3.372045541699999944e+02
-3.371801671000000056e+02
-3.376023157800000263e+02
-3.376042449400000010e+02
-3.376002308500000026e+02
-3.375904671200000280e+02
-3.375753347699999836e+02
-3.375553733300000090e+02
-3.375312637200000268e+02
-3.375037843700000053e+02
-3.374737815500000124e+02
-3.374421321500000204e+02
-3.370948744400000123e+02
-3.370969104100000209e+02
-3.370970441599999958e+02
-3.370952854399999978e+02
-3.370917748599999868e+02
-3.370867603799999870e+02
-3.370805808599999978e+02
-3.370736545999999976e+02
-3.370664443399999755e+02
-3.370594371700000238e+02
-3.375268159799999808e+02
-3.375225275399999987e+02
-3.375141573899999798e+02
-3.375019757599999934e+02
-3.374863705999999866e+02
-3.374678340599999729e+02
-3.374469388100000060e+02
-3.374243185700000254e+02
-3.374006393999999887e+02
-3.373765810300000112e+02
-3.364837591099999941e+02
-3.364956900000000246e+02
-3.365103295200000275e+02
-3.365275608300000272e+02
-3.365472970399999895e+02
-3.365694709100000068e+02
-3.365940233900000180e+02
-3.366208879299999808e+02
-3.366499741299999755e+02
-3.366811535800000001e+02
-3.370699991299999851e+02
-3.370681410400000004e+02
-3.370624485999999820e+02
-3.370531069799999955e+02
-3.370404234999999744e+02
-3.370248085999999716e+02
-3.370067528199999742e+02
-3.369868134600000076e+02
-3.369655793599999924e+02
-3.369436611900000003e+02
-3.369612500000000068e+02
-3.369689811200000236e+02
-3.369732466500000214e+02
-3.369738902199999870e+02
-3.369708759200000259e+02
-3.369642788799999948e+02
-3.369542906699999776e+02
-3.369412010699999769e+02
-3.369253878700000087e+02
-3.369072976400000243e+02
-3.366468636800000240e+02
-3.366491401499999938e+02
-3.366535344399999872e+02
-3.366601303200000075e+02
-3.366690846700000179e+02
-3.366806060600000023e+02
-3.366949269099999924e+02
-3.367122773099999904e+02
-3.367328522600000156e+02
-3.367567817899999909e+02
-3.373944880700000226e+02
-3.373884669500000086e+02
-3.373792391100000145e+02
-3.373671032799999807e+02
-3.373524525999999923e+02
-3.373357601600000066e+02
-3.373175565500000062e+02
-3.372984116000000085e+02
-3.372789119000000255e+02
-3.372596462100000281e+02
-3.369882648899999822e+02
-3.369867398900000239e+02
-3.369837546800000041e+02
-3.369793924200000106e+02
-3.369737856599999759e+02
-3.369671163599999772e+02
-3.369596026899999970e+02
-3.369515011600000207e+02
-3.369430882199999928e+02
-3.369346624899999938e+02
-3.369111934900000165e+02
-3.369101811799999950e+02
-3.369048035499999969e+02
-3.368952934000000141e+02
-3.368820201099999849e+02
-3.368654826100000150e+02
-3.368462724699999740e+02
-3.368250541200000043e+02
-3.368025336399999787e+02
-3.367794268700000089e+02
-3.368409564699999805e+02
-3.368407552799999962e+02
-3.368406297299999892e+02
-3.368406439400000068e+02
-3.368408932599999730e+02
-3.368415191600000185e+02
-3.368426886999999965e+02
-3.368446010600000022e+02
-3.368474717099999793e+02
-3.368515318999999977e+02
-3.373717757100000085e+02
-3.373751170599999796e+02
-3.373754989399999999e+02
-3.373729283700000110e+02
-3.373674995499999909e+02
-3.373593899100000044e+02
-3.373488545600000066e+02
-3.373362142299999960e+02
-3.373218455499999777e+02
-3.373061646599999790e+02
-3.365426733900000045e+02
-3.365400497200000132e+02
-3.365383054600000037e+02
-3.365375142099999834e+02
-3.365377607699999771e+02
-3.365391305300000226e+02
-3.365417173100000241e+02
-3.365456121500000108e+02
-3.365509046999999896e+02
-3.365576755299999832e+02
-3.373866511200000105e+02
-3.373847233999999844e+02
-3.373799535399999741e+02
-3.373724943299999950e+02
-3.373625992699999756e+02
-3.373506025500000192e+02
-3.373369107999999983e+02
-3.373219836100000180e+02
-3.373063069799999880e+02
-3.372903815999999892e+02
-3.371987252399999875e+02
-3.372031322999999929e+02
-3.372044293700000139e+02
-3.372026892000000089e+02
-3.371980992399999764e+02
-3.371909350399999994e+02
-3.371815503000000263e+02
-3.371703821500000231e+02
-3.371579176000000189e+02
-3.371446810099999993e+02
-3.372358119300000112e+02
-3.372391346300000237e+02
-3.372384700100000146e+02
-3.372338692700000138e+02
-3.372254930799999784e+02
-3.372136144500000228e+02
-3.371986019199999873e+02
-3.371809013899999741e+02
-3.371610189200000036e+02
-3.371395012199999996e+02
-3.376079543700000158e+02
-3.376052391399999806e+02
-3.375990599099999940e+02
-3.375895507899999757e+02
-3.375769248500000117e+02
-3.375614584100000002e+02
-3.375434794399999987e+02
-3.375233609699999988e+02
-3.375014995700000213e+02
-3.374783121099999903e+02
-3.371587610099999779e+02
-3.371488182599999845e+02
-3.371371292300000277e+02
-3.371240713600000163e+02
-3.371101122499999860e+02
-3.370957909699999959e+02
-3.370816935199999875e+02
-3.370684118400000102e+02
-3.370565375200000062e+02
-3.370466055200000142e+02
-3.359836788399999818e+02
-3.359722427899999957e+02
-3.359621161000000029e+02
-3.359535238000000277e+02
-3.359466963599999758e+02
-3.359418783500000245e+02
-3.359393195399999854e+02
-3.359392628300000183e+02
-3.359419450299999994e+02
-3.359475880699999948e+02
-3.373407758199999762e+02
-3.373368878200000154e+02
-3.373289821000000188e+02
-3.373172468600000116e+02
-3.373019865599999889e+02
-3.372835982400000034e+02
-3.372625615900000184e+02
-3.372394147900000121e+02
-3.372147386699999743e+02
-3.371891369400000258e+02
-3.363665690199999858e+02
-3.363774430899999857e+02
-3.363904375500000015e+02
-3.364054067100000225e+02
-3.364222023199999967e+02
-3.364406656699999871e+02
-3.364606398899999817e+02
-3.364819741399999771e+02
-3.365045097400000031e+02
-3.365280985200000146e+02
-3.376834826400000225e+02
-3.376826759300000163e+02
-3.376765378000000055e+02
-3.376652903099999889e+02
-3.376493261800000028e+02
-3.376291874199999938e+02
-3.376055349299999762e+02
-3.375791111899999919e+02
-3.375507187900000190e+02
-3.375211697099999810e+02
-3.362909306700000229e+02
-3.363009480599999961e+02
-3.363115915999999856e+02
-3.363226733100000274e+02
-3.363340367900000274e+02
-3.363455624100000136e+02
-3.363571703599999978e+02
-3.363688239699999940e+02
-3.363805242700000235e+02
-3.363923155200000110e+02
-3.370645271999999864e+02
-3.370640834399999903e+02
-3.370621509399999809e+02
-3.370588303999999766e+02
-3.370542700999999965e+02
-3.370486660099999767e+02
-3.370422498400000109e+02
-3.370352845699999875e+02
-3.370280566399999884e+02
-3.370208676299999979e+02
-3.365992751800000065e+02
-3.365940027600000235e+02
-3.365855067200000121e+02
-3.365739636000000132e+02
-3.365596398100000215e+02
-3.365428870800000141e+02
-3.365241217799999731e+02
-3.365038177299999802e+02
-3.364824839199999928e+02
-3.364606472400000143e+02
-3.370661409699999922e+02
-3.370668341699999928e+02
-3.370639460699999859e+02
-3.370576935199999866e+02
-3.370484360400000128e+02
-3.370366516000000274e+02
-3.370229124499999784e+02
-3.370078496900000005e+02
-3.369921351799999911e+02
-3.369764405600000146e+02
-3.377228473900000267e+02
-3.377246430700000133e+02
-3.377207318299999770e+02
-3.377112245899999721e+02
-3.376964151999999899e+02
-3.376767518899999914e+02
-3.376528242200000136e+02
-3.376253299800000036e+02
-3.375950435299999981e+02
-3.375627875000000131e+02
-3.365742848300000105e+02
-3.365816660200000001e+02
-3.365903880299999855e+02
-3.366003749399999947e+02
-3.366115561099999809e+02
-3.366238561600000025e+02
-3.366372000700000058e+02
-3.366515113500000211e+02
-3.366667135600000051e+02
-3.366827269300000012e+02
-3.373769552100000055e+02
-3.373794952599999988e+02
-3.373786941100000263e+02
-3.373746877400000130e+02
-3.373677324500000054e+02
-3.373581860200000051e+02
-3.373464969699999756e+02
-3.373331799599999954e+02
-3.373187982499999862e+02
-3.373039366500000256e+02
-3.373107288100000005e+02
-3.373126260700000216e+02
-3.373106637999999862e+02
-3.373049400699999865e+02
-3.372956523799999786e+02
-3.372830932499999790e+02
-3.372676382399999966e+02
-3.372497289600000272e+02
-3.372298493600000029e+02
-3.372085127899999861e+02
-3.372963412799999787e+02
-3.372953258000000005e+02
-3.372899853399999870e+02
-3.372805255200000261e+02
-3.372672724999999900e+02
-3.372506576600000017e+02
-3.372311942300000283e+02
-3.372094608900000026e+02
-3.371860831899999766e+02
-3.371617036800000164e+02
-3.376967404900000247e+02
-3.376917380400000184e+02
-3.376828421800000228e+02
-3.376702780599999869e+02
-3.376543564400000150e+02
-3.376354669899999976e+02
-3.376140523099999768e+02
-3.375905958399999918e+02
-3.375656069400000092e+02
-3.375396018899999717e+02
-3.363459622199999899e+02
-3.363682585000000245e+02
-3.363951151900000127e+02
-3.364261873500000206e+02
-3.364611183200000255e+02
-3.364995301899999731e+02
-3.365410195000000044e+02
-3.365851515499999778e+02
-3.366314496699999950e+02
-3.366794037600000138e+02
-3.367504920499999912e+02
-3.367554150700000264e+02
-3.367614551799999845e+02
-3.367685118599999896e+02
-3.367765301499999850e+02
-3.367854931699999952e+02
-3.367954126700000188e+02
-3.368063216900000043e+02
-3.368182566599999745e+02
-3.368312453899999923e+02
-3.373862363299999743e+02
-3.373844526899999892e+02
-3.373800385499999948e+02
-3.373731201100000021e+02
-3.373638995000000023e+02
-3.373526451000000179e+02
-3.373396876300000145e+02
-3.373253994600000283e+02
-3.373101869800000259e+02
-3.372944699399999990e+02
-3.372815414400000122e+02
-3.372820991199999980e+02
-3.372795264900000234e+02
-3.372739921799999934e+02
-3.372657486800000015e+02
-3.372551357699999812e+02
-3.372425623299999984e+02
-3.372284875899999861e+02
-3.372134046799999965e+02
-3.371978208699999868e+02
-3.372487026300000252e+02
-3.372517937399999823e+02
-3.372522874599999909e+02
-3.372502586200000110e+02
-3.372458460899999864e+02
-3.372392502399999898e+02
-3.372307314899999824e+02
-3.372205872200000272e+02
-3.372091448400000218e+02
-3.371967462700000056e+02
-3.369115788299999963e+02
-3.369116473899999846e+02
-3.369067626799999857e+02
-3.368971745399999804e+02
-3.368832822400000282e+02
-3.368656118000000106e+02
-3.368447940500000186e+02
-3.368215311700000143e+02
-3.367965662799999791e+02
-3.367706549399999858e+02
-3.369486639099999934e+02
-3.369484711999999718e+02
-3.369448613499999965e+02
-3.369379777799999829e+02
-3.369280845200000272e+02
-3.369155595400000038e+02
-3.369008717400000137e+02
-3.368845644200000038e+02
-3.368672306199999866e+02
-3.368494942300000048e+02
-3.367595188799999733e+02
-3.367685884900000133e+02
-3.367798709400000234e+02
-3.367931737100000191e+02
-3.368083298099999752e+02
-3.368251913700000273e+02
-3.368436208300000203e+02
-3.368634870600000113e+02
-3.368846557599999869e+02
-3.369069708299999775e+02
-3.376211898700000233e+02
-3.376132763499999783e+02
-3.376008535899999856e+02
-3.375842402200000265e+02
-3.375638482699999940e+02
-3.375401681000000167e+02
-3.375137492700000053e+02
-3.374851737100000264e+02
-3.374550464999999804e+02
-3.374239687499999718e+02
-3.371689209200000050e+02
-3.371632023399999980e+02
-3.371544544000000201e+02
-3.371429400800000167e+02
-3.371290056299999947e+02
-3.371130701299999828e+02
-3.370956048599999804e+02
-3.370771184999999832e+02
-3.370581371499999932e+02
-3.370391942399999721e+02
-3.370735113000000069e+02
-3.370749017699999968e+02
-3.370758709400000157e+02
-3.370764849700000241e+02
-3.370768853199999739e+02
-3.370772741100000189e+02
-3.370779000200000155e+02
-3.370790353200000027e+02
-3.370809529599999905e+02
-3.370838997500000005e+02
-3.373003895499999771e+02
-3.373051717399999916e+02
-3.373055769100000134e+02
-3.373016480100000081e+02
-3.372935484399999950e+02
-3.372815523699999858e+02
-3.372660287499999754e+02
-3.372474293299999886e+02
-3.372262700399999744e+02
-3.372031046999999830e+02
-3.369620218599999930e+02
-3.369597203899999727e+02
-3.369561287799999718e+02
-3.369513767099999768e+02
-3.369456520800000021e+02
-3.369391995799999791e+02
-3.369323142000000075e+02
-3.369253253100000052e+02
-3.369185923699999989e+02
-3.369124887199999989e+02
-3.367497773299999722e+02
-3.367523303699999815e+02
-3.367561192699999992e+02
-3.367610793900000203e+02
-3.367671579500000121e+02
-3.367743167300000096e+02
-3.367825268099999789e+02
-3.367917775799999731e+02
-3.368020629299999769e+02
-3.368133890500000120e+02
-3.370737392699999759e+02
-3.370740842800000223e+02
-3.370702506299999754e+02
-3.370623454199999856e+02
-3.370505637499999807e+02
-3.370351955200000020e+02
-3.370166072499999927e+02
-3.369952284799999802e+02
-3.369715292600000112e+02
-3.369460150799999951e+02
-3.369838937999999757e+02
-3.369840004700000122e+02
-3.369805042899999989e+02
-3.369735700900000097e+02
-3.369634702899999752e+02
-3.369505722700000092e+02
-3.369353235099999893e+02
-3.369182347700000264e+02
-3.368998582799999895e+02
-3.368807697699999721e+02
-3.366536627400000157e+02
-3.366643063299999881e+02
-3.366752083299999754e+02
-3.366862513099999887e+02
-3.366973500400000034e+02
-3.367084519100000080e+02
-3.367195429500000046e+02
-3.367306392599999754e+02
-3.367417898200000081e+02
-3.367530727500000012e+02
-3.371756050600000094e+02
-3.371742060400000014e+02
-3.371700987199999986e+02
-3.371634339899999873e+02
-3.371544452399999727e+02
-3.371434548600000198e+02
-3.371308467700000051e+02
-3.371170612500000061e+02
-3.371025763600000005e+02
-3.370878960599999914e+02
-3.374571677000000136e+02
-3.374547664599999734e+02
-3.374485063500000024e+02
-3.374385025500000097e+02
-3.374249524599999859e+02
-3.374081295999999952e+02
-3.373883640899999818e+02
-3.373660395800000060e+02
-3.373415778799999885e+02
-3.373154214599999818e+02
-3.373455503499999963e+02
-3.373420264900000234e+02
-3.373354496499999868e+02
-3.373259493099999986e+02
-3.373137416499999972e+02
-3.372991124399999876e+02
-3.372824196500000085e+02
-3.372640709500000185e+02
-3.372445147399999996e+02
-3.372242284100000234e+02
-3.375960190000000125e+02
-3.375914744300000052e+02
-3.375819427499999961e+02
-3.375676546899999835e+02
-3.375489663999999834e+02
-3.375263418100000194e+02
-3.375003322800000092e+02
-3.374715529900000206e+02
-3.374406562600000257e+02
-3.374083103899999969e+02
-3.371405082200000152e+02
-3.371448159099999771e+02
-3.371453766100000280e+02
-3.371422379900000124e+02
-3.371355806899999834e+02
-3.371256978499999946e+02
-3.371129926599999749e+02
-3.370979619699999716e+02
-3.370811692500000163e+02
-3.370632217200000014e+02
-3.371337877299999946e+02
-3.371350240799999938e+02
-3.371323729299999741e+02
-3.371259520300000077e+02
-3.371159827899999755e+02
-3.371027863699999898e+02
-3.370867620999999872e+02
-3.370683824000000186e+02
-3.370481643200000121e+02
-3.370266584199999897e+02
-3.371338811699999951e+02
-3.371309423800000218e+02
-3.371241075199999955e+02
-3.371136230000000182e+02
-3.370998381300000233e+02
-3.370831798300000059e+02
-3.370641421700000251e+02
-3.370432639800000061e+02
-3.370211071800000013e+02
-3.369982384400000228e+02
-3.372055880300000013e+02
-3.372070616199999904e+02
-3.372050965899999824e+02
-3.371997848400000066e+02
-3.371913124299999822e+02
-3.371799613000000022e+02
-3.371660999900000206e+02
-3.371501570699999775e+02
-3.371326134500000080e+02
-3.371139821300000108e+02
-3.375192766999999776e+02
-3.375216405400000212e+02
-3.375201373200000035e+02
-3.375149822000000199e+02
-3.375065041700000279e+02
-3.374951353999999810e+02
-3.374813872400000037e+02
-3.374658374900000126e+02
-3.374491032399999995e+02
-3.374318170000000237e+02
-3.371650047699999959e+02
-3.371708982499999934e+02
-3.371731323700000189e+02
-3.371718177600000104e+02
-3.371672041900000067e+02
-3.371596619100000112e+02
-3.371496682299999748e+02
-3.371377779599999940e+02
-3.371245981899999720e+02
-3.371107547099999806e+02
-3.364733860499999878e+02
-3.364662900999999806e+02
-3.364604742199999805e+02
-3.364560391699999968e+02
-3.364530749200000059e+02
-3.364516598700000145e+02
-3.364518539200000191e+02
-3.364537048000000254e+02
-3.364572374399999717e+02
-3.364624609400000281e+02
-3.363526732000000266e+02
-3.363560579499999790e+02
-3.363579252999999767e+02
-3.363583408999999733e+02
-3.363574137400000268e+02
-3.363552974500000232e+02
-3.363521831099999986e+02
-3.363482928500000071e+02
-3.363438727299999869e+02
-3.363391807500000255e+02
-3.373747324899999853e+02
-3.373759311700000012e+02
-3.373730673499999853e+02
-3.373663316999999893e+02
-3.373560705599999778e+02
-3.373427568899999756e+02
-3.373269712300000265e+02
-3.373093671199999903e+02
-3.372906430200000045e+02
-3.372715057600000250e+02
-3.364580230700000243e+02
-3.364648579799999766e+02
-3.364718936599999779e+02
-3.364790618299999778e+02
-3.364863203300000123e+02
-3.364936589600000048e+02
-3.365011061100000234e+02
-3.365087131500000055e+02
-3.365165655999999785e+02
-3.365247710799999936e+02
-3.368879654500000242e+02
-3.368863701299999889e+02
-3.368809733900000083e+02
-3.368720401799999991e+02
-3.368599545399999897e+02
-3.368451938499999869e+02
-3.368283112299999971e+02
-3.368099160400000187e+02
-3.367906454999999823e+02
-3.367711369699999864e+02
-3.373440183299999831e+02
-3.373439088800000150e+02
-3.373387266500000123e+02
-3.373286850700000059e+02
-3.373141480799999954e+02
-3.372956031200000098e+02
-3.372736410900000124e+02
-3.372489345000000185e+02
-3.372222084499999823e+02
-3.371942119999999932e+02
-3.372156101799999988e+02
-3.372267416099999764e+02
-3.372362134399999718e+02
-3.372438979899999936e+02
-3.372497711099999833e+02
-3.372539090600000122e+02
-3.372564760999999862e+02
-3.372577191099999823e+02
-3.372579407299999730e+02
-3.372574875000000247e+02
-3.356127207900000258e+02
-3.356330934100000150e+02
-3.356591392199999859e+02
-3.356905060000000276e+02
-3.357267679400000020e+02
-3.357674256199999832e+02
-3.358119206000000077e+02
-3.358596375299999863e+02
-3.359099230100000000e+02
-3.359621089500000153e+02
-3.370929135800000154e+02
-3.370960665000000063e+02
-3.370943590200000131e+02
-3.370879910300000120e+02
-3.370772918000000118e+02
-3.370627186699999811e+02
-3.370448219799999947e+02
-3.370242334700000129e+02
-3.370016326900000081e+02
-3.369777224800000113e+02
-3.369623811399999909e+02
-3.369744314299999814e+02
-3.369842315299999882e+02
-3.369916770799999881e+02
-3.369967522300000269e+02
-3.369995270300000243e+02
-3.370001498299999980e+02
-3.369988548599999945e+02
-3.369959281499999975e+02
-3.369917130700000030e+02
-3.371007379199999718e+02
-3.371008780700000216e+02
-3.371012716199999772e+02
-3.371019560700000284e+02
-3.371030358599999772e+02
-3.371046598600000266e+02
-3.371070136600000069e+02
-3.371103094900000201e+02
-3.371147575300000199e+02
-3.371205622400000266e+02
-3.373886280599999736e+02
-3.373856968499999880e+02
-3.373803462600000103e+02
-3.373727594299999737e+02
-3.373632128400000170e+02
-3.373520657500000084e+02
-3.373397409400000129e+02
-3.373267011899999943e+02
-3.373134293400000274e+02
-3.373004003600000260e+02
-3.375499839700000280e+02
-3.375505815600000119e+02
-3.375474459299999808e+02
-3.375406904399999917e+02
-3.375305057099999999e+02
-3.375171669999999722e+02
-3.375010258899999940e+02
-3.374824873900000171e+02
-3.374620018300000197e+02
-3.374400444999999991e+02
-3.372632130499999903e+02
-3.372578690899999856e+02
-3.372506837299999916e+02
-3.372419595900000218e+02
-3.372320818100000110e+02
-3.372214983499999903e+02
-3.372106931299999815e+02
-3.372001608300000157e+02
-3.371903792499999781e+02
-3.371817852600000265e+02
-3.363529910899999891e+02
-3.363541867100000218e+02
-3.363568256899999938e+02
-3.363609449799999993e+02
-3.363665937499999927e+02
-3.363738356800000133e+02
-3.363827422900000101e+02
-3.363933935599999927e+02
-3.364058689699999718e+02
-3.364202471099999912e+02
-3.366696336399999723e+02
-3.366680418600000166e+02
-3.366660533799999939e+02
-3.366637719899999865e+02
-3.366613426700000105e+02
-3.366589530399999717e+02
-3.366568165799999974e+02
-3.366551799800000140e+02
-3.366543112300000189e+02
-3.366544873700000267e+02
-3.371811449499999753e+02
-3.371766474699999776e+02
-3.371700388300000100e+02
-3.371614605600000232e+02
-3.371511234500000000e+02
-3.371392967699999872e+02
-3.371263067900000010e+02
-3.371125170799999751e+02
-3.370983262500000137e+02
-3.370841469999999731e+02
-3.369851089699999989e+02
-3.369922003099999870e+02
-3.369971139500000277e+02
-3.369998747000000208e+02
-3.370005880900000079e+02
-3.369994342499999789e+02
-3.369966618700000254e+02
-3.369925794499999938e+02
-3.369875428400000033e+02
-3.369819440300000224e+02
-3.366526426899999933e+02
-3.366600821800000176e+02
-3.366691734600000245e+02
-3.366798539200000278e+02
-3.366920653999999899e+02
-3.367057510600000114e+02
-3.367208639099999914e+02
-3.367373561499999823e+02
-3.367551836100000173e+02
-3.367743041499999777e+02
-3.363979137800000103e+02
-3.364050952499999880e+02
-3.364145755100000201e+02
-3.364262588299999948e+02
-3.364400438100000201e+02
-3.364558344100000227e+02
-3.364735338599999750e+02
-3.364930359499999781e+02
-3.365142434300000218e+02
-3.365370507000000089e+02
-3.370152945799999884e+02
-3.370083204599999931e+02
-3.369986703700000135e+02
-3.369866321399999833e+02
-3.369725536099999772e+02
-3.369568326699999830e+02
-3.369399005500000044e+02
-3.369222019800000112e+02
-3.369041880799999831e+02
-3.368862899599999992e+02
-3.365013351900000202e+02
-3.365114340900000229e+02
-3.365227965400000016e+02
-3.365353398400000060e+02
-3.365489938499999880e+02
-3.365636992899999882e+02
-3.365794209000000023e+02
-3.365961250600000199e+02
-3.366137958900000058e+02
-3.366324262200000135e+02
-3.374690560799999730e+02
-3.374679127300000232e+02
-3.374631285799999887e+02
-3.374547902599999816e+02
-3.374430714499999908e+02
-3.374282298900000114e+02
-3.374105964199999903e+02
-3.373905621900000256e+02
-3.373685629400000039e+02
-3.373450625899999977e+02
-3.367747355199999788e+02
-3.367969560999999885e+02
-3.368200471700000094e+02
-3.368438024499999983e+02
-3.368680447699999831e+02
-3.368926283800000192e+02
-3.369174405200000137e+02
-3.369424063000000160e+02
-3.369674860100000160e+02
-3.369926727800000208e+02
-3.363633294300000216e+02
-3.363876409599999988e+02
-3.364154200099999912e+02
-3.364461320400000091e+02
-3.364792725300000029e+02
-3.365143789800000036e+02
-3.365510297000000151e+02
-3.365888444899999854e+02
-3.366274812500000166e+02
-3.366666307799999913e+02
-3.365402253600000222e+02
-3.365637755800000264e+02
-3.365907590200000072e+02
-3.366206526700000268e+02
-3.366529610499999876e+02
-3.366872402399999942e+02
-3.367230901400000107e+02
-3.367601492000000007e+02
-3.367981017299999849e+02
-3.368366534200000046e+02
-3.368743836500000270e+02
-3.368691068900000118e+02
-3.368607170700000211e+02
-3.368494140299999913e+02
-3.368354888900000219e+02
-3.368192963100000270e+02
-3.368012554900000168e+02
-3.367818239700000049e+02
-3.367614798999999834e+02
-3.367407243299999777e+02
-3.372424648300000172e+02
-3.372472268600000120e+02
-3.372510559300000068e+02
-3.372539912899999877e+02
-3.372561643299999901e+02
-3.372577917899999989e+02
-3.372591519000000062e+02
-3.372605688799999939e+02
-3.372623895699999821e+02
-3.372649524500000098e+02
-3.372984008199999835e+02
-3.372911691799999971e+02
-3.372805329000000256e+02
-3.372667149399999857e+02
-3.372500453399999856e+02
-3.372309461099999908e+02
-3.372099085799999898e+02
-3.371874820400000203e+02
-3.371642457599999716e+02
-3.371407959000000005e+02
-3.352806249000000207e+02
-3.352805713199999786e+02
-3.352869469699999740e+02
-3.352996933100000092e+02
-3.353186816599999815e+02
-3.353437147399999958e+02
-3.353745210399999905e+02
-3.354107518399999890e+02
-3.354519824600000106e+02
-3.354977149100000133e+02
-3.378912029800000028e+02
-3.378896948099999804e+02
-3.378828272999999740e+02
-3.378707814399999734e+02
-3.378538845200000083e+02
-3.378325950500000090e+02
-3.378074867099999778e+02
-3.377792144800000074e+02
-3.377484932699999831e+02
-3.377160718599999996e+02
-3.359544212700000116e+02
-3.359612159199999724e+02
-3.359721828799999912e+02
-3.359872114699999770e+02
-3.360061477900000000e+02
-3.360288007999999991e+02
-3.360549433099999987e+02
-3.360843087200000241e+02
-3.361165941500000258e+02
-3.361514729900000020e+02
-3.375880765599999904e+02
-3.375886195900000075e+02
-3.375848993700000165e+02
-3.375770510799999897e+02
-3.375653156199999785e+02
-3.375500320599999782e+02
-3.375316216200000099e+02
-3.375105685699999754e+02
-3.374873935200000119e+02
-3.374626428400000009e+02
-3.377031087500000126e+02
-3.377037535200000207e+02
-3.377000205800000003e+02
-3.376920541900000217e+02
-3.376801026599999886e+02
-3.376645049200000130e+02
-3.376456835899999760e+02
-3.376241146200000003e+02
-3.376003165800000261e+02
-3.375748328899999819e+02
-3.373508878999999752e+02
-3.373545762499999796e+02
-3.373544752399999993e+02
-3.373506214799999725e+02
-3.373431711999999720e+02
-3.373323924399999783e+02
-3.373186532700000271e+02
-3.373024110200000223e+02
-3.372841859000000113e+02
-3.372645538400000191e+02
-3.373105615200000216e+02
-3.373126044200000138e+02
-3.373097693099999788e+02
-3.373022529099999929e+02
-3.372904347900000062e+02
-3.372748522100000059e+02
-3.372561878500000034e+02
-3.372352237800000125e+02
-3.372128089999999929e+02
-3.371898262899999850e+02
-3.370875920999999948e+02
-3.370906611999999996e+02
-3.370912952300000143e+02
-3.370894811300000242e+02
-3.370852620399999751e+02
-3.370787601299999778e+02
-3.370701548999999773e+02
-3.370596780899999771e+02
-3.370476098500000148e+02
-3.370342590399999949e+02
-3.371643111000000204e+02
-3.371583332600000062e+02
-3.371487034799999947e+02
-3.371357868200000212e+02
-3.371201200300000096e+02
-3.371023823500000276e+02
-3.370833622000000105e+02
-3.370639198100000158e+02
-3.370449540999999840e+02
-3.370273571100000254e+02
-3.367409903399999962e+02
-3.367440831499999945e+02
-3.367452601699999946e+02
-3.367445139700000141e+02
-3.367418836499999770e+02
-3.367374687899999799e+02
-3.367314080099999956e+02
-3.367238875499999722e+02
-3.367151252099999965e+02
-3.367053662999999801e+02
-3.365866479200000185e+02
-3.365804741900000181e+02
-3.365740399800000091e+02
-3.365675544900000205e+02
-3.365612624299999993e+02
-3.365554372099999796e+02
-3.365503708599999868e+02
-3.365463624500000037e+02
-3.365437119100000132e+02
-3.365427070399999820e+02
-3.369698281600000200e+02
-3.369744495099999995e+02
-3.369772154199999932e+02
-3.369781099599999834e+02
-3.369771871699999792e+02
-3.369745773800000279e+02
-3.369704739000000018e+02
-3.369651329700000133e+02
-3.369588554000000045e+02
-3.369519811900000263e+02
-3.366038656399999809e+02
-3.366053916199999776e+02
-3.366082340099999897e+02
-3.366123780699999770e+02
-3.366178104900000108e+02
-3.366245130500000187e+02
-3.366324741799999742e+02
-3.366416760899999758e+02
-3.366520987800000171e+02
-3.366637168099999826e+02
-3.373432437499999992e+02
-3.373470396000000164e+02
-3.373479153800000176e+02
-3.373459540399999810e+02
-3.373413117200000215e+02
-3.373342157999999813e+02
-3.373249522099999922e+02
-3.373138557300000002e+02
-3.373012976300000219e+02
-3.372876695900000072e+02
-3.356779971899999850e+02
-3.356855884600000195e+02
-3.357020642800000019e+02