-2.360265862296730965e+00 -2.470177198319975333e-05 -1.566029591881752531e-05 -2.470177198347843394e-05 -2.360252624657034115e+00 9.041476061846431600e-06 -1.566029591881752531e-05 9.041476061846431600e-06 -2.034711856327283019e+00
-2.471015603399321137e+00 9.895840402543783221e-02 -1.343454934366659359e-01 9.895840402543787384e-02 -2.408072290759623701e+00 -1.124054228877005984e-01 -1.343454934366659359e-01 -1.124054228877005984e-01 -2.256318434648581839e+00
-2.568836207669199290e+00 1.957907287601916013e-01 -2.682884905530266151e-01 1.957907287601917679e-01 -2.446072739918653483e+00 -2.245838584539912031e-01 -2.682884905530266151e-01 -2.245838584539912031e-01 -2.461704604911601812e+00
-2.653190507064730141e+00 2.899680711579500914e-01 -4.018265686928771951e-01 2.899680711579502024e-01 -2.473923158473645856e+00 -3.364949446309724035e-01 -4.018265686928771951e-01 -3.364949446309724035e-01 -2.650436376265286054e+00
-2.724237527201161413e+00 3.809079284648070329e-01 -5.347102874802061034e-01 3.809079284648068109e-01 -2.492079341181683283e+00 -4.480321311521748839e-01 -5.347102874802061034e-01 -4.480321311521748839e-01 -2.822188255571339788e+00
-2.782649235173166424e+00 4.680344167467045957e-01 -6.667100629985728277e-01 4.680344167467046512e-01 -2.501460620735304730e+00 -5.590147624351875510e-01 -6.667100629985728277e-01 -5.590147624351875510e-01 -2.977828224531879897e+00
-2.829745512547025665e+00 5.508047461688259094e-01 -7.976662204838266268e-01 5.508047461688257984e-01 -2.503387226578829061e+00 -6.693471031970502638e-01 -7.976662204838266268e-01 -6.693471031970502638e-01 -3.118947582934117335e+00
-2.866846890037824558e+00 6.287905942802018977e-01 -9.274124663519596190e-01 6.287905942802018977e-01 -2.499214904912028246e+00 -7.789581199267835432e-01 -9.274124663519596190e-01 -7.789581199267835432e-01 -3.247445040751428369e+00
-2.895486048473749907e+00 7.015455556777281387e-01 -1.055868076467173289e+00 7.015455556777279167e-01 -2.490448910864116350e+00 -8.878526579367970184e-01 -1.055868076467173289e+00 -8.878526579367970184e-01 -3.365237390909318282e+00
-2.917351796432297917e+00 7.686792473221146782e-01 -1.183055329945242873e+00 7.686792473221147892e-01 -2.478727699049040556e+00 -9.959969739790481835e-01 -1.183055329945242873e+00 -9.959969739790481835e-01 -3.474765831944985894e+00
8.142228887110077196e+00 -1.355691069737143595e+00 -3.343906840520412871e+00 -1.355691069737143595e+00 1.719251955491515815e+01 9.261936905375597329e-01 -3.343906840520412871e+00 9.261936905375597329e-01 -1.791954834227086124e+01
8.231618845002525831e+00 -1.277030052579936070e+00 -3.151411762162299457e+00 -1.277030052579936070e+00 1.739887284838962245e+01 7.806913725998014808e-01 -3.151411762162299457e+00 7.806913725998014808e-01 -1.753158984528455377e+01
8.357111688469059274e+00 -1.199191587545763493e+00 -2.955519185904693202e+00 -1.199191587545763493e+00 1.763204849370218952e+01 6.322207143919600369e-01 -2.955519185904693202e+00 6.322207143919600369e-01 -1.706940495997826801e+01
8.517634523436154126e+00 -1.122372371881438902e+00 -2.756175467043918026e+00 -1.122372371881438902e+00 1.789052655758203514e+01 4.808353606177113715e-01 -2.756175467043918026e+00 4.808353606177113715e-01 -1.653767865713972895e+01
8.712042929558720061e+00 -1.047019444784264008e+00 -2.553577302826786521e+00 -1.047019444784264008e+00 1.817259040951151761e+01 3.268929426348970990e-01 -2.553577302826786521e+00 3.268929426348970990e-01 -1.593977267153264954e+01
8.938995789244847501e+00 -9.736513717231084497e-01 -2.347849864228542582e+00 -9.736513717231084497e-01 1.847634460329407702e+01 1.707689733692504541e-01 -2.347849864228542582e+00 1.707689733692504541e-01 -1.527965671122906066e+01
9.197044695495280919e+00 -9.026615471915981903e-01 -2.138993151249187097e+00 -9.026615471915981903e-01 1.879971487705423883e+01 1.289261045018110646e-02 -2.138993151249187097e+00 1.289261045018110646e-02 -1.456146141841204056e+01
9.484186912706112693e+00 -8.344970103870344991e-01 -1.926971400752935715e+00 -8.344970103870344991e-01 1.914035874539813520e+01 -1.463427516286854024e-01 -1.926971400752935715e+00 -1.463427516286854024e-01 -1.378992540857297655e+01
9.798509113112885416e+00 -7.694617479635827983e-01 -1.711623678628759526e+00 -7.694617479635827983e-01 1.949586219666034026e+01 -3.065615999416156923e-01 -1.711623678628759526e+00 -3.065615999416156923e-01 -1.296994823131430152e+01
1.013791915327223059e+01 -7.078955097111923056e-01 -1.492645998222493331e+00 -7.078955097111923056e-01 1.986393639015067336e+01 -4.673884215628762440e-01 -1.492645998222493331e+00 -4.673884215628762440e-01 -1.210623273899162733e+01
8.883387062546363566e+00 -9.953390762202944941e+00 -9.826129374984201803e+00 -9.953390762202944941e+00 -2.087792747216664324e+01 2.412558567010057686e+01 -9.826129374984201803e+00 2.412558567010057686e+01 -3.329211749194217251e+00
8.944998022958525752e+00 -9.919510192714625418e+00 -9.752727539691036895e+00 -9.919510192714625418e+00 -2.090931521779894453e+01 2.415710078629486546e+01 -9.752727539691036895e+00 2.415710078629486546e+01 -3.295786074570135504e+00
9.001950859960906826e+00 -9.870272372609690592e+00 -9.650794698512971337e+00 -9.870272372609690592e+00 -2.091908635948274053e+01 2.414662000862286462e+01 -9.650794698512971337e+00 2.414662000862286462e+01 -3.254317858746355707e+00
9.053699699716428739e+00 -9.806004826190390489e+00 -9.520494613601128364e+00 -9.806004826190390489e+00 -2.090718630983431581e+01 2.409408874970085535e+01 -9.520494613601128364e+00 2.409408874970085535e+01 -3.206262765288435013e+00
9.099371144085750984e+00 -9.727144252526386481e+00 -9.362318571408890122e+00 -9.727144252526386481e+00 -2.087406996371791834e+01 2.399927046419944787e+01 -9.362318571408890122e+00 2.399927046419944787e+01 -3.152621562897692797e+00
9.137909836983848066e+00 -9.634218329660200197e+00 -9.176958012129890818e+00 -9.634218329660200197e+00 -2.082075628562942526e+01 2.386191041099466048e+01 -9.176958012129890818e+00 2.386191041099466048e+01 -3.094758936166837948e+00
9.168187639147415524e+00 -9.527973085169174183e+00 -8.965213550725186664e+00 -9.527973085169174183e+00 -2.074833702324301044e+01 2.368164467419510899e+01 -8.965213550725186664e+00 2.368164467419510899e+01 -3.034239723428843405e+00
9.189040019724005859e+00 -9.409172742425226943e+00 -8.728031368512390031e+00 -9.409172742425226943e+00 -2.065839521068620854e+01 2.345814572949853627e+01 -8.728031368512390031e+00 2.345814572949853627e+01 -2.972938091524361948e+00
9.199393426834024723e+00 -9.278708895362262510e+00 -8.466539604754805382e+00 -9.278708895362262510e+00 -2.055258666526485101e+01 2.319097687783528627e+01 -8.466539604754805382e+00 2.319097687783528627e+01 -2.912691815704908649e+00
9.198247091776147855e+00 -9.137527725297887926e+00 -8.181902790304880213e+00 -9.137527725297887926e+00 -2.043267637905216816e+01 2.287961044116283560e+01 -8.181902790304880213e+00 2.287961044116283560e+01 -2.855484237578553852e+00
-4.477354930044498360e+01 4.267980473700299093e+00 4.118366184743214475e+00 4.267980473700299093e+00 -2.493556907740289930e+01 5.098634443419594930e+00 4.118366184743214475e+00 5.098634443419594930e+00 -5.610554846600837209e+01
-4.462005682661531836e+01 4.339289647509451342e+00 4.279538985477414847e+00 4.339289647509451342e+00 -2.500693528334253202e+01 4.869612418125313091e+00 4.279538985477414847e+00 4.869612418125313091e+00 -5.599522931495145883e+01
-4.439299290446749069e+01 4.410066521434130138e+00 4.435369776656732377e+00 4.410066521434130138e+00 -2.501121269312847062e+01 4.635039265464389935e+00 4.435369776656732377e+00 4.635039265464389935e+00 -5.568833942084291522e+01
-4.409134996636304038e+01 4.480159009793059255e+00 4.585896579701484121e+00 4.480159009793059255e+00 -2.494688044994794041e+01 4.394515760523470149e+00 4.585896579701484121e+00 4.394515760523470149e+00 -5.518438450521860261e+01
-4.371661084769441175e+01 4.549338984064321245e+00 4.730815223249115853e+00 4.549338984064321245e+00 -2.481490810001908542e+01 4.148536181766707465e+00 4.730815223249115853e+00 4.148536181766707465e+00 -5.448564585329767596e+01
-4.326995421249152685e+01 4.617188208624401824e+00 4.869669450255791787e+00 4.617188208624401824e+00 -2.461575190038573879e+01 3.897480743397296887e+00 4.869669450255791787e+00 3.897480743397296887e+00 -5.359499408231427253e+01
-4.275326212106018886e+01 4.683402512110745874e+00 5.002003003677681470e+00 4.683402512110745874e+00 -2.435055249365748864e+01 3.641862734589551120e+00 5.002003003677681470e+00 3.641862734589551120e+00 -5.251685868773559918e+01
-4.216797938737254725e+01 4.747449594638880832e+00 5.127340615760789255e+00 4.747449594638880832e+00 -2.402022239392200120e+01 3.382347530199059982e+00 5.127340615760789255e+00 3.382347530199059982e+00 -5.125698090402988782e+01
-4.151931494601235784e+01 4.808759134904013521e+00 5.245283061591761609e+00 4.808759134904013521e+00 -2.362850671108073897e+01 3.118992162356303499e+00 5.245283061591761609e+00 3.118992162356303499e+00 -4.982283194028992312e+01
-4.080991128569182536e+01 4.866817843731832127e+00 5.355298041286126853e+00 4.866817843731832127e+00 -2.317732552685983904e+01 2.852595080887990076e+00 5.355298041286126853e+00 2.852595080887990076e+00 -4.822323276602981679e+01
-2.991811225906821914e+00 -6.927163083205988059e+00 9.979541205072411714e+00 -6.927163083205988059e+00 -1.325112075937834533e+01 6.462153850653241882e+00 9.979541205072411714e+00 6.462153850653241882e+00 -1.277089224655132682e+01
-3.251104695231913144e+00 -7.010522402501998762e+00 9.901930175088626385e+00 -7.010522402501998762e+00 -1.318017044558174078e+01 6.537228333924649526e+00 9.901930175088626385e+00 6.537228333924649526e+00 -1.303909100217599182e+01
-3.488080203195571993e+00 -7.087166259998331164e+00 9.807986704043122117e+00 -7.087166259998331164e+00 -1.308412839272383543e+01 6.603105554296496926e+00 9.807986704043122117e+00 6.603105554296496926e+00 -1.325338357802823630e+01
-3.700821653360391039e+00 -7.156583696645009596e+00 9.698112259760881315e+00 -7.156583696645009596e+00 -1.296304934641713125e+01 6.659603026393792646e+00 9.698112259760881315e+00 6.659603026393792646e+00 -1.341218235134563663e+01
-3.889000572051385607e+00 -7.218354996079552777e+00 9.572708310066881054e+00 -7.218354996079552777e+00 -1.281859392357404381e+01 6.706465270691550629e+00 9.572708310066881054e+00 6.706465270691550629e+00 -1.351599828117816848e+01
-4.052470970968562014e+00 -7.271987447789486581e+00 9.432066831561112252e+00 -7.271987447789486581e+00 -1.265247748671949424e+01 6.743290819364788469e+00 9.432066831561112252e+00 6.743290819364788469e+00 -1.356616351076326943e+01
-4.191433584024411907e+00 -7.317170826637324765e+00 9.276498049381057598e+00 -7.317170826637324765e+00 -1.246670737497838388e+01 6.769732950201023058e+00 9.276498049381057598e+00 6.769732950201023058e+00 -1.356433865701335506e+01
-4.306435867343908264e+00 -7.353540161873083569e+00 9.106093206214211477e+00 -7.353540161873083569e+00 -1.226336392162561495e+01 6.785317201225277373e+00 9.106093206214211477e+00 6.785317201225277373e+00 -1.351282303565332121e+01
-4.398098271202021792e+00 -7.380821725434277170e+00 8.920888799135576974e+00 -7.380821725434277170e+00 -1.204447271432359123e+01 6.789642104612569895e+00 8.920888799135576974e+00 6.789642104612569895e+00 -1.341397070802055147e+01
-4.467187234173715105e+00 -7.398741789258420631e+00 8.720811833995149698e+00 -7.398741789258420631e+00 -1.181213233488471026e+01 6.782196701312925846e+00 8.720811833995149698e+00 6.782196701312925846e+00 -1.327031822082742529e+01
1.210339994503531713e+01 1.360551319097778311e+01 -9.672582187886725080e+00 1.360551319097778311e+01 2.883466647452534914e+01 1.551912223691699033e+01 -9.672582187886725080e+00 1.551912223691699033e+01 3.950340373277313688e+01
1.199570371006922365e+01 1.364893569510198468e+01 -9.541208928642724629e+00 1.364893569510198468e+01 2.885097185299397893e+01 1.554439645112024415e+01 -9.541208928642724629e+00 1.554439645112024415e+01 3.938398307066275805e+01
1.184196979187039922e+01 1.367612302690812420e+01 -9.390160395702995544e+00 1.367612302690812420e+01 2.879212154728320527e+01 1.552591468198411562e+01 -9.390160395702995544e+00 1.552591468198411562e+01 3.909640112641253040e+01
1.164202267506242805e+01 1.368716294408440781e+01 -9.219612104443948297e+00 1.368716294408440781e+01 2.865741349588738629e+01 1.546395775411086149e+01 -9.219612104443948297e+00 1.546395775411086149e+01 3.864014890543085556e+01
1.139598522040880013e+01 1.368212565278139792e+01 -9.029915085618409165e+00 1.368212565278139792e+01 2.844691790495708261e+01 1.535884159517801706e+01 -9.029915085618409165e+00 1.535884159517801706e+01 3.801649011842790316e+01
1.110348884561905081e+01 1.366134463221427708e+01 -8.821402818441555382e+00 1.366134463221427708e+01 2.816054701680409167e+01 1.521128581822887504e+01 -8.821402818441555382e+00 1.521128581822887504e+01 3.722681133687732569e+01
1.076418251994035558e+01 1.362538153158756415e+01 -8.594443885203856937e+00 1.362538153158756415e+01 2.779872206833180570e+01 1.502222065475841895e+01 -8.594443885203856937e+00 1.502222065475841895e+01 3.627323629683368722e+01
1.037782052184573800e+01 1.357497351548218312e+01 -8.349301558969926873e+00 1.357497351548218312e+01 2.736233818795991368e+01 1.479280450625095789e+01 -8.349301558969926873e+00 1.479280450625095789e+01 3.515867855354543536e+01
9.944139578270585034e+00 1.351101571231783538e+01 -8.086361973567871786e+00 1.351101571231783538e+01 2.685267663793622361e+01 1.452449415033071034e+01 -8.086361973567871786e+00 1.452449415033071034e+01 3.388671862069135443e+01
9.463157240752533284e+00 1.343466652357883717e+01 -7.806046365901078588e+00 1.343466652357883717e+01 2.627156277817541508e+01 1.421886922538538123e+01 -7.806046365901078588e+00 1.421886922538538123e+01 3.246216561958512870e+01
1.424880992709548799e+01 4.267723980355235369e+00 -2.373187755712752534e+01 4.267723980355235369e+00 6.124710357292523888e+00 -3.176206245686999718e+00 -2.373187755712752534e+01 -3.176206245686999718e+00 1.610463928099374442e+01
1.407904794673784110e+01 4.254106709203552938e+00 -2.369157755466032000e+01 4.254106709203552938e+00 6.127077804433927355e+00 -3.087560480542710373e+00 -2.369157755466032000e+01 -3.087560480542710373e+00 1.587134783561602092e+01
1.388598530240953544e+01 4.234348315767777926e+00 -2.359622105588964658e+01 4.234348315767777926e+00 6.117750418703884918e+00 -2.988946516908300044e+00 -2.359622105588964658e+01 -2.988946516908300044e+00 1.557281809119134763e+01
1.367065441466847808e+01 4.208680204655716572e+00 -2.344648447428447469e+01 4.208680204655716572e+00 6.096354392659018906e+00 -2.880524557973788369e+00 -2.344648447428447469e+01 -2.880524557973788369e+00 1.521050967678434773e+01
1.343337568989470832e+01 4.177333780475175118e+00 -2.324327562792158020e+01 4.177333780475175118e+00 6.061323295108022258e+00 -2.762615010119215952e+00 -2.324327562792158020e+01 -2.762615010119215952e+00 1.478499220373731404e+01
1.317443393375937255e+01 4.140736251732874962e+00 -2.298757353629553535e+01 4.140736251732874962e+00 6.010983892732912004e+00 -2.635698482914640817e+00 -2.298757353629553535e+01 -2.635698482914640817e+00 1.429678188232919389e+01
1.289384694661691455e+01 4.099332627289979492e+00 -2.268049962173646961e+01 4.099332627289979492e+00 5.943413747253449841e+00 -2.500237785575677218e+00 -2.268049962173646961e+01 -2.500237785575677218e+00 1.374612791752224972e+01
1.259140112421398072e+01 4.053532315298762789e+00 -2.232315750622008466e+01 4.053532315298762789e+00 5.856298812591571590e+00 -2.356766928735722910e+00 -2.232315750622008466e+01 -2.356766928735722910e+00 1.313292350718979762e+01
1.226704306548722556e+01 4.003869326392625716e+00 -2.191663301136761532e+01 4.003869326392625716e+00 5.747574247631467514e+00 -2.205730921255944832e+00 -2.191663301136761532e+01 -2.205730921255944832e+00 1.245716865133183404e+01
1.192036336228437676e+01 3.950931072268305311e+00 -2.146201195880031776e+01 3.950931072268305311e+00 5.614819204168393085e+00 -2.047752775541975545e+00 -2.146201195880031776e+01 -2.047752775541975545e+00 1.171843614144164292e+01
-3.828977758975614165e+01 9.288228642086419740e+00 -1.280520144439214825e+01 9.288228642086419740e+00 -4.088044368148623420e+01 -4.129255914774089042e+00 -1.280520144439214825e+01 -4.129255914774089042e+00 -4.696963078221334342e+01
-3.831680717954101567e+01 9.319089647630651285e+00 -1.273139427115727251e+01 9.319089647630651285e+00 -4.083412358051496938e+01 -4.071060331125825549e+00 -1.273139427115727251e+01 -4.071060331125825549e+00 -4.695783154661613423e+01
-3.828403999700208260e+01 9.343889010331730915e+00 -1.264039338143017943e+01 9.343889010331730915e+00 -4.072348906774243460e+01 -4.005773769057267231e+00 -1.264039338143017943e+01 -4.005773769057267231e+00 -4.677596319955157611e+01
-3.819071357134146183e+01 9.362397988950290184e+00 -1.253227502229065848e+01 9.362397988950290184e+00 -4.054793016653034954e+01 -3.933129363789158450e+00 -1.253227502229065848e+01 -3.933129363789158450e+00 -4.642444509995850410e+01
-3.803764755866685476e+01 9.374521274636597568e+00 -1.240711544081849738e+01 9.374521274636597568e+00 -4.030849527422577694e+01 -3.852879312312187388e+00 -1.240711544081849738e+01 -3.852879312312187388e+00 -4.590508811598188998e+01
-3.782577598570567545e+01 9.380030126151288172e+00 -1.226508619294322067e+01 9.380030126151288172e+00 -4.000642340587528878e+01 -3.764928305776618522e+00 -1.226508619294322067e+01 -3.764928305776618522e+00 -4.522057995718424905e+01
-3.755645223812418010e+01 9.378829234644625146e+00 -1.210622540220472310e+01 9.378829234644625146e+00 -3.964341105900415840e+01 -3.669161973562769408e+00 -1.210622540220472310e+01 -3.669161973562769408e+00 -4.437458048339543382e+01
-3.723120125751810860e+01 9.370689858877245371e+00 -1.193060931568279059e+01 9.370689858877245371e+00 -3.922142159591693655e+01 -3.565542192130746635e+00 -1.193060931568279059e+01 -3.565542192130746635e+00 -4.337145483993328554e+01
-3.685206265327179409e+01 9.355421381149678695e+00 -1.173827605691731613e+01 9.355421381149678695e+00 -3.874285679962695639e+01 -3.453992714400762054e+00 -1.173827605691731613e+01 -3.453992714400762054e+00 -4.221644501353325296e+01
-3.642086635530016991e+01 9.332871307302349706e+00 -1.152914937882851554e+01 9.332871307302349706e+00 -3.821011845314752975e+01 -3.334532602142762148e+00 -1.152914937882851554e+01 -3.334532602142762148e+00 -4.091525047340950039e+01
-8.926740246244859733e+00 -7.544427345008385188e+00 1.048970109583370025e+01 -7.544427345008385188e+00 -6.872201671586493088e-01 -8.628241801941934241e+00 1.048970109583370025e+01 -8.628241801941934241e+00 -3.931851021329936202e+01
-8.945195007767022588e+00 -7.566214216249827373e+00 1.035334091347549546e+01 -7.566214216249827373e+00 -6.153234920618884107e-01 -8.598435897420026564e+00 1.035334091347549546e+01 -8.598435897420026564e+00 -3.925166662766700654e+01
-8.905777248285657421e+00 -7.583021231207511370e+00 1.020361567564984995e+01 -7.583021231207511370e+00 -4.892708798792557157e-01 -8.554569222214567503e+00 1.020361567564984995e+01 -8.554569222214567503e+00 -3.904150570751530580e+01
-8.807260312024981275e+00 -7.594958239652402909e+00 1.004059861553740873e+01 -7.594958239652402909e+00 -3.083849236897988622e-01 -8.496220685536856720e+00 1.004059861553740873e+01 -8.496220685536856720e+00 -3.868793591136846288e+01
-8.650394839086594345e+00 -7.602208324536110062e+00 9.864326349728491650e+00 -7.602208324536110062e+00 -7.413028710638776275e-02 -8.422950888303029515e+00 9.864326349728491650e+00 -8.422950888303029515e+00 -3.819352040054900499e+01
-8.436169477409181994e+00 -7.604844719039276058e+00 9.674890419698906285e+00 -7.604844719039276058e+00 2.117171252403724779e-01 -8.334320431429226517e+00 9.674890419698906285e+00 -8.334320431429226517e+00 -3.756155466818587740e+01
-8.166067198900774926e+00 -7.603032197818349047e+00 9.472272517153488280e+00 -7.603032197818349047e+00 5.468687764553723518e-01 -8.229999765602554973e+00 9.472272517153488280e+00 -8.229999765602554973e+00 -3.679626793046125499e+01
-7.841625900354888046e+00 -7.596898918939455569e+00 9.256326175730952954e+00 -7.596898918939455569e+00 9.292192125951109771e-01 -8.109567800034310991e+00 9.256326175730952954e+00 -8.109567800034310991e+00 -3.590196263673793453e+01
-7.464822877648893851e+00 -7.586554732173560467e+00 9.026923237365174657e+00 -7.586554732173560467e+00 1.356058805975778991e+00 -7.972694985411600044e+00 9.026923237365174657e+00 -7.972694985411600044e+00 -3.488382003454644575e+01
-7.037855126202100742e+00 -7.572091178996468663e+00 8.783752461038417891e+00 -7.572091178996468663e+00 1.824641312323244335e+00 -7.819051772421527602e+00 8.783752461038417891e+00 -7.819051772421527602e+00 -3.374762554515763213e+01
-3.700838004369795442e+01 1.248748440437460694e+01 -4.123455867957906307e+00 1.248748440437460694e+01 -2.791801955630388932e+01 4.793288407596860146e-01 -4.123455867957906307e+00 4.793288407596860146e-01 -4.277203781286427642e+01
-3.693359529963617405e+01 1.244942144421181851e+01 -4.335928411834357732e+00 1.244942144421181851e+01 -2.781875362297611787e+01 5.494100229948952752e-01 -4.335928411834357732e+00 5.494100229948952752e-01 -4.252971937466663377e+01
-3.679305513903511127e+01 1.240401034930792612e+01 -4.546266407572646884e+00 1.240401034930792612e+01 -2.765777469170699376e+01 6.220791087250435725e-01 -4.546266407572646884e+00 6.220791087250435725e-01 -4.212581753139082963e+01
-3.658672178228169258e+01 1.235117556043679876e+01 -4.754356516333581695e+00 1.235117556043679876e+01 -2.743532832998143434e+01 6.973927673697281060e-01 -4.754356516333581695e+00 6.973927673697281060e-01 -4.156276906807953253e+01
-3.631599307505931762e+01 1.229095485721150283e+01 -4.959613154114655309e+00 1.229095485721150283e+01 -2.715279349367630601e+01 7.751998804766895290e-01 -4.959613154114655309e+00 7.751998804766895290e-01 -4.084338856590608913e+01
-3.598256909995590291e+01 1.222334823963203831e+01 -5.161242949041507266e+00 1.222334823963203831e+01 -2.681190804499258817e+01 8.552359907544743178e-01 -5.161242949041507266e+00 8.552359907544743178e-01 -3.997145398617697509e+01
-3.558901887065984937e+01 1.214839348731146984e+01 -5.358376970013649654e+00 1.214839348731146984e+01 -2.641524099761869238e+01 9.371421918789668570e-01 -5.358376970013649654e+00 9.371421918789668570e-01 -3.895250004220617512e+01
-3.513793029066609819e+01 1.206618504928245805e+01 -5.550070726704459112e+00 1.206618504928245805e+01 -2.596534247543648988e+01 1.020484018299921969e+00 -5.550070726704459112e+00 1.020484018299921969e+00 -3.779187254924237038e+01
-3.463245795766556512e+01 1.197674181535153792e+01 -5.735304169561186605e+00 1.197674181535153792e+01 -2.546540485574995216e+01 1.104808114660561946e+00 -5.735304169561186605e+00 1.104808114660561946e+00 -3.649644739686334560e+01
-3.407592647760795757e+01 1.188019601416443294e+01 -5.912981689804954755e+00 1.188019601416443294e+01 -2.491862051586306137e+01 1.189547786764914683e+00 -5.912981689804954755e+00 1.189547786764914683e+00 -3.507260933967705085e+01
-3.896990855829069123e+00 6.425967462720612033e+00 1.720201499292686265e+01 6.425967462720612033e+00 -2.290223261817153855e+01 1.345583475246359484e+01 1.720201499292686265e+01 1.345583475246359484e+01 1.048330073452341793e+01
-3.629424813093256930e+00 6.386087285464417285e+00 1.727974847029848249e+01 6.386087285464417285e+00 -2.269775540896143795e+01 1.348253109822758411e+01 1.727974847029848249e+01 1.348253109822758411e+01 1.109826621512511657e+01
-3.383223151030406051e+00 6.335159714783316964e+00 1.731289065057320542e+01 6.335159714783316964e+00 -2.249052091643371654e+01 1.347922601027732270e+01 1.731289065057320542e+01 1.347922601027732270e+01 1.167284023414682359e+01
-3.161015331877188750e+00 6.273367352221520754e+00 1.730125893220681377e+01 6.273367352221520754e+00 -2.228244645680261016e+01 1.344573688706859649e+01 1.730125893220681377e+01 1.344573688706859649e+01 1.220017523368053602e+01
-2.964463029685945550e+00 6.200838018859981204e+00 1.724463419334625769e+01 6.200838018859981204e+00 -2.207471894010551239e+01 1.338186286690276816e+01 1.724463419334625769e+01 1.338186286690276816e+01 1.267709394685694768e+01
-2.795410520053231984e+00 6.117900397478280183e+00 1.714310773476363892e+01 6.117900397478280183e+00 -2.186901830054917895e+01 1.328749438885331102e+01 1.714310773476363892e+01 1.328749438885331102e+01 1.310056518804211301e+01
-2.655683818421181730e+00 6.024883170856003112e+00 1.699689867831201440e+01 6.024883170856003112e+00 -2.166724359419343315e+01 1.316250363183927696e+01 1.699689867831201440e+01 1.316250363183927696e+01 1.346764907237419528e+01
-2.547017639459820959e+00 5.922279363162525456e+00 1.680637222707980882e+01 5.922279363162525456e+00 -2.147140343802462326e+01 1.300678103493413751e+01 1.680637222707980882e+01 1.300678103493413751e+01 1.377546049545462914e+01
-2.471073657221491526e+00 5.810655039184908333e+00 1.657196662477314320e+01 5.810655039184908333e+00 -2.128368905057330807e+01 1.282021703721136596e+01 1.657196662477314320e+01 1.282021703721136596e+01 1.402129695442905444e+01
-2.429422244986427781e+00 5.690594523864635157e+00 1.629422967602464567e+01 5.690594523864635157e+00 -2.110640121129657132e+01 1.260262903712674465e+01 1.629422967602464567e+01 1.260262903712674465e+01 1.420245594644311282e+01
-1.714285155797351123e+01 3.136715462873424176e+00 4.395350306355286563e+00 3.136715462873424176e+00 1.393703457428147630e+01 -2.455319705187079649e+01 4.395350306355286563e+00 -2.455319705187079649e+01 1.898625531929004140e+01
-1.715409226417549604e+01 3.131365319056133245e+00 4.316305083896456729e+00 3.131365319056133245e+00 1.415015764331302073e+01 -2.445235494719337410e+01 4.316305083896456729e+00 -2.445235494719337410e+01 1.924243173419136710e+01
-1.716054125907984229e+01 3.122592524311956108e+00 4.233242750086597006e+00 3.122592524311956108e+00 1.431058990202275893e+01 -2.428650048885735302e+01 4.233242750086597006e+00 -2.428650048885735302e+01 1.941841003369006913e+01
-1.716363965886628762e+01 3.110649273972347029e+00 4.145911109594253574e+00 3.110649273972347029e+00 1.441607960637984753e+01 -2.405530942572229947e+01 4.145911109594253574e+00 -2.405530942572229947e+01 1.950902021349132553e+01
-1.716414404952919526e+01 3.095643651750787040e+00 4.054112008944710688e+00 3.095643651750787040e+00 1.446511358439555650e+01 -2.375890785545394124e+01 4.054112008944710688e+00 -2.375890785545394124e+01 1.951231676675248394e+01
-1.716345951934381731e+01 3.077827852978730849e+00 3.957503183045279371e+00 3.077827852978730849e+00 1.445630476174688539e+01 -2.339776414081068268e+01 3.957503183045279371e+00 -2.339776414081068268e+01 1.942613801920393257e+01
-1.716349554724830995e+01 3.057580170653360963e+00 3.855688324946532131e+00 3.057580170653360963e+00 1.438860832920352273e+01 -2.297261685383464780e+01 3.855688324946532131e+00 -2.297261685383464780e+01 1.924889874304795612e+01
-1.716634175170330323e+01 3.035188828010624729e+00 3.748145030033311897e+00 3.035188828010624729e+00 1.426126770077109995e+01 -2.248449278980390531e+01 3.748145030033311897e+00 -2.248449278980390531e+01 1.897922987791380223e+01
-1.717432193254861872e+01 3.011104173856692601e+00 3.634278837881474544e+00 3.011104173856692601e+00 1.407394061135693342e+01 -2.193468895328022228e+01 3.634278837881474544e+00 -2.193468895328022228e+01 1.861601455876216704e+01
-1.719013818262128623e+01 2.985740529093239726e+00 3.513423232257891105e+00 2.985740529093239726e+00 1.382657301910428060e+01 -2.132468248834782898e+01 3.513423232257891105e+00 -2.132468248834782898e+01 1.815833407402846333e+01
-3.399840912518389047e+01 5.390317763095809900e-01 7.923481633327305040e+00 5.390317763095809900e-01 -2.088963174953303081e+01 1.050010166358597274e+01 7.923481633327305040e+00 1.050010166358597274e+01 -1.984851246348913989e+01
-3.391808333346341442e+01 4.463165941820477767e-01 8.010207366176725685e+00 4.463165941820477767e-01 -2.087114095752490428e+01 1.047082613113314586e+01 8.010207366176725685e+00 1.047082613113314586e+01 -1.971773349155678190e+01
-3.379542090494533113e+01 3.531536027626930307e-01 8.083871994681354423e+00 3.531536027626930307e-01 -2.082302011737459324e+01 1.042162308519426439e+01 8.083871994681354423e+00 1.042162308519426439e+01 -1.950508005410307177e+01
-3.363058976811404222e+01 2.599719526228458366e-01 8.144886010692028222e+00 2.599719526228458366e-01 -2.074502666571568810e+01 1.035249252576932655e+01 8.144886010692028222e+00 1.035249252576932655e+01 -1.921193289644445201e+01
-3.342513859677045929e+01 1.673127466567902177e-01 8.193473318854655574e+00 1.673127466567902177e-01 -2.063831744321873529e+01 1.026362104006325993e+01 8.193473318854655574e+00 1.026362104006325993e+01 -1.884064301736298930e+01
-3.318074667575890402e+01 7.564245287684036312e-02 8.229727212771701161e+00 7.564245287684036312e-02 -2.050399331439279038e+01 1.015515789784000766e+01 8.229727212771701161e+00 1.015515789784000766e+01 -1.839354275692025453e+01
-3.289931719456961190e+01 -1.451648454321208780e-02 8.253834279648089023e+00 -1.451648454321208780e-02 -2.034350965943627898e+01 1.002730834502498247e+01 8.253834279648089023e+00 1.002730834502498247e+01 -1.787348689935160806e+01
-3.258295858861824712e+01 -1.027162563115456978e-01 8.265831836924805387e+00 -1.027162563115456978e-01 -2.015828454110662804e+01 9.880221651382127490e+00 8.265831836924805387e+00 9.880221651382127490e+00 -1.728355413353832404e+01
-3.223407783284835659e+01 -1.885090531363389776e-01 8.265813178204311384e+00 -1.885090531363389776e-01 -1.995007187913014590e+01 9.714121721557352984e+00 8.265813178204311384e+00 9.714121721557352984e+00 -1.662723364021250561e+01
-3.185498860860100123e+01 -2.714470657257705422e-01 8.253759644766118342e+00 -2.714470657257705422e-01 -1.972051364091017689e+01 9.529139166594108090e+00 8.253759644766118342e+00 9.529139166594108090e+00 -1.590782801290134074e+01