0.000000000000000000e+00 2.032270000000000021e+00 9.675290000000000390e+00 -1.760000000000000009e+00 5.080680000000000085e+00 9.675290000000000390e+00 -3.520000000000000018e+00 8.129089999999999705e+00 9.675290000000000390e+00 3.520000000000000018e+00 2.032270000000000021e+00 9.675290000000000390e+00 1.760000000000000009e+00 5.080680000000000085e+00 9.675290000000000390e+00 0.000000000000000000e+00 8.129089999999999705e+00 9.675290000000000390e+00 7.040000000000000036e+00 2.032270000000000021e+00 9.675290000000000390e+00 5.280000000000000249e+00 5.080680000000000085e+00 9.675290000000000390e+00 3.520000000000000018e+00 8.129089999999999705e+00 9.675290000000000390e+00 1.760000000000000009e+00 2.946800000000000086e+00 1.670028999999999897e+01 0.000000000000000000e+00 5.995210000000000150e+00 1.670028999999999897e+01 -1.760000000000000009e+00 9.043609999999999260e+00 1.670028999999999897e+01 5.280000000000000249e+00 2.946800000000000086e+00 1.670028999999999897e+01 3.520000000000000018e+00 5.995210000000000150e+00 1.670028999999999897e+01 1.760000000000000009e+00 9.043609999999999260e+00 1.670028999999999897e+01 8.800000000000000711e+00 2.946800000000000086e+00 1.670028999999999897e+01 7.040000000000000036e+00 5.995210000000000150e+00 1.670028999999999897e+01 5.280000000000000249e+00 9.043609999999999260e+00 1.670028999999999897e+01 0.000000000000000000e+00 2.032270000000000021e+00 1.330081999999999987e+01 -1.760000000000000009e+00 5.080680000000000085e+00 1.330081999999999987e+01 -3.520000000000000018e+00 8.129089999999999705e+00 1.330081999999999987e+01 3.520000000000000018e+00 2.032270000000000021e+00 1.330081999999999987e+01 1.760000000000000009e+00 5.080680000000000085e+00 1.330081999999999987e+01 0.000000000000000000e+00 8.129089999999999705e+00 1.330081999999999987e+01 7.040000000000000036e+00 2.032270000000000021e+00 1.330081999999999987e+01 5.280000000000000249e+00 5.080680000000000085e+00 1.330081999999999987e+01 3.520000000000000018e+00 8.129089999999999705e+00 1.330081999999999987e+01 1.760000000000000009e+00 2.946800000000000086e+00 2.032522000000000162e+01 0.000000000000000000e+00 5.995210000000000150e+00 2.032522000000000162e+01 -1.760000000000000009e+00 9.043609999999999260e+00 2.032522000000000162e+01 5.280000000000000249e+00 2.946800000000000086e+00 2.032522000000000162e+01 3.520000000000000018e+00 5.995210000000000150e+00 2.032522000000000162e+01 1.760000000000000009e+00 9.043609999999999260e+00 2.032522000000000162e+01 8.800000000000000711e+00 2.946800000000000086e+00 2.032522000000000162e+01 7.040000000000000036e+00 5.995210000000000150e+00 2.032522000000000162e+01 5.280000000000000249e+00 9.043609999999999260e+00 2.032522000000000162e+01 0.000000000000000000e+00 0.000000000000000000e+00 1.148704999999999998e+01 -1.760000000000000009e+00 3.048410000000000064e+00 1.148704999999999998e+01 -3.520000000000000018e+00 6.096820000000000128e+00 1.148704999999999998e+01 3.520000000000000018e+00 0.000000000000000000e+00 1.148704999999999998e+01 1.760000000000000009e+00 3.048410000000000064e+00 1.148704999999999998e+01 0.000000000000000000e+00 6.096820000000000128e+00 1.148704999999999998e+01 7.040000000000000036e+00 0.000000000000000000e+00 1.148704999999999998e+01 5.280000000000000249e+00 3.048410000000000064e+00 1.148704999999999998e+01 3.520000000000000018e+00 6.096820000000000128e+00 1.148704999999999998e+01 1.760000000000000009e+00 9.145199999999999996e-01 1.851137999999999906e+01 0.000000000000000000e+00 3.962930000000000064e+00 1.851137999999999906e+01 -1.760000000000000009e+00 7.011339999999999684e+00 1.851137999999999906e+01 5.280000000000000249e+00 9.145199999999999996e-01 1.851137999999999906e+01 3.520000000000000018e+00 3.962930000000000064e+00 1.851137999999999906e+01 1.760000000000000009e+00 7.011339999999999684e+00 1.851137999999999906e+01 8.800000000000000711e+00 9.145199999999999996e-01 1.851137999999999906e+01 7.040000000000000036e+00 3.962930000000000064e+00 1.851137999999999906e+01 5.280000000000000249e+00 7.011339999999999684e+00 1.851137999999999906e+01
2.400000000000000061e-04 2.032529999999999948e+00 9.674620000000000886e+00 -1.759409999999999918e+00 5.080849999999999866e+00 9.675309999999999633e+00 -3.519309999999999938e+00 8.132319999999999993e+00 9.675129999999999342e+00 3.517999999999999794e+00 2.032659999999999911e+00 9.675929999999999254e+00 1.758939999999999948e+00 5.077950000000000408e+00 9.674860000000000682e+00 -1.469999999999999953e-03 8.129429999999999268e+00 9.674770000000000536e+00 7.040470000000000006e+00 2.029619999999999980e+00 9.677789999999999893e+00 5.279289999999999594e+00 5.078439999999999621e+00 9.675530000000000186e+00 3.519159999999999844e+00 8.126960000000000406e+00 9.676239999999999952e+00 1.760639999999999983e+00 2.948830000000000062e+00 1.670061000000000107e+01 -2.809999999999999998e-03 5.993229999999999613e+00 1.670074999999999932e+01 -1.760709999999999997e+00 9.044760000000000133e+00 1.669986000000000104e+01 5.277849999999999930e+00 2.947950000000000070e+00 1.669718999999999909e+01 3.522069999999999812e+00 5.995750000000000135e+00 1.670227999999999824e+01 1.758240000000000025e+00 9.044249999999999901e+00 1.670427000000000106e+01 8.800470000000000681e+00 2.943309999999999871e+00 1.669988000000000028e+01 7.039159999999999862e+00 5.998160000000000380e+00 1.669822999999999880e+01 5.279329999999999856e+00 9.044760000000000133e+00 1.670053000000000054e+01 -8.499999999999999526e-04 2.030240000000000045e+00 1.329974999999999952e+01 -1.758650000000000047e+00 5.080560000000000187e+00 1.330199999999999960e+01 -3.517780000000000129e+00 8.131019999999999470e+00 1.330189000000000021e+01 3.522240000000000038e+00 2.035149999999999793e+00 1.329979999999999940e+01 1.757290000000000019e+00 5.078520000000000145e+00 1.330109000000000030e+01 2.650000000000000012e-03 8.130359999999999587e+00 1.330198999999999998e+01 7.042489999999999917e+00 2.032820000000000071e+00 1.329779000000000089e+01 5.281859999999999999e+00 5.082300000000000040e+00 1.330242999999999931e+01 3.519680000000000142e+00 8.130480000000000373e+00 1.330075000000000074e+01 1.759900000000000020e+00 2.945679999999999854e+00 2.032563000000000031e+01 -2.490000000000000026e-03 5.993850000000000122e+00 2.032251000000000118e+01 -1.760380000000000056e+00 9.040330000000000865e+00 2.032529999999999859e+01 5.277829999999999799e+00 2.949759999999999938e+00 2.032586999999999833e+01 3.521380000000000177e+00 5.995560000000000223e+00 2.032359999999999900e+01 1.761560000000000015e+00 9.044840000000000657e+00 2.032483999999999824e+01 8.800100000000000477e+00 2.947039999999999882e+00 2.032121000000000066e+01 7.037930000000000241e+00 5.998370000000000424e+00 2.032611999999999952e+01 5.283330000000000304e+00 9.044069999999999609e+00 2.032591999999999999e+01 5.278810000000000002e+00 9.143459999999999255e+00 1.148559999999999981e+01 8.800090000000000856e+00 3.047270000000000145e+00 1.148732000000000042e+01 -3.518159999999999954e+00 6.097480000000000011e+00 1.148704999999999998e+01 -1.762110000000000065e+00 9.142780000000000129e+00 1.148667999999999978e+01 1.760350000000000081e+00 3.049040000000000195e+00 1.148771999999999949e+01 1.949999999999999910e-03 6.095979999999999954e+00 1.148614000000000068e+01 7.039959999999999773e+00 2.969999999999999984e-03 1.148662999999999990e+01 5.280820000000000292e+00 3.048410000000000064e+00 1.148525000000000063e+01 3.522130000000000205e+00 6.096969999999999779e+00 1.148911999999999978e+01 1.760129999999999972e+00 9.148100000000000120e-01 1.851264000000000109e+01 6.400000000000000524e-04 3.963189999999999991e+00 1.851407000000000025e+01 -1.763360000000000039e+00 7.008379999999999832e+00 1.850975999999999999e+01 5.278819999999999624e+00 9.151200000000000445e-01 1.851284000000000063e+01 3.519530000000000047e+00 3.963109999999999911e+00 1.851260999999999868e+01 1.762010000000000076e+00 7.009769999999999612e+00 1.851101999999999848e+01 8.801050000000000040e+00 9.109000000000000430e-01 1.850975999999999999e+01 7.037700000000000067e+00 3.964319999999999844e+00 1.851248000000000005e+01 5.281970000000000276e+00 7.009619999999999962e+00 1.851223999999999847e+01
4.800000000000000122e-04 2.032779999999999809e+00 9.673959999999999226e+00 -1.758820000000000050e+00 5.081019999999999648e+00 9.675330000000000652e+00 -3.518619999999999859e+00 8.135529999999999262e+00 9.674970000000000070e+00 3.516000000000000014e+00 2.033040000000000180e+00 9.676569999999999894e+00 1.757880000000000109e+00 5.075219999999999843e+00 9.674440000000000595e+00 -2.939999999999999905e-03 8.129770000000000607e+00 9.674250000000000682e+00 7.040939999999999976e+00 2.026980000000000004e+00 9.680279999999999774e+00 5.278590000000000337e+00 5.076209999999999667e+00 9.675760000000000360e+00 3.518320000000000114e+00 8.124829999999999330e+00 9.677179999999999893e+00 1.761279999999999957e+00 2.950870000000000104e+00 1.670091999999999999e+01 -5.619999999999999996e-03 5.991259999999999586e+00 1.670120999999999967e+01 -1.761430000000000051e+00 9.045899999999999608e+00 1.669942999999999955e+01 5.275710000000000122e+00 2.949110000000000120e+00 1.669409999999999883e+01 3.524129999999999985e+00 5.996299999999999741e+00 1.670426000000000144e+01 1.756480000000000041e+00 9.044890000000000541e+00 1.670822000000000074e+01 8.800950000000000273e+00 2.939839999999999787e+00 1.669948000000000121e+01 7.038319999999999688e+00 6.001120000000000232e+00 1.669615999999999900e+01 5.278669999999999973e+00 9.045899999999999608e+00 1.670076999999999856e+01 -1.690000000000000096e-03 2.028200000000000003e+00 1.329866999999999955e+01 -1.757300000000000084e+00 5.080420000000000158e+00 1.330316999999999972e+01 -3.515559999999999796e+00 8.132939999999999614e+00 1.330294999999999916e+01 3.524469999999999992e+00 2.038009999999999877e+00 1.329876999999999931e+01 1.754590000000000094e+00 5.076360000000000205e+00 1.330137000000000036e+01 5.290000000000000431e-03 8.131629999999999470e+00 1.330316000000000010e+01 7.044970000000000176e+00 2.033360000000000056e+00 1.329476999999999975e+01 5.283730000000000260e+00 5.083910000000000373e+00 1.330402999999999913e+01 3.519359999999999822e+00 8.131859999999999644e+00 1.330067999999999984e+01 1.759800000000000031e+00 2.944580000000000197e+00 2.032604999999999862e+01 -4.980000000000000052e-03 5.992499999999999716e+00 2.031981000000000037e+01 -1.760760000000000103e+00 9.037050000000000693e+00 2.032537999999999911e+01 5.275660000000000238e+00 2.952729999999999855e+00 2.032653000000000176e+01 3.522759999999999891e+00 5.995910000000000295e+00 2.032199999999999918e+01 1.763120000000000021e+00 9.046070000000000277e+00 2.032444999999999879e+01 8.800190000000000623e+00 2.947270000000000056e+00 2.031720999999999933e+01 7.035870000000000068e+00 6.001509999999999678e+00 2.032702000000000098e+01 5.286649999999999849e+00 9.044520000000000337e+00 2.032663000000000153e+01 5.277639999999999887e+00 9.141690000000000538e+00 1.148417000000000066e+01 8.800190000000000623e+00 3.046139999999999848e+00 1.148760000000000048e+01 -3.516319999999999890e+00 6.098139999999999894e+00 1.148704999999999998e+01 -1.764199999999999990e+00 9.140359999999999374e+00 1.148631999999999920e+01 1.760699999999999932e+00 3.049650000000000194e+00 1.148840000000000039e+01 3.899999999999999821e-03 6.095150000000000290e+00 1.148525000000000063e+01 7.039920000000000400e+00 5.910000000000000323e-03 1.148620999999999981e+01 5.281629999999999825e+00 3.048410000000000064e+00 1.148345999999999911e+01 3.524230000000000196e+00 6.097109999999999808e+00 1.149118999999999957e+01 1.760259999999999936e+00 9.151000000000000245e-01 1.851388999999999996e+01 1.270000000000000078e-03 3.963439999999999852e+00 1.851672999999999902e+01 -1.766699999999999937e+00 7.005440000000000111e+00 1.850814000000000092e+01 5.277639999999999887e+00 9.157300000000000439e-01 1.851429999999999865e+01 3.519070000000000142e+00 3.963280000000000136e+00 1.851383999999999830e+01 1.764010000000000078e+00 7.008219999999999672e+00 1.851067000000000107e+01 8.802099999999999369e+00 9.072999999999999954e-01 1.850816000000000017e+01 7.035389999999999588e+00 3.965720000000000134e+00 1.851354999999999862e+01 5.283940000000000303e+00 7.007909999999999862e+00 1.851308999999999827e+01
7.200000000000000453e-04 2.033020000000000049e+00 9.673289999999999722e+00 -1.758240000000000025e+00 5.081190000000000317e+00 9.675349999999999895e+00 -3.517929999999999779e+00 8.138719999999999288e+00 9.674789999999999779e+00 3.514009999999999856e+00 2.033409999999999940e+00 9.677199999999999136e+00 1.756850000000000023e+00 5.072499999999999787e+00 9.674020000000000508e+00 -4.400000000000000265e-03 8.130110000000000170e+00 9.673740000000000450e+00 7.041409999999999947e+00 2.024360000000000159e+00 9.682740000000000791e+00 5.277899999999999814e+00 5.073990000000000222e+00 9.676000000000000156e+00 3.517479999999999940e+00 8.122709999999999653e+00 9.678110000000000213e+00 1.761919999999999931e+00 2.952900000000000080e+00 1.670123999999999853e+01 -8.410000000000000808e-03 5.989300000000000068e+00 1.670167000000000002e+01 -1.762140000000000040e+00 9.047050000000000480e+00 1.669901000000000124e+01 5.273570000000000313e+00 2.950270000000000170e+00 1.669103000000000137e+01 3.526190000000000158e+00 5.996850000000000236e+00 1.670621999999999829e+01 1.754709999999999992e+00 9.045529999999999404e+00 1.671216000000000079e+01 8.801410000000000622e+00 2.936389999999999834e+00 1.669910000000000139e+01 7.037469999999999892e+00 6.004050000000000331e+00 1.669409999999999883e+01 5.278019999999999712e+00 9.047040000000000859e+00 1.670100000000000051e+01 -2.530000000000000131e-03 2.026149999999999896e+00 1.329759999999999920e+01 -1.755959999999999965e+00 5.080280000000000129e+00 1.330433000000000021e+01 -3.513370000000000104e+00 8.134840000000000515e+00 1.330400999999999989e+01 3.526699999999999946e+00 2.040849999999999831e+00 1.329775000000000063e+01 1.751900000000000013e+00 5.074200000000000266e+00 1.330165000000000042e+01 7.919999999999999957e-03 8.132880000000000109e+00 1.330430999999999919e+01 7.047439999999999927e+00 2.033900000000000041e+00 1.329177999999999926e+01 5.285590000000000011e+00 5.085510000000000197e+00 1.330561999999999934e+01 3.519050000000000011e+00 8.133240000000000691e+00 1.330061000000000071e+01 1.759710000000000107e+00 2.943470000000000031e+00 2.032648999999999972e+01 -7.459999999999999618e-03 5.991159999999999819e+00 2.031712999999999880e+01 -1.761139999999999928e+00 9.033780000000000143e+00 2.032545000000000002e+01 5.273500000000000298e+00 2.955680000000000085e+00 2.032719000000000165e+01 3.524140000000000050e+00 5.996260000000000367e+00 2.032041999999999859e+01 1.764669999999999961e+00 9.047280000000000655e+00 2.032407999999999859e+01 8.800280000000000769e+00 2.947490000000000165e+00 2.031323000000000079e+01 7.033820000000000405e+00 6.004640000000000200e+00 2.032792999999999850e+01 5.289950000000000152e+00 9.044969999999999288e+00 2.032732999999999990e+01 5.276480000000000281e+00 9.139939999999999287e+00 1.148276000000000074e+01 8.800300000000000011e+00 3.045030000000000125e+00 1.148785999999999952e+01 -3.514499999999999957e+00 6.098799999999999777e+00 1.148705999999999960e+01 -1.766250000000000098e+00 9.137969999999999260e+00 1.148598999999999926e+01 1.761030000000000095e+00 3.050250000000000128e+00 1.148906999999999989e+01 5.830000000000000113e-03 6.094330000000000247e+00 1.148437000000000019e+01 7.039880000000000138e+00 8.800000000000000530e-03 1.148579999999999934e+01 5.282449999999999868e+00 3.048420000000000130e+00 1.148170000000000002e+01 3.526299999999999990e+00 6.097220000000000084e+00 1.149324999999999974e+01 1.760399999999999965e+00 9.153900000000000370e-01 1.851511999999999958e+01 1.899999999999999996e-03 3.963670000000000027e+00 1.851933000000000007e+01 -1.770029999999999992e+00 7.002530000000000143e+00 1.850651999999999830e+01 5.276469999999999771e+00 9.163499999999999979e-01 1.851575000000000060e+01 3.518609999999999793e+00 3.963449999999999918e+00 1.851503999999999905e+01 1.765959999999999974e+00 7.006669999999999732e+00 1.851032000000000011e+01 8.803150000000000475e+00 9.037399999999999878e-01 1.850658999999999921e+01 7.033100000000000129e+00 3.967119999999999980e+00 1.851458999999999833e+01 5.285899999999999821e+00 7.006249999999999645e+00 1.851391999999999882e+01
9.499999999999999981e-04 2.033259999999999845e+00 9.672639999999999461e+00 -1.757649999999999935e+00 5.081349999999999589e+00 9.675380000000000535e+00 -3.517269999999999897e+00 8.141880000000000450e+00 9.674609999999999488e+00 3.512030000000000207e+00 2.033780000000000143e+00 9.677830000000000155e+00 1.755840000000000067e+00 5.069810000000000372e+00 9.673600000000000421e+00 -5.850000000000000165e-03 8.130449999999999733e+00 9.673230000000000217e+00 7.041890000000000427e+00 2.021770000000000067e+00 9.685150000000000148e+00 5.277219999999999800e+00 5.071799999999999642e+00 9.676230000000000331e+00 3.516630000000000145e+00 8.120589999999999975e+00 9.679040000000000532e+00 1.762539999999999996e+00 2.954930000000000057e+00 1.670157000000000025e+01 -1.116999999999999937e-02 5.987350000000000172e+00 1.670212000000000074e+01 -1.762850000000000028e+00 9.048189999999999955e+00 1.669859999999999900e+01 5.271449999999999747e+00 2.951439999999999841e+00 1.668799999999999883e+01 3.528239999999999821e+00 5.997399999999999842e+00 1.670815999999999946e+01 1.752950000000000008e+00 9.046160000000000423e+00 1.671605999999999881e+01 8.801869999999999195e+00 2.932970000000000077e+00 1.669874000000000080e+01 7.036620000000000097e+00 6.006960000000000299e+00 1.669202999999999903e+01 5.277400000000000091e+00 9.048159999999999314e+00 1.670122999999999891e+01 -3.360000000000000139e-03 2.024099999999999788e+00 1.329654000000000025e+01 -1.754610000000000003e+00 5.080140000000000100e+00 1.330546999999999969e+01 -3.511190000000000033e+00 8.136720000000000397e+00 1.330507000000000062e+01 3.528919999999999835e+00 2.043660000000000032e+00 1.329672000000000054e+01 1.749249999999999972e+00 5.072059999999999569e+00 1.330194000000000010e+01 1.052999999999999943e-02 8.134109999999999729e+00 1.330544000000000082e+01 7.049879999999999924e+00 2.034450000000000092e+00 1.328881999999999941e+01 5.287460000000000271e+00 5.087080000000000268e+00 1.330719999999999992e+01 3.518720000000000070e+00 8.134589999999999321e+00 1.330054999999999943e+01 1.759619999999999962e+00 2.942379999999999995e+00 2.032694000000000045e+01 -9.919999999999999998e-03 5.989840000000000053e+00 2.031447999999999965e+01 -1.761509999999999909e+00 9.030509999999999593e+00 2.032553000000000054e+01 5.271349999999999980e+00 2.958610000000000184e+00 2.032786000000000115e+01 3.525510000000000144e+00 5.996610000000000440e+00 2.031886000000000081e+01 1.766210000000000058e+00 9.048479999999999634e+00 2.032369999999999877e+01 8.800349999999999895e+00 2.947700000000000209e+00 2.030928000000000111e+01 7.031780000000000364e+00 6.007740000000000080e+00 2.032885999999999882e+01 5.293239999999999945e+00 9.045410000000000394e+00 2.032804000000000144e+01 5.275369999999999671e+00 9.138199999999999434e+00 1.148136000000000045e+01 8.800430000000000419e+00 3.043950000000000156e+00 1.148808999999999969e+01 -3.512690000000000090e+00 6.099470000000000169e+00 1.148705999999999960e+01 -1.768250000000000099e+00 9.135659999999999670e+00 1.148568999999999996e+01 1.761330000000000062e+00 3.050819999999999865e+00 1.148972999999999978e+01 7.729999999999999892e-03 6.093530000000000335e+00 1.148351000000000077e+01 7.039839999999999876e+00 1.159999999999999920e-02 1.148539000000000065e+01 5.283269999999999911e+00 3.048430000000000195e+00 1.147999000000000080e+01 3.528300000000000214e+00 6.097299999999999720e+00 1.149527999999999928e+01 1.760539999999999994e+00 9.156900000000000039e-01 1.851631000000000071e+01 2.530000000000000131e-03 3.963859999999999939e+00 1.852184000000000097e+01 -1.773330000000000073e+00 6.999679999999999680e+00 1.850491999999999848e+01 5.275290000000000035e+00 9.170000000000000373e-01 1.851718999999999937e+01 3.518149999999999888e+00 3.963610000000000078e+00 1.851621000000000095e+01 1.767849999999999921e+00 7.005160000000000053e+00 1.850998999999999839e+01 8.804209999999999425e+00 9.002200000000000202e-01 1.850507999999999953e+01 7.030809999999999782e+00 3.968519999999999825e+00 1.851555000000000106e+01 5.287840000000000096e+00 7.004660000000000331e+00 1.851473000000000013e+01
1.180000000000000059e-03 2.033500000000000085e+00 9.671989999999999199e+00 -1.757060000000000066e+00 5.081500000000000128e+00 9.675399999999999778e+00 -3.516620000000000079e+00 8.144999999999999574e+00 9.674400000000000333e+00 3.510069999999999801e+00 2.034130000000000216e+00 9.678459999999999397e+00 1.754860000000000086e+00 5.067149999999999821e+00 9.673199999999999577e+00 -7.289999999999999605e-03 8.130779999999999674e+00 9.672729999999999606e+00 7.042360000000000397e+00 2.019200000000000106e+00 9.687509999999999621e+00 5.276570000000000427e+00 5.069639999999999702e+00 9.676470000000000127e+00 3.515779999999999905e+00 8.118470000000000297e+00 9.679949999999999832e+00 1.763160000000000061e+00 2.956949999999999967e+00 1.670189999999999841e+01 -1.391000000000000049e-02 5.985409999999999897e+00 1.670258000000000109e+01 -1.763560000000000016e+00 9.049329999999999430e+00 1.669820999999999955e+01 5.269339999999999691e+00 2.952599999999999891e+00 1.668502000000000152e+01 3.530279999999999863e+00 5.997939999999999827e+00 1.671007000000000176e+01 1.751179999999999959e+00 9.046780000000000044e+00 1.671991999999999834e+01 8.802310000000000301e+00 2.929600000000000204e+00 1.669840999999999909e+01 7.035759999999999792e+00 6.009820000000000384e+00 1.668996999999999886e+01 5.276790000000000092e+00 9.049260000000000304e+00 1.670145000000000124e+01 -4.170000000000000095e-03 2.022040000000000060e+00 1.329547999999999952e+01 -1.753260000000000041e+00 5.079989999999999561e+00 1.330658999999999992e+01 -3.509049999999999780e+00 8.138569999999999638e+00 1.330611000000000033e+01 3.531130000000000102e+00 2.046429999999999971e+00 1.329569000000000045e+01 1.746629999999999905e+00 5.069930000000000270e+00 1.330222999999999978e+01 1.312999999999999931e-02 8.135329999999999728e+00 1.330654000000000003e+01 7.052299999999999791e+00 2.034990000000000077e+00 1.328590999999999944e+01 5.289340000000000153e+00 5.088639999999999830e+00 1.330875999999999948e+01 3.518400000000000194e+00 8.135939999999999728e+00 1.330049999999999955e+01 1.759530000000000038e+00 2.941300000000000026e+00 2.032741000000000042e+01 -1.235999999999999946e-02 5.988550000000000040e+00 2.031184999999999974e+01 -1.761879999999999891e+00 9.027250000000000441e+00 2.032558999999999827e+01 5.269210000000000171e+00 2.961520000000000152e+00 2.032853000000000065e+01 3.526860000000000106e+00 5.996959999999999624e+00 2.031734000000000151e+01 1.767749999999999932e+00 9.049649999999999750e+00 2.032332999999999856e+01 8.800409999999999400e+00 2.947890000000000121e+00 2.030535000000000068e+01 7.029749999999999943e+00 6.010799999999999699e+00 2.032980999999999838e+01 5.296490000000000364e+00 9.045830000000000481e+00 2.032873999999999981e+01 5.274289999999999701e+00 9.136499999999999844e+00 1.148000000000000043e+01 8.800589999999999691e+00 3.042920000000000069e+00 1.148831000000000024e+01 -3.510920000000000041e+00 6.100150000000000183e+00 1.148706999999999923e+01 -1.770180000000000087e+00 9.133419999999999206e+00 1.148541999999999952e+01 1.761609999999999898e+00 3.051349999999999785e+00 1.149038999999999966e+01 9.599999999999999159e-03 6.092760000000000176e+00 1.148268000000000022e+01 7.039789999999999992e+00 1.429000000000000062e-02 1.148499999999999943e+01 5.284099999999999575e+00 3.048459999999999948e+00 1.147832000000000008e+01 3.530229999999999979e+00 6.097339999999999982e+00 1.149728999999999957e+01 1.760690000000000088e+00 9.159899999999999709e-01 1.851745000000000019e+01 3.150000000000000022e-03 3.964010000000000034e+00 1.852424999999999855e+01 -1.776589999999999892e+00 6.996900000000000119e+00 1.850331999999999866e+01 5.274110000000000298e+00 9.176699999999999857e-01 1.851861999999999853e+01 3.517700000000000049e+00 3.963760000000000172e+00 1.851733000000000118e+01 1.769660000000000011e+00 7.003669999999999618e+00 1.850966999999999985e+01 8.805260000000000531e+00 8.967600000000000016e-01 1.850362000000000151e+01 7.028539999999999566e+00 3.969930000000000181e+00 1.851643999999999934e+01 5.289769999999999861e+00 7.003149999999999764e+00 1.851551999999999865e+01
1.420000000000000038e-03 2.033729999999999816e+00 9.671350000000000335e+00 -1.756480000000000041e+00 5.081649999999999778e+00 9.675420000000000798e+00 -3.515989999999999949e+00 8.148070000000000590e+00 9.674179999999999779e+00 3.508119999999999905e+00 2.034460000000000157e+00 9.679090000000000416e+00 1.753919999999999924e+00 5.064530000000000420e+00 9.672810000000000130e+00 -8.710000000000000728e-03 8.131109999999999616e+00 9.672240000000000393e+00 7.042839999999999989e+00 2.016680000000000028e+00 9.689790000000000347e+00 5.275929999999999787e+00 5.067520000000000024e+00 9.676700000000000301e+00 3.514920000000000044e+00 8.116350000000000620e+00 9.680849999999999511e+00 1.763759999999999994e+00 2.958969999999999878e+00 1.670224999999999937e+01 -1.660999999999999976e-02 5.983489999999999753e+00 1.670304000000000144e+01 -1.764270000000000005e+00 9.050470000000000681e+00 1.669783999999999935e+01 5.267249999999999766e+00 2.953749999999999876e+00 1.668209999999999837e+01 3.532309999999999839e+00 5.998479999999999812e+00 1.671195000000000164e+01 1.749409999999999910e+00 9.047380000000000422e+00 1.672372999999999976e+01 8.802740000000000009e+00 2.926260000000000083e+00 1.669810999999999979e+01 7.034889999999999866e+00 6.012640000000000207e+00 1.668789999999999907e+01 5.276220000000000354e+00 9.050340000000000273e+00 1.670167000000000002e+01 -4.969999999999999592e-03 2.019979999999999887e+00 1.329442000000000057e+01 -1.751910000000000078e+00 5.079830000000000290e+00 1.330768999999999913e+01 -3.506940000000000168e+00 8.140399999999999636e+00 1.330714000000000041e+01 3.533329999999999860e+00 2.049150000000000027e+00 1.329465000000000074e+01 1.744059999999999944e+00 5.067829999999999835e+00 1.330254000000000048e+01 1.569999999999999868e-02 8.136530000000000484e+00 1.330761000000000038e+01 7.054689999999999905e+00 2.035550000000000193e+00 1.328306000000000076e+01 5.291229999999999656e+00 5.090169999999999639e+00 1.331029000000000018e+01 3.518069999999999808e+00 8.137269999999999115e+00 1.330045999999999928e+01 1.759449999999999958e+00 2.940220000000000056e+00 2.032789999999999964e+01 -1.477999999999999974e-02 5.987280000000000157e+00 2.030925999999999831e+01 -1.762240000000000029e+00 9.023999999999999133e+00 2.032564999999999955e+01 5.267089999999999606e+00 2.964399999999999924e+00 2.032921999999999940e+01 3.528210000000000068e+00 5.997309999999999697e+00 2.031586000000000070e+01 1.769269999999999898e+00 9.050800000000000622e+00 2.032295999999999836e+01 8.800440000000000040e+00 2.948059999999999903e+00 2.030146999999999835e+01 7.027750000000000163e+00 6.013799999999999812e+00 2.033078000000000074e+01 5.299719999999999764e+00 9.046239999999999171e+00 2.032945000000000135e+01 5.273279999999999745e+00 9.134829999999999117e+00 1.147868000000000066e+01 8.800779999999999603e+00 3.041949999999999932e+00 1.148847999999999914e+01 -3.509170000000000122e+00 6.100830000000000197e+00 1.148708000000000062e+01 -1.772029999999999994e+00 9.131299999999999528e+00 1.148521000000000036e+01 1.761840000000000073e+00 3.051829999999999821e+00 1.149103999999999992e+01 1.142999999999999919e-02 6.092010000000000147e+00 1.148188999999999993e+01 7.039740000000000109e+00 1.684000000000000080e-02 1.148461999999999961e+01 5.284930000000000128e+00 3.048509999999999831e+00 1.147672999999999988e+01 3.532059999999999977e+00 6.097330000000000361e+00 1.149926999999999921e+01 1.760850000000000026e+00 9.163099999999999579e-01 1.851852999999999838e+01 3.759999999999999887e-03 3.964100000000000179e+00 1.852652000000000143e+01 -1.779809999999999892e+00 6.994200000000000195e+00 1.850174000000000163e+01 5.272929999999999673e+00 9.183700000000000196e-01 1.852004000000000161e+01 3.517259999999999831e+00 3.963909999999999823e+00 1.851840999999999937e+01 1.771379999999999955e+00 7.002220000000000333e+00 1.850937000000000054e+01 8.806319999999999482e+00 8.933699999999999974e-01 1.850224000000000046e+01 7.026279999999999859e+00 3.971350000000000158e+00 1.851721999999999824e+01 5.291680000000000383e+00 7.001739999999999853e+00 1.851625999999999905e+01