-9.999999999999999547e-07 1.095999999999999969e-03 -6.570000000000000319e-04 -9.999999999999999547e-07 1.093999999999999920e-03 -6.560000000000000076e-04 9.999999999999999547e-07 1.095999999999999969e-03 -6.610000000000000207e-04 0.000000000000000000e+00 1.095999999999999969e-03 -6.549999999999999833e-04 9.999999999999999547e-07 1.093000000000000005e-03 -6.560000000000000076e-04 0.000000000000000000e+00 1.098000000000000018e-03 -6.589999999999999721e-04 1.999999999999999909e-06 1.095000000000000053e-03 -6.570000000000000319e-04 0.000000000000000000e+00 1.095000000000000053e-03 -6.579999999999999478e-04 0.000000000000000000e+00 1.097000000000000102e-03 -6.579999999999999478e-04 9.999999999999999547e-07 1.981199999999999975e-02 -5.959999999999999586e-04 0.000000000000000000e+00 1.980900000000000022e-02 -5.990000000000000316e-04 9.999999999999999547e-07 1.981300000000000075e-02 -5.969999999999999829e-04 -9.999999999999999547e-07 1.981199999999999975e-02 -5.959999999999999586e-04 9.999999999999999547e-07 1.981000000000000122e-02 -5.969999999999999829e-04 -9.999999999999999547e-07 1.981199999999999975e-02 -5.990000000000000316e-04 -9.999999999999999547e-07 1.981300000000000075e-02 -5.959999999999999586e-04 -1.999999999999999909e-06 1.981000000000000122e-02 -5.959999999999999586e-04 9.999999999999999547e-07 1.981000000000000122e-02 -5.980000000000000072e-04 -9.999999999999999547e-07 -2.028900000000000148e-02 1.099999999999999971e-05 0.000000000000000000e+00 -2.029500000000000054e-02 1.200000000000000030e-05 0.000000000000000000e+00 -2.029100000000000001e-02 1.399999999999999979e-05 0.000000000000000000e+00 -2.028900000000000148e-02 1.000000000000000082e-05 1.999999999999999909e-06 -2.029299999999999854e-02 1.099999999999999971e-05 9.999999999999999547e-07 -2.029100000000000001e-02 1.200000000000000030e-05 9.999999999999999547e-07 -2.028999999999999901e-02 1.000000000000000082e-05 -1.999999999999999909e-06 -2.029399999999999954e-02 1.200000000000000030e-05 -9.999999999999999547e-07 -2.029299999999999854e-02 1.200000000000000030e-05 9.999999999999999547e-07 3.460000000000000076e-04 1.110000000000000011e-04 0.000000000000000000e+00 3.429999999999999889e-04 1.140000000000000063e-04 9.999999999999999547e-07 3.460000000000000076e-04 1.129999999999999955e-04 0.000000000000000000e+00 3.449999999999999833e-04 1.110000000000000011e-04 9.999999999999999547e-07 3.429999999999999889e-04 1.129999999999999955e-04 -9.999999999999999547e-07 3.460000000000000076e-04 1.150000000000000035e-04 9.999999999999999547e-07 3.449999999999999833e-04 1.140000000000000063e-04 -9.999999999999999547e-07 3.440000000000000132e-04 1.110000000000000011e-04 9.999999999999999547e-07 3.440000000000000132e-04 1.140000000000000063e-04 -3.000000000000000076e-06 -4.422999999999999848e-03 4.600000000000000004e-05 -9.999999999999999547e-07 -4.426000000000000247e-03 4.800000000000000122e-05 -3.000000000000000076e-06 -4.431000000000000043e-03 4.800000000000000122e-05 0.000000000000000000e+00 -4.420999999999999583e-03 4.699999999999999724e-05 9.999999999999999547e-07 -4.422999999999999848e-03 4.800000000000000122e-05 3.000000000000000076e-06 -4.429999999999999910e-03 4.899999999999999842e-05 1.999999999999999909e-06 -4.422999999999999848e-03 4.800000000000000122e-05 -3.000000000000000076e-06 -4.423999999999999981e-03 4.899999999999999842e-05 -1.999999999999999909e-06 -4.429999999999999910e-03 5.000000000000000240e-05 0.000000000000000000e+00 3.448000000000000110e-03 7.119999999999999593e-04 9.999999999999999547e-07 3.442999999999999880e-03 7.119999999999999593e-04 -3.000000000000000076e-06 3.441000000000000048e-03 7.100000000000000191e-04 -1.999999999999999909e-06 3.445999999999999844e-03 7.119999999999999593e-04 -1.999999999999999909e-06 3.442999999999999880e-03 7.110000000000000434e-04 0.000000000000000000e+00 3.439000000000000216e-03 7.110000000000000434e-04 9.999999999999999547e-07 3.445999999999999844e-03 7.100000000000000191e-04 -9.999999999999999547e-07 3.445000000000000145e-03 7.110000000000000434e-04 9.999999999999999547e-07 3.439999999999999915e-03 7.079999999999999705e-04
-2.217999999999999920e-03 -5.309000000000000351e-03 7.321000000000000250e-03 -1.698999999999999989e-03 -5.526999999999999795e-03 5.410000000000000312e-04 -1.582799999999999832e-02 -3.688999999999999918e-02 -1.477299999999999967e-02 1.221500000000000016e-02 -1.126399999999999971e-02 -3.654999999999999829e-03 2.886199999999999877e-02 2.733800000000000119e-02 8.373000000000000234e-03 1.257600000000000037e-02 -2.301999999999999793e-03 7.793999999999999713e-03 1.075000000000000001e-03 3.037099999999999869e-02 -5.091299999999999992e-02 1.729100000000000081e-02 2.912500000000000158e-02 -6.509999999999999945e-04 -3.250999999999999984e-03 5.053000000000000200e-03 -1.184200000000000010e-02 -9.941000000000000184e-03 6.501999999999999967e-03 7.618999999999999904e-03 2.683699999999999974e-02 2.771200000000000052e-02 -6.700000000000000226e-05 2.089000000000000145e-03 1.127599999999999957e-02 1.540500000000000029e-02 1.421900000000000074e-02 1.233099999999999995e-02 4.281599999999999989e-02 -9.036000000000000629e-03 1.162499999999999992e-02 -2.553499999999999867e-02 -4.730000000000000046e-04 4.864000000000000268e-03 -3.944899999999999796e-02 -1.017200000000000049e-02 5.026800000000000018e-02 2.712499999999999981e-02 -5.074000000000000385e-03 -2.072200000000000084e-02 7.709999999999999840e-04 2.205599999999999922e-02 -1.515000000000000071e-03 -3.752999999999999826e-03 1.229799999999999990e-02 -1.807100000000000026e-02 4.819999999999999632e-03 -4.350000000000000026e-04 -1.950800000000000103e-02 -1.985699999999999965e-02 -2.671300000000000063e-02 -3.746499999999999830e-02 -9.178999999999999659e-03 -1.074100000000000055e-02 -4.961200000000000332e-02 -2.778000000000000087e-03 3.237400000000000000e-02 2.060000000000000199e-03 6.407999999999999634e-03 -1.842600000000000141e-02 -3.100899999999999837e-02 -2.417599999999999957e-02 -2.373300000000000062e-02 -1.140700000000000047e-02 4.182099999999999707e-02 4.276000000000000287e-03 -3.415599999999999886e-02 -1.907299999999999968e-02 -2.030000000000000120e-03 -2.744500000000000065e-02 6.655000000000000325e-03 3.785000000000000170e-03 9.830000000000000196e-03 1.820400000000000143e-02 1.858299999999999882e-02 2.076300000000000021e-02 2.717200000000000171e-02 3.961000000000000111e-03 8.696000000000000604e-03 -4.355999999999999629e-03 1.254599999999999986e-02 -2.113900000000000154e-02 7.785000000000000253e-03 -8.640000000000000110e-03 -1.750000000000000036e-03 3.123499999999999888e-02 -9.589999999999999566e-03 -1.850600000000000162e-02 3.697999999999999898e-03 -1.364100000000000035e-02 -1.648300000000000112e-02 2.896699999999999969e-02 1.541099999999999935e-02 -3.577500000000000124e-02 1.534699999999999953e-02 -2.499399999999999886e-02 -9.771999999999999437e-03 -7.739999999999999485e-04 2.996899999999999911e-02 1.549400000000000083e-02 2.092499999999999916e-02 1.587500000000000022e-02 2.578300000000000036e-02 -1.676000000000000059e-02 -1.792600000000000096e-02 1.941000000000000017e-03 4.389999999999999914e-04 4.568200000000000038e-02 5.246499999999999775e-02 2.608600000000000155e-02 -2.017000000000000043e-02 -2.655000000000000068e-02 -5.199999999999999761e-03 -2.149900000000000075e-02 1.337799999999999927e-02 1.907999999999999974e-02 -2.422000000000000108e-03 -7.313000000000000056e-02 6.236000000000000223e-03 1.864999999999999904e-03 4.998999999999999971e-03 3.550799999999999790e-02 -5.143799999999999761e-02 -3.118900000000000144e-02 -1.779999999999999985e-02 4.707000000000000246e-03 7.140999999999999778e-03 -3.096499999999999947e-02 -4.688000000000000327e-03 -2.607399999999999995e-02 -7.123000000000000165e-02 2.472500000000000045e-02 4.862199999999999855e-02 8.073999999999999580e-03 6.629999999999999609e-04 1.957499999999999865e-02 -7.803000000000000040e-03 4.227999999999999987e-03 -2.736999999999999850e-03 -2.741599999999999940e-02 -5.142200000000000243e-02 2.265599999999999906e-02 1.102700000000000034e-02 5.850000000000000165e-04 4.349900000000000294e-02 4.150100000000000317e-02 8.751999999999999363e-03 6.105000000000000183e-03 -5.497200000000000003e-02 -1.133900000000000012e-02 5.595599999999999880e-02 -1.913300000000000070e-02
-4.420999999999999583e-03 -1.170900000000000066e-02 1.509500000000000078e-02 -3.393999999999999882e-03 -1.197299999999999927e-02 1.729000000000000068e-03 -3.170300000000000201e-02 -7.472499999999999976e-02 -2.920800000000000132e-02 2.450000000000000094e-02 -2.347600000000000034e-02 -6.715999999999999748e-03 5.708300000000000179e-02 5.322899999999999854e-02 1.684899999999999939e-02 2.503999999999999976e-02 -5.777000000000000017e-03 1.604799999999999977e-02 2.197000000000000168e-03 6.012699999999999989e-02 -1.017139999999999989e-01 3.435300000000000159e-02 5.716299999999999853e-02 -9.470000000000000336e-04 -6.462999999999999995e-03 8.932000000000000703e-03 -2.300400000000000014e-02 -1.978299999999999850e-02 -6.692000000000000032e-03 1.543100000000000027e-02 5.337299999999999683e-02 3.540900000000000297e-02 8.700000000000000051e-05 4.238999999999999713e-03 2.814000000000000095e-03 3.105000000000000121e-02 2.826100000000000140e-02 4.938999999999999814e-03 8.552099999999999980e-02 -1.802300000000000083e-02 3.359000000000000007e-03 -5.046799999999999897e-02 -1.126999999999999964e-03 -1.007599999999999989e-02 -7.841700000000000059e-02 -2.012200000000000100e-02 8.023500000000000076e-02 5.381400000000000072e-02 -1.026999999999999962e-02 -6.074100000000000332e-02 1.582999999999999989e-03 4.424999999999999767e-02 -2.277099999999999957e-02 -7.551999999999999685e-03 2.454999999999999891e-02 -1.580600000000000060e-02 9.747000000000000455e-03 -9.779999999999999197e-04 -1.862400000000000166e-02 -3.954699999999999882e-02 -5.329400000000000109e-02 -5.465899999999999925e-02 -1.788999999999999965e-02 -2.149099999999999969e-02 -7.851600000000000246e-02 -5.148999999999999931e-03 6.437700000000000367e-02 2.430300000000000168e-02 1.307600000000000082e-02 -3.666400000000000214e-02 -4.164999999999999952e-02 -4.771800000000000347e-02 -4.763099999999999973e-02 -2.520000000000000104e-03 8.401599999999999346e-02 8.489999999999999283e-03 -4.765799999999999897e-02 -3.786799999999999888e-02 -3.994000000000000154e-03 -3.462099999999999900e-02 1.333200000000000010e-02 7.590999999999999658e-03 1.937300000000000133e-02 3.625599999999999656e-02 3.693400000000000155e-02 4.140800000000000036e-02 5.457599999999999951e-02 7.955999999999999531e-03 1.713200000000000139e-02 -8.753000000000000363e-03 2.520700000000000024e-02 -4.248999999999999999e-02 1.555699999999999965e-02 -1.727100000000000163e-02 -3.824999999999999841e-03 6.225699999999999984e-02 -1.924299999999999969e-02 -3.711400000000000116e-02 7.548000000000000022e-03 -2.756000000000000116e-02 -3.332999999999999852e-02 5.798299999999999982e-02 3.110500000000000070e-02 -7.183000000000000496e-02 3.089700000000000085e-02 -4.992800000000000016e-02 -1.983199999999999893e-02 -1.332999999999999984e-03 5.952099999999999752e-02 3.524999999999999661e-02 4.152499999999999941e-02 3.196000000000000230e-02 5.594999999999999973e-02 -3.379000000000000059e-02 -3.559400000000000064e-02 8.063999999999999987e-03 9.579999999999999757e-04 9.126299999999999690e-02 1.088829999999999937e-01 5.159600000000000297e-02 -4.011699999999999988e-02 -4.852299999999999669e-02 -1.037199999999999928e-02 -4.287300000000000139e-02 3.091899999999999857e-02 3.764200000000000185e-02 -4.810000000000000039e-03 -1.422160000000000091e-01 1.293900000000000085e-02 3.686000000000000040e-03 1.409499999999999989e-02 7.054000000000000548e-02 -1.018440000000000040e-01 -5.756399999999999711e-02 -3.523799999999999849e-02 9.504000000000000295e-03 1.079600000000000004e-02 -6.226999999999999896e-02 -8.824999999999999512e-03 -5.532399999999999818e-02 -1.427700000000000080e-01 4.930500000000000160e-02 9.327399999999999580e-02 1.564899999999999972e-02 1.229999999999999974e-03 3.547299999999999759e-02 -1.583199999999999885e-02 8.347999999999999518e-03 -8.819000000000000450e-03 -5.532499999999999918e-02 -1.022229999999999944e-01 4.170200000000000295e-02 2.137100000000000111e-02 1.095999999999999969e-03 8.325299999999999367e-02 8.222500000000000642e-02 1.704200000000000159e-02 8.798999999999999530e-03 -1.093640000000000029e-01 -2.284200000000000119e-02 1.081469999999999931e-01 -3.900700000000000001e-02
-6.629999999999999609e-03 -1.810499999999999957e-02 2.265199999999999853e-02 -5.073000000000000252e-03 -1.818200000000000024e-02 2.854999999999999899e-03 -4.746700000000000225e-02 -1.122100000000000042e-01 -4.376700000000000035e-02 3.691300000000000137e-02 -3.544100000000000028e-02 -9.768000000000000640e-03 8.447499999999999454e-02 7.867300000000000681e-02 2.475899999999999976e-02 3.735299999999999732e-02 -9.301999999999999505e-03 2.412699999999999914e-02 3.341999999999999919e-03 9.022499999999999964e-02 -1.527110000000000134e-01 5.108399999999999747e-02 8.509300000000000197e-02 -1.515999999999999986e-03 -9.553999999999999992e-03 1.275199999999999945e-02 -3.400399999999999950e-02 -2.947699999999999973e-02 -1.985299999999999912e-02 2.273700000000000027e-02 7.955800000000000372e-02 4.296699999999999825e-02 -1.299999999999999886e-04 6.450000000000000004e-03 -5.517000000000000202e-03 4.630599999999999994e-02 4.211700000000000166e-02 -2.383999999999999835e-03 1.273350000000000037e-01 -2.707199999999999884e-02 -4.862000000000000002e-03 -7.523399999999999532e-02 -1.861000000000000024e-03 -2.494299999999999989e-02 -1.172799999999999954e-01 -2.985700000000000159e-02 1.096260000000000012e-01 7.930900000000000449e-02 -1.552000000000000081e-02 -1.000370000000000009e-01 1.946000000000000030e-03 6.647400000000000531e-02 -4.378699999999999953e-02 -1.186100000000000002e-02 3.670099999999999751e-02 -1.341400000000000058e-02 1.476599999999999961e-02 -1.662999999999999982e-03 -1.766200000000000062e-02 -5.895299999999999846e-02 -7.958800000000000596e-02 -7.174800000000000622e-02 -2.614999999999999963e-02 -3.227300000000000307e-02 -1.068790000000000018e-01 -7.041999999999999649e-03 9.591199999999999726e-02 4.631300000000000000e-02 1.999499999999999889e-02 -5.471700000000000175e-02 -5.215600000000000097e-02 -7.049099999999999810e-02 -7.157199999999999673e-02 6.257000000000000409e-03 1.263360000000000039e-01 1.249399999999999990e-02 -6.077099999999999863e-02 -5.630899999999999794e-02 -5.841999999999999971e-03 -4.188700000000000062e-02 1.993400000000000033e-02 1.136700000000000037e-02 2.892000000000000126e-02 5.400200000000000139e-02 5.501000000000000334e-02 6.210600000000000148e-02 8.212200000000000055e-02 1.193699999999999969e-02 2.580199999999999855e-02 -1.315700000000000029e-02 3.802099999999999924e-02 -6.367100000000000537e-02 2.328500000000000014e-02 -2.592799999999999966e-02 -5.802999999999999999e-03 9.292000000000000259e-02 -2.900099999999999900e-02 -5.542300000000000004e-02 1.162099999999999939e-02 -4.168000000000000177e-02 -5.003400000000000208e-02 8.705000000000000238e-02 4.702800000000000036e-02 -1.077140000000000042e-01 4.642999999999999905e-02 -7.470699999999999563e-02 -2.973299999999999901e-02 -1.690000000000000096e-03 8.840599999999999847e-02 5.476999999999999924e-02 6.172500000000000209e-02 4.811900000000000205e-02 8.578099999999999614e-02 -5.090399999999999786e-02 -5.295199999999999907e-02 1.391200000000000075e-02 1.575999999999999927e-03 1.364740000000000120e-01 1.644889999999999963e-01 7.632899999999999407e-02 -5.968699999999999700e-02 -7.021499999999999964e-02 -1.542199999999999994e-02 -6.405700000000000283e-02 4.810799999999999799e-02 5.563200000000000089e-02 -7.095999999999999877e-03 -2.111470000000000014e-01 2.007400000000000156e-02 5.419000000000000206e-03 2.276999999999999857e-02 1.048790000000000000e-01 -1.508780000000000121e-01 -8.335599999999999954e-02 -5.220299999999999940e-02 1.432399999999999993e-02 1.435499999999999970e-02 -9.296400000000000496e-02 -1.244299999999999920e-02 -8.406299999999999883e-02 -2.132850000000000024e-01 7.369699999999999862e-02 1.371739999999999904e-01 2.347600000000000034e-02 1.786000000000000044e-03 5.097999999999999754e-02 -2.338300000000000101e-02 1.232100000000000035e-02 -1.472399999999999924e-02 -8.274299999999999711e-02 -1.520829999999999960e-01 6.053999999999999659e-02 3.165199999999999958e-02 1.461000000000000059e-03 1.224999999999999978e-01 1.225640000000000063e-01 2.496200000000000155e-02 1.141900000000000033e-02 -1.619929999999999981e-01 -3.454900000000000332e-02 1.597389999999999921e-01 -5.877099999999999685e-02
-8.850999999999999493e-03 -2.450000000000000094e-02 2.993799999999999933e-02 -6.722999999999999809e-03 -2.406900000000000012e-02 3.887999999999999963e-03 -6.294199999999999795e-02 -1.491399999999999948e-01 -5.826100000000000029e-02 4.948099999999999721e-02 -4.705199999999999660e-02 -1.276500000000000030e-02 1.108699999999999963e-01 1.035660000000000053e-01 3.211399999999999672e-02 4.944799999999999890e-02 -1.285999999999999990e-02 3.200599999999999973e-02 4.492999999999999598e-03 1.205070000000000030e-01 -2.035339999999999927e-01 6.737500000000000433e-02 1.127950000000000064e-01 -2.312999999999999952e-03 -1.244400000000000020e-02 1.650000000000000078e-02 -4.474600000000000105e-02 -3.895200000000000051e-02 -3.299699999999999855e-02 2.936700000000000074e-02 1.052789999999999976e-01 5.042599999999999860e-02 -7.579999999999999932e-04 8.762000000000000691e-03 -1.367499999999999966e-02 6.105200000000000210e-02 5.574400000000000188e-02 -9.638999999999999999e-03 1.680339999999999889e-01 -3.624499999999999944e-02 -1.293099999999999979e-02 -9.968100000000000571e-02 -2.603999999999999978e-03 -3.961900000000000144e-02 -1.558150000000000091e-01 -3.937800000000000328e-02 1.383060000000000123e-01 1.034209999999999990e-01 -2.075300000000000061e-02 -1.383979999999999932e-01 1.891000000000000103e-03 8.856999999999999595e-02 -6.438599999999999879e-02 -1.668800000000000144e-02 4.866299999999999792e-02 -1.083699999999999941e-02 1.991400000000000114e-02 -2.513000000000000043e-03 -1.660800000000000123e-02 -7.798399999999999777e-02 -1.054299999999999959e-01 -8.863600000000000645e-02 -3.393999999999999795e-02 -4.306800000000000211e-02 -1.345540000000000069e-01 -8.361000000000000376e-03 1.268279999999999963e-01 6.797400000000000664e-02 2.714199999999999946e-02 -7.255999999999999950e-02 -6.250400000000000400e-02 -9.231399999999999328e-02 -9.539699999999999569e-02 1.481700000000000031e-02 1.685029999999999861e-01 1.617800000000000141e-02 -7.344499999999999640e-02 -7.433299999999999630e-02 -7.524000000000000306e-03 -4.930299999999999960e-02 2.639899999999999886e-02 1.507099999999999933e-02 3.844999999999999807e-02 7.122499999999999665e-02 7.272000000000000686e-02 8.265599999999999337e-02 1.096010000000000040e-01 1.587600000000000122e-02 3.478599999999999748e-02 -1.755900000000000169e-02 5.099200000000000260e-02 -8.458599999999999453e-02 3.084399999999999989e-02 -3.461999999999999800e-02 -7.649000000000000417e-03 1.229589999999999989e-01 -3.888699999999999796e-02 -7.334999999999999853e-02 1.589399999999999841e-02 -5.594400000000000067e-02 -6.641900000000000581e-02 1.160059999999999980e-01 6.312800000000000356e-02 -1.432930000000000037e-01 6.170199999999999990e-02 -9.921900000000000164e-02 -3.937700000000000228e-02 -1.860000000000000108e-03 1.163560000000000011e-01 7.390399999999999747e-02 8.135599999999999776e-02 6.420199999999999518e-02 1.149880000000000069e-01 -6.794400000000000439e-02 -6.988700000000000467e-02 1.944999999999999854e-02 2.262999999999999821e-03 1.809739999999999960e-01 2.188400000000000067e-01 1.000260000000000038e-01 -7.871799999999999631e-02 -9.145799999999999763e-02 -2.033899999999999944e-02 -8.494500000000000661e-02 6.483500000000000374e-02 7.291499999999999371e-02 -9.235999999999999419e-03 -2.793180000000000107e-01 2.754200000000000051e-02 7.037999999999999985e-03 3.096099999999999894e-02 1.382299999999999918e-01 -1.981479999999999908e-01 -1.083760000000000001e-01 -6.861899999999999944e-02 1.911500000000000005e-02 1.779299999999999979e-02 -1.227469999999999950e-01 -1.557099999999999977e-02 -1.120160000000000045e-01 -2.820860000000000034e-01 9.778900000000000092e-02 1.799739999999999951e-01 3.154200000000000059e-02 2.369000000000000012e-03 6.596499999999999586e-02 -3.042399999999999965e-02 1.611299999999999885e-02 -2.037299999999999875e-02 -1.093640000000000029e-01 -2.006209999999999938e-01 7.902900000000000202e-02 4.177999999999999770e-02 1.621000000000000045e-03 1.609599999999999920e-01 1.621690000000000076e-01 3.251099999999999823e-02 1.391000000000000049e-02 -2.123619999999999952e-01 -4.641499999999999793e-02 2.103250000000000119e-01 -7.822999999999999399e-02
-1.107900000000000031e-02 -3.089099999999999832e-02 3.689499999999999724e-02 -8.344000000000000722e-03 -2.953499999999999875e-02 4.810000000000000039e-03 -7.795100000000000640e-02 -1.853440000000000087e-01 -7.250299999999999800e-02 6.222699999999999759e-02 -5.820800000000000279e-02 -1.568200000000000149e-02 1.361080000000000068e-01 1.278169999999999862e-01 3.892999999999999933e-02 6.127599999999999714e-02 -1.644100000000000075e-02 3.965599999999999681e-02 5.627000000000000057e-03 1.507910000000000084e-01 -2.538159999999999861e-01 8.314000000000000556e-02 1.401810000000000000e-01 -3.282000000000000195e-03 -1.506000000000000047e-02 2.016700000000000090e-02 -5.514499999999999957e-02 -4.812700000000000311e-02 -4.614499999999999852e-02 3.512599999999999750e-02 1.304410000000000014e-01 5.782000000000000334e-02 -1.855000000000000095e-03 1.121199999999999974e-02 -2.161899999999999933e-02 7.514700000000000546e-02 6.909899999999999376e-02 -1.683899999999999980e-02 2.074060000000000070e-01 -4.560899999999999677e-02 -2.074700000000000155e-02 -1.236870000000000053e-01 -3.281000000000000062e-03 -5.399199999999999833e-02 -1.938509999999999955e-01 -4.868499999999999911e-02 1.661680000000000101e-01 1.259699999999999986e-01 -2.590500000000000094e-02 -1.756310000000000093e-01 1.464999999999999939e-03 1.103890000000000010e-01 -8.440499999999999392e-02 -2.203199999999999950e-02 6.036600000000000299e-02 -8.009999999999999759e-03 2.523699999999999902e-02 -3.562000000000000062e-03 -1.544700000000000066e-02 -9.656399999999999706e-02 -1.306690000000000074e-01 -1.052529999999999993e-01 -4.126699999999999813e-02 -5.388899999999999940e-02 -1.614150000000000029e-01 -8.994000000000000258e-03 1.569979999999999987e-01 8.916799999999999726e-02 3.447399999999999770e-02 -9.017699999999999327e-02 -7.268800000000000261e-02 -1.130229999999999985e-01 -1.189530000000000032e-01 2.304000000000000145e-02 2.102610000000000035e-01 1.944299999999999848e-02 -8.562999999999999778e-02 -9.190800000000000358e-02 -8.999999999999999320e-03 -5.693399999999999850e-02 3.267899999999999971e-02 1.866699999999999957e-02 4.794199999999999851e-02 8.771299999999999930e-02 8.998100000000000542e-02 1.028379999999999989e-01 1.368310000000000082e-01 1.974899999999999919e-02 4.416899999999999993e-02 -2.193000000000000158e-02 6.411600000000000632e-02 -1.051389999999999963e-01 3.811200000000000004e-02 -4.334199999999999858e-02 -9.332000000000000017e-03 1.521200000000000052e-01 -4.893299999999999733e-02 -9.081599999999999395e-02 2.037200000000000122e-02 -7.028500000000000025e-02 -8.229699999999999516e-02 1.447229999999999905e-01 7.934299999999999686e-02 -1.784310000000000063e-01 7.645599999999999619e-02 -1.233569999999999944e-01 -4.867699999999999805e-02 -1.856999999999999927e-03 1.431109999999999882e-01 9.250899999999999401e-02 1.002610000000000029e-01 8.005700000000000316e-02 1.432960000000000067e-01 -8.474700000000000288e-02 -8.629900000000000071e-02 2.463600000000000165e-02 2.985999999999999939e-03 2.244359999999999966e-01 2.715080000000000271e-01 1.224380000000000052e-01 -9.705300000000000038e-02 -1.120749999999999941e-01 -2.510700000000000084e-02 -1.054279999999999939e-01 8.099900000000000155e-02 8.935800000000000687e-02 -1.117399999999999990e-02 -3.461080000000000267e-01 3.523600000000000343e-02 8.534999999999999185e-03 3.862700000000000161e-02 1.702960000000000029e-01 -2.433019999999999905e-01 -1.324410000000000032e-01 -8.440699999999999592e-02 2.382499999999999896e-02 2.108300000000000105e-02 -1.513059999999999961e-01 -1.824299999999999880e-02 -1.389140000000000097e-01 -3.484999999999999765e-01 1.214459999999999984e-01 2.213479999999999892e-01 3.984999999999999654e-02 3.023000000000000079e-03 8.031399999999999650e-02 -3.691400000000000237e-02 1.970399999999999929e-02 -2.568099999999999897e-02 -1.348959999999999881e-01 -2.474709999999999965e-01 9.702700000000000213e-02 5.168699999999999684e-02 1.529999999999999893e-03 1.983449999999999935e-01 2.006999999999999895e-01 3.968200000000000199e-02 1.622300000000000131e-02 -2.600190000000000001e-01 -5.839400000000000146e-02 2.595089999999999897e-01 -9.717499999999999749e-02
-1.330699999999999938e-02 -3.727799999999999864e-02 4.346599999999999769e-02 -9.929999999999999591e-03 -3.449499999999999789e-02 5.597999999999999678e-03 -9.232400000000000329e-02 -2.206460000000000088e-01 -8.628900000000000459e-02 7.517100000000000171e-02 -6.881500000000000117e-02 -1.848400000000000043e-02 1.600590000000000068e-01 1.513440000000000063e-01 4.523900000000000143e-02 7.278500000000000247e-02 -2.003699999999999926e-02 4.706400000000000167e-02 6.720000000000000279e-03 1.808819999999999872e-01 -3.031780000000000030e-01 9.829799999999999649e-02 1.671469999999999900e-01 -4.362999999999999691e-03 -1.732799999999999965e-02 2.374799999999999828e-02 -6.510900000000000021e-02 -5.693800000000000250e-02 -5.931800000000000267e-02 3.985699999999999660e-02 1.549619999999999886e-01 6.519500000000000295e-02 -3.454000000000000039e-03 1.383700000000000034e-02 -2.930999999999999925e-02 8.849400000000000321e-02 8.215600000000000680e-02 -2.399300000000000044e-02 2.452600000000000058e-01 -5.523000000000000131e-02 -2.820800000000000043e-02 -1.471159999999999968e-01 -3.815999999999999948e-03 -6.795299999999999951e-02 -2.311719999999999886e-01 -5.778799999999999909e-02 1.931100000000000039e-01 1.468230000000000091e-01 -3.089499999999999885e-02 -2.115450000000000108e-01 7.150000000000000322e-04 1.317750000000000032e-01 -1.036839999999999984e-01 -2.786800000000000041e-02 7.174099999999999921e-02 -4.883000000000000188e-03 3.075900000000000162e-02 -4.837000000000000154e-03 -1.415899999999999971e-02 -1.146139999999999937e-01 -1.551659999999999984e-01 -1.215139999999999970e-01 -4.813699999999999923e-02 -6.473299999999999887e-02 -1.873470000000000135e-01 -8.866000000000000617e-03 1.862989999999999924e-01 1.097810000000000036e-01 4.194300000000000112e-02 -1.075580000000000008e-01 -8.269300000000000261e-02 -1.324740000000000084e-01 -1.420980000000000021e-01 3.081499999999999864e-02 2.513400000000000079e-01 2.219899999999999998e-02 -9.728599999999999748e-02 -1.089859999999999995e-01 -1.022900000000000025e-02 -6.482899999999999774e-02 3.871999999999999748e-02 2.211700000000000124e-02 5.736900000000000333e-02 1.032649999999999957e-01 1.067179999999999934e-01 1.224480000000000013e-01 1.635979999999999934e-01 2.353799999999999989e-02 5.402099999999999957e-02 -2.626799999999999968e-02 7.739100000000000146e-02 -1.252459999999999962e-01 4.496399999999999703e-02 -5.210000000000000048e-02 -1.081799999999999949e-02 1.801619999999999888e-01 -5.916300000000000031e-02 -1.077520000000000006e-01 2.504800000000000082e-02 -8.463400000000000090e-02 -9.749700000000000033e-02 1.730399999999999994e-01 9.560699999999999754e-02 -2.129989999999999939e-01 9.044800000000000062e-02 -1.470140000000000058e-01 -5.753699999999999787e-02 -1.699999999999999905e-03 1.684370000000000034e-01 1.104480000000000045e-01 1.182789999999999953e-01 9.552900000000000280e-02 1.704320000000000002e-01 -1.011530000000000068e-01 -1.020969999999999933e-01 2.944300000000000042e-02 3.704999999999999960e-03 2.665390000000000259e-01 3.220890000000000142e-01 1.433379999999999932e-01 -1.145469999999999960e-01 -1.319099999999999995e-01 -2.970400000000000124e-02 -1.254059999999999897e-01 9.650799999999999657e-02 1.048469999999999958e-01 -1.286499999999999970e-02 -4.108970000000000122e-01 4.302700000000000274e-02 9.898000000000000548e-03 4.572600000000000275e-02 2.007919999999999983e-01 -2.860240000000000005e-01 -1.553910000000000013e-01 -9.949500000000000011e-02 2.839300000000000157e-02 2.420299999999999882e-02 -1.783569999999999878e-01 -2.052299999999999958e-02 -1.645030000000000103e-01 -4.118609999999999771e-01 1.445569999999999911e-01 2.609879999999999978e-01 4.836900000000000227e-02 3.797000000000000028e-03 9.391900000000000248e-02 -4.283100000000000102e-02 2.307100000000000123e-02 -3.057999999999999954e-02 -1.590519999999999989e-01 -2.923080000000000123e-01 1.144109999999999988e-01 6.128800000000000220e-02 1.131999999999999977e-03 2.343949999999999922e-01 2.378139999999999976e-01 4.649899999999999867e-02 1.829700000000000076e-02 -3.045539999999999914e-01 -7.043299999999999561e-02 3.069250000000000034e-01 -1.154079999999999967e-01