0.000000000000000000e+00 2.032270000000000021e+00 9.386620000000000630e+00 -1.760000000000000009e+00 5.080680000000000085e+00 9.386620000000000630e+00 -3.520000000000000018e+00 8.129089999999999705e+00 9.386620000000000630e+00 3.520000000000000018e+00 2.032270000000000021e+00 9.386620000000000630e+00 1.760000000000000009e+00 5.080680000000000085e+00 9.386620000000000630e+00 0.000000000000000000e+00 8.129089999999999705e+00 9.386620000000000630e+00 7.040000000000000036e+00 2.032270000000000021e+00 9.386620000000000630e+00 5.280000000000000249e+00 5.080680000000000085e+00 9.386620000000000630e+00 3.520000000000000018e+00 8.129089999999999705e+00 9.386620000000000630e+00 7.039999999999999591e-01 2.032270000000000021e+00 1.699221999999999966e+01 -1.056000000000000050e+00 5.080680000000000085e+00 1.699221999999999966e+01 -2.815999999999999837e+00 8.129089999999999705e+00 1.699221999999999966e+01 4.224000000000000199e+00 2.032270000000000021e+00 1.699221999999999966e+01 2.463999999999999968e+00 5.080680000000000085e+00 1.699221999999999966e+01 7.039999999999999591e-01 8.129089999999999705e+00 1.699221999999999966e+01 7.743999999999999773e+00 2.032270000000000021e+00 1.699221999999999966e+01 5.983999999999999986e+00 5.080680000000000085e+00 1.699221999999999966e+01 4.224000000000000199e+00 8.129089999999999705e+00 1.699221999999999966e+01 0.000000000000000000e+00 2.032270000000000021e+00 1.300780999999999921e+01 -1.760000000000000009e+00 5.080680000000000085e+00 1.300780999999999921e+01 -3.520000000000000018e+00 8.129089999999999705e+00 1.300780999999999921e+01 3.520000000000000018e+00 2.032270000000000021e+00 1.300780999999999921e+01 1.760000000000000009e+00 5.080680000000000085e+00 1.300780999999999921e+01 0.000000000000000000e+00 8.129089999999999705e+00 1.300780999999999921e+01 7.040000000000000036e+00 2.032270000000000021e+00 1.300780999999999921e+01 5.280000000000000249e+00 5.080680000000000085e+00 1.300780999999999921e+01 3.520000000000000018e+00 8.129089999999999705e+00 1.300780999999999921e+01 7.039999999999999591e-01 2.032270000000000021e+00 2.061338999999999899e+01 -1.056000000000000050e+00 5.080680000000000085e+00 2.061338999999999899e+01 -2.815999999999999837e+00 8.129089999999999705e+00 2.061338999999999899e+01 4.224000000000000199e+00 2.032270000000000021e+00 2.061338999999999899e+01 2.463999999999999968e+00 5.080680000000000085e+00 2.061338999999999899e+01 7.039999999999999591e-01 8.129089999999999705e+00 2.061338999999999899e+01 7.743999999999999773e+00 2.032270000000000021e+00 2.061338999999999899e+01 5.983999999999999986e+00 5.080680000000000085e+00 2.061338999999999899e+01 4.224000000000000199e+00 8.129089999999999705e+00 2.061338999999999899e+01 0.000000000000000000e+00 0.000000000000000000e+00 1.119768999999999970e+01 -1.760000000000000009e+00 3.048410000000000064e+00 1.119768999999999970e+01 -3.520000000000000018e+00 6.096820000000000128e+00 1.119768999999999970e+01 3.520000000000000018e+00 0.000000000000000000e+00 1.119768999999999970e+01 1.760000000000000009e+00 3.048410000000000064e+00 1.119768999999999970e+01 0.000000000000000000e+00 6.096820000000000128e+00 1.119768999999999970e+01 7.040000000000000036e+00 0.000000000000000000e+00 1.119768999999999970e+01 5.280000000000000249e+00 3.048410000000000064e+00 1.119768999999999970e+01 3.520000000000000018e+00 6.096820000000000128e+00 1.119768999999999970e+01 7.039999999999999591e-01 0.000000000000000000e+00 1.880230999999999852e+01 -1.056000000000000050e+00 3.048410000000000064e+00 1.880230999999999852e+01 -2.815999999999999837e+00 6.096820000000000128e+00 1.880230999999999852e+01 4.224000000000000199e+00 0.000000000000000000e+00 1.880230999999999852e+01 2.463999999999999968e+00 3.048410000000000064e+00 1.880230999999999852e+01 7.039999999999999591e-01 6.096820000000000128e+00 1.880230999999999852e+01 7.743999999999999773e+00 0.000000000000000000e+00 1.880230999999999852e+01 5.983999999999999986e+00 3.048410000000000064e+00 1.880230999999999852e+01 4.224000000000000199e+00 6.096820000000000128e+00 1.880230999999999852e+01
3.200000000000000262e-04 2.031509999999999927e+00 9.387719999999999843e+00 -1.759239999999999915e+00 5.081599999999999895e+00 9.385680000000000689e+00 -3.519649999999999945e+00 8.127010000000000289e+00 9.388769999999999172e+00 3.521710000000000118e+00 2.029609999999999914e+00 9.387660000000000338e+00 1.759130000000000082e+00 5.083400000000000141e+00 9.384359999999999147e+00 -1.529999999999999893e-03 8.129640000000000200e+00 9.385630000000000805e+00 7.040070000000000050e+00 2.032820000000000071e+00 9.390370000000000772e+00 5.280240000000000045e+00 5.077189999999999870e+00 9.386670000000000513e+00 3.521469999999999878e+00 8.127789999999999182e+00 9.385989999999999611e+00 7.088799999999999546e-01 2.031120000000000037e+00 1.699320000000000164e+01 -1.056200000000000028e+00 5.080059999999999576e+00 1.699243999999999843e+01 -2.816409999999999858e+00 8.129170000000000229e+00 1.699211999999999989e+01 4.224269999999999747e+00 2.033630000000000049e+00 1.699146999999999963e+01 2.466419999999999835e+00 5.077420000000000044e+00 1.699118999999999957e+01 6.992399999999999727e-01 8.129200000000000870e+00 1.699136999999999986e+01 7.742860000000000298e+00 2.031400000000000095e+00 1.699525999999999826e+01 5.985249999999999737e+00 5.081179999999999808e+00 1.699255000000000138e+01 4.225780000000000314e+00 8.132559999999999789e+00 1.699323000000000050e+01 1.800000000000000113e-04 2.031639999999999890e+00 1.300805000000000078e+01 -1.759819999999999940e+00 5.079699999999999882e+00 1.300799999999999912e+01 -3.521430000000000060e+00 8.130050000000000665e+00 1.300965000000000060e+01 3.518619999999999859e+00 2.035099999999999909e+00 1.300591000000000008e+01 1.758960000000000079e+00 5.079500000000000348e+00 1.300863000000000014e+01 -1.610000000000000103e-03 8.128059999999999619e+00 1.300891000000000020e+01 7.037550000000000416e+00 2.032189999999999941e+00 1.300839999999999996e+01 5.279849999999999710e+00 5.078159999999999563e+00 1.300470999999999933e+01 3.518889999999999851e+00 8.128439999999999444e+00 1.300766999999999918e+01 7.039699999999999847e-01 2.032810000000000006e+00 2.061352000000000118e+01 -1.056170000000000053e+00 5.084069999999999645e+00 2.061317000000000021e+01 -2.815999999999999837e+00 8.127259999999999707e+00 2.061280000000000001e+01 4.224440000000000417e+00 2.035369999999999902e+00 2.061471999999999838e+01 2.464970000000000105e+00 5.081920000000000215e+00 2.061201000000000150e+01 7.053800000000000070e-01 8.128320000000000434e+00 2.061400000000000077e+01 7.743739999999999846e+00 2.031019999999999825e+00 2.061158000000000001e+01 5.982549999999999812e+00 5.080980000000000274e+00 2.061420000000000030e+01 4.222590000000000288e+00 8.126810000000000755e+00 2.061205999999999960e+01 5.277910000000000323e+00 9.144809999999999661e+00 1.119655999999999985e+01 8.800720000000000098e+00 3.043789999999999996e+00 1.119505000000000017e+01 -3.516770000000000174e+00 6.096260000000000012e+00 1.120125999999999955e+01 3.518920000000000048e+00 4.200000000000000174e-04 1.119649000000000072e+01 1.758369999999999989e+00 3.052059999999999995e+00 1.119885999999999981e+01 1.949999999999999910e-03 6.098849999999999660e+00 1.119533000000000023e+01 7.041789999999999772e+00 2.599999999999999772e-04 1.119655000000000022e+01 5.280350000000000321e+00 3.048690000000000122e+00 1.119669000000000025e+01 3.522060000000000191e+00 6.097760000000000069e+00 1.119800000000000040e+01 -4.573710000000000164e+00 9.144489999999999341e+00 1.880258999999999858e+01 -1.056610000000000049e+00 3.048939999999999984e+00 1.880296999999999841e+01 -2.815240000000000187e+00 6.097470000000000390e+00 1.880097999999999914e+01 -1.051309999999999967e+00 9.145060000000000855e+00 1.880261000000000138e+01 2.461990000000000123e+00 3.050609999999999822e+00 1.880451000000000050e+01 7.006400000000000405e-01 6.100509999999999877e+00 1.880183999999999855e+01 7.743929999999999758e+00 1.789999999999999925e-03 1.880202999999999847e+01 5.982610000000000205e+00 3.048509999999999831e+00 1.880169000000000068e+01 4.222050000000000303e+00 6.095900000000000318e+00 1.880163999999999902e+01
6.400000000000000524e-04 2.030740000000000212e+00 9.388799999999999812e+00 -1.758480000000000043e+00 5.082510000000000083e+00 9.384750000000000369e+00 -3.519299999999999873e+00 8.124930000000000874e+00 9.390909999999999869e+00 3.523410000000000153e+00 2.026959999999999873e+00 9.388690000000000424e+00 1.758270000000000000e+00 5.086109999999999687e+00 9.382099999999999440e+00 -3.059999999999999786e-03 8.130200000000000315e+00 9.384639999999999205e+00 7.040140000000000065e+00 2.033360000000000056e+00 9.394090000000000273e+00 5.280490000000000350e+00 5.073699999999999655e+00 9.386720000000000397e+00 3.522940000000000182e+00 8.126500000000000057e+00 9.385360000000000369e+00 7.137599999999999500e-01 2.029970000000000052e+00 1.699418000000000006e+01 -1.056380000000000097e+00 5.079439999999999955e+00 1.699266000000000076e+01 -2.816809999999999814e+00 8.129239999999999355e+00 1.699202000000000012e+01 4.224560000000000315e+00 2.034969999999999946e+00 1.699071999999999960e+01 2.468830000000000080e+00 5.074160000000000004e+00 1.699014999999999986e+01 6.945200000000000262e-01 8.129310000000000258e+00 1.699052000000000007e+01 7.741740000000000066e+00 2.030520000000000103e+00 1.699829000000000079e+01 5.986509999999999998e+00 5.081680000000000419e+00 1.699287999999999954e+01 4.227579999999999671e+00 8.136010000000000630e+00 1.699424000000000134e+01 3.400000000000000244e-04 2.031010000000000204e+00 1.300829000000000057e+01 -1.759630000000000027e+00 5.078719999999999679e+00 1.300817999999999941e+01 -3.522879999999999789e+00 8.131009999999999849e+00 1.301149000000000022e+01 3.517230000000000079e+00 2.037929999999999797e+00 1.300402000000000058e+01 1.757910000000000084e+00 5.078330000000000233e+00 1.300944999999999929e+01 -3.239999999999999825e-03 8.127029999999999532e+00 1.301000999999999941e+01 7.035090000000000288e+00 2.032099999999999795e+00 1.300897999999999932e+01 5.279690000000000438e+00 5.075650000000000439e+00 1.300163000000000046e+01 3.517780000000000129e+00 8.127789999999999182e+00 1.300754000000000055e+01 7.039499999999999647e-01 2.033339999999999925e+00 2.061365999999999943e+01 -1.056349999999999900e+00 5.087439999999999962e+00 2.061296000000000106e+01 -2.815999999999999837e+00 8.125429999999999708e+00 2.061221000000000103e+01 4.224870000000000125e+00 2.038460000000000161e+00 2.061605000000000132e+01 2.465920000000000112e+00 5.083160000000000345e+00 2.061063000000000045e+01 7.067600000000000549e-01 8.127549999999999386e+00 2.061460999999999899e+01 7.743479999999999919e+00 2.029780000000000140e+00 2.060978000000000065e+01 5.981099999999999639e+00 5.081279999999999575e+00 2.061498999999999882e+01 4.221189999999999998e+00 8.124539999999999651e+00 2.061073000000000022e+01 5.275830000000000020e+00 9.144399999999999196e+00 1.119542999999999999e+01 8.801429999999999865e+00 3.039210000000000189e+00 1.119243999999999950e+01 -3.513549999999999951e+00 6.095699999999999896e+00 1.120480000000000054e+01 3.517850000000000144e+00 8.400000000000000348e-04 1.119529999999999959e+01 1.756739999999999968e+00 3.055689999999999795e+00 1.120001000000000069e+01 3.889999999999999795e-03 6.100869999999999571e+00 1.119297000000000075e+01 7.043560000000000265e+00 5.000000000000000104e-04 1.119542000000000037e+01 5.280700000000000394e+00 3.048960000000000115e+00 1.119569000000000081e+01 3.524090000000000167e+00 6.098690000000000389e+00 1.119830999999999932e+01 -4.571430000000000327e+00 9.143760000000000332e+00 1.880287999999999826e+01 -1.057209999999999983e+00 3.049459999999999837e+00 1.880364000000000146e+01 -2.814490000000000158e+00 6.098119999999999763e+00 1.879965999999999937e+01 -1.046640000000000015e+00 9.144909999999999428e+00 1.880292000000000030e+01 2.459999999999999964e+00 3.052789999999999893e+00 1.880670999999999893e+01 6.973000000000000309e-01 6.104180000000000383e+00 1.880136999999999858e+01 7.743850000000000122e+00 3.559999999999999797e-03 1.880174999999999841e+01 5.981230000000000047e+00 3.048620000000000108e+00 1.880106999999999928e+01 4.220110000000000028e+00 6.094990000000000130e+00 1.880096999999999952e+01
9.700000000000000505e-04 2.029980000000000118e+00 9.389870000000000161e+00 -1.757719999999999949e+00 5.083409999999999762e+00 9.383829999999999671e+00 -3.518969999999999931e+00 8.122849999999999682e+00 9.393039999999999168e+00 3.525090000000000057e+00 2.024329999999999963e+00 9.389709999999999113e+00 1.757419999999999982e+00 5.088809999999999611e+00 9.379839999999999733e+00 -4.570000000000000277e-03 8.130760000000000431e+00 9.383639999999999759e+00 7.040210000000000079e+00 2.033889999999999976e+00 9.397779999999999134e+00 5.280759999999999899e+00 5.070240000000000080e+00 9.386770000000000280e+00 3.524399999999999977e+00 8.125199999999999534e+00 9.384719999999999729e+00 7.186200000000000365e-01 2.028840000000000199e+00 1.699517000000000166e+01 -1.056559999999999944e+00 5.078809999999999825e+00 1.699286999999999992e+01 -2.817169999999999952e+00 8.129319999999999879e+00 1.699192000000000036e+01 4.224840000000000373e+00 2.036319999999999908e+00 1.698997999999999919e+01 2.471229999999999816e+00 5.070929999999999715e+00 1.698912999999999940e+01 6.898300000000000542e-01 8.129429999999999268e+00 1.698966000000000065e+01 7.740630000000000344e+00 2.029659999999999798e+00 1.700130000000000052e+01 5.987770000000000259e+00 5.082180000000000142e+00 1.699320000000000164e+01 4.229370000000000296e+00 8.139450000000000074e+00 1.699523999999999901e+01 4.899999999999999842e-04 2.030380000000000074e+00 1.300853000000000037e+01 -1.759449999999999958e+00 5.077720000000000233e+00 1.300835000000000008e+01 -3.524329999999999963e+00 8.131970000000000809e+00 1.301332000000000022e+01 3.515829999999999789e+00 2.040739999999999998e+00 1.300211999999999968e+01 1.756860000000000088e+00 5.077180000000000248e+00 1.301026000000000060e+01 -4.859999999999999737e-03 8.126010000000000844e+00 1.301108999999999938e+01 7.032639999999999780e+00 2.032020000000000159e+00 1.300956000000000046e+01 5.279530000000000278e+00 5.073150000000000048e+00 1.299857000000000085e+01 3.516659999999999897e+00 8.127150000000000318e+00 1.300741000000000014e+01 7.039100000000000357e-01 2.033869999999999845e+00 2.061380000000000123e+01 -1.056529999999999969e+00 5.090799999999999770e+00 2.061273999999999873e+01 -2.815980000000000150e+00 8.123609999999999332e+00 2.061161999999999850e+01 4.225299999999999834e+00 2.041539999999999910e+00 2.061737000000000108e+01 2.466860000000000053e+00 5.084410000000000096e+00 2.060925999999999902e+01 7.081300000000000372e-01 8.126789999999999736e+00 2.061523000000000039e+01 7.743210000000000370e+00 2.028550000000000075e+00 2.060799000000000092e+01 5.979650000000000354e+00 5.081590000000000273e+00 2.061578000000000088e+01 4.219789999999999708e+00 8.122270000000000323e+00 2.060940000000000083e+01 5.273769999999999847e+00 9.143969999999999487e+00 1.119434000000000040e+01 8.802130000000000010e+00 3.034689999999999888e+00 1.118988000000000049e+01 -3.510380000000000056e+00 6.095139999999999780e+00 1.120828999999999986e+01 3.516770000000000174e+00 1.250000000000000026e-03 1.119415000000000049e+01 1.755109999999999948e+00 3.059289999999999843e+00 1.120110999999999990e+01 5.799999999999999600e-03 6.102870000000000239e+00 1.119065999999999939e+01 7.045289999999999608e+00 7.299999999999999632e-04 1.119430999999999976e+01 5.281039999999999957e+00 3.049209999999999976e+00 1.119469999999999921e+01 3.526079999999999881e+00 6.099599999999999689e+00 1.119858999999999938e+01 -4.569149999999999601e+00 9.143050000000000566e+00 1.880318000000000112e+01 -1.057790000000000008e+00 3.049990000000000201e+00 1.880430000000000135e+01 -2.813750000000000195e+00 6.098749999999999893e+00 1.879835999999999885e+01 -1.042040000000000077e+00 9.144780000000000797e+00 1.880324999999999847e+01 2.458050000000000068e+00 3.054940000000000211e+00 1.880889000000000166e+01 6.940300000000000358e-01 6.107820000000000249e+00 1.880088999999999899e+01 7.743750000000000355e+00 5.290000000000000431e-03 1.880146999999999835e+01 5.979860000000000397e+00 3.048740000000000006e+00 1.880048000000000030e+01 4.218210000000000015e+00 6.094089999999999563e+00 1.880028000000000077e+01
1.319999999999999993e-03 2.029209999999999958e+00 9.390919999999999490e+00 -1.756960000000000077e+00 5.084290000000000198e+00 9.382920000000000371e+00 -3.518639999999999990e+00 8.120770000000000266e+00 9.395170000000000243e+00 3.526740000000000208e+00 2.021720000000000184e+00 9.390729999999999578e+00 1.756590000000000096e+00 5.091499999999999915e+00 9.377610000000000667e+00 -6.060000000000000282e-03 8.131339999999999790e+00 9.382649999999999935e+00 7.040280000000000094e+00 2.034400000000000208e+00 9.401410000000000267e+00 5.281039999999999957e+00 5.066810000000000258e+00 9.386829999999999785e+00 3.525860000000000216e+00 8.123910000000000409e+00 9.384059999999999846e+00 7.234599999999999920e-01 2.027709999999999901e+00 1.699615000000000009e+01 -1.056720000000000104e+00 5.078179999999999694e+00 1.699305999999999983e+01 -2.817499999999999893e+00 8.129410000000000025e+00 1.699182000000000059e+01 4.225130000000000052e+00 2.037659999999999805e+00 1.698926000000000158e+01 2.473609999999999864e+00 5.067730000000000068e+00 1.698810999999999893e+01 6.852099999999999858e-01 8.129559999999999675e+00 1.698879000000000161e+01 7.739539999999999864e+00 2.028820000000000068e+00 1.700427000000000177e+01 5.989029999999999632e+00 5.082679999999999865e+00 1.699352000000000018e+01 4.231160000000000032e+00 8.142870000000000275e+00 1.699624000000000024e+01 6.199999999999999999e-04 2.029739999999999878e+00 1.300877000000000017e+01 -1.759239999999999915e+00 5.076710000000000278e+00 1.300850999999999935e+01 -3.525790000000000202e+00 8.132939999999999614e+00 1.301514000000000060e+01 3.514419999999999877e+00 2.043540000000000134e+00 1.300023999999999980e+01 1.755800000000000027e+00 5.076069999999999638e+00 1.301107000000000014e+01 -6.479999999999999649e-03 8.125009999999999621e+00 1.301213000000000086e+01 7.030190000000000161e+00 2.031919999999999948e+00 1.301013000000000019e+01 5.279359999999999609e+00 5.070660000000000167e+00 1.299554000000000009e+01 3.515530000000000044e+00 8.126509999999999678e+00 1.300728999999999935e+01 7.038699999999999957e-01 2.034400000000000208e+00 2.061394999999999911e+01 -1.056720000000000104e+00 5.094149999999999956e+00 2.061252999999999957e+01 -2.815949999999999953e+00 8.121809999999999974e+00 2.061102999999999952e+01 4.225730000000000430e+00 2.044589999999999907e+00 2.061869000000000085e+01 2.467760000000000176e+00 5.085670000000000357e+00 2.060791000000000039e+01 7.095200000000000395e-01 8.126049999999999329e+00 2.061586000000000141e+01 7.742939999999999934e+00 2.027330000000000076e+00 2.060623000000000005e+01 5.978220000000000312e+00 5.081889999999999574e+00 2.061654000000000053e+01 4.218399999999999928e+00 8.120029999999999859e+00 2.060807000000000144e+01 5.271749999999999936e+00 9.143539999999999779e+00 1.119327999999999967e+01 8.802820000000000533e+00 3.030260000000000176e+00 1.118740000000000023e+01 -3.507270000000000110e+00 6.094570000000000043e+00 1.121171000000000006e+01 3.515699999999999825e+00 1.639999999999999965e-03 1.119307000000000052e+01 1.753500000000000059e+00 3.062850000000000072e+00 1.120214999999999961e+01 7.680000000000000195e-03 6.104829999999999757e+00 1.118839000000000006e+01 7.046960000000000335e+00 9.300000000000000541e-04 1.119322999999999979e+01 5.281360000000000277e+00 3.049430000000000085e+00 1.119374000000000002e+01 3.528020000000000156e+00 6.100480000000000125e+00 1.119885000000000019e+01 -4.566880000000000273e+00 9.142350000000000421e+00 1.880350999999999928e+01 -1.058329999999999993e+00 3.050520000000000120e+00 1.880495000000000161e+01 -2.813029999999999919e+00 6.099359999999999893e+00 1.879710000000000036e+01 -1.037530000000000063e+00 9.144679999999999254e+00 1.880359999999999943e+01 2.456170000000000186e+00 3.057049999999999823e+00 1.881103999999999843e+01 6.908400000000000096e-01 6.111390000000000100e+00 1.880038000000000054e+01 7.743629999999999569e+00 6.949999999999999581e-03 1.880118999999999829e+01 5.978519999999999612e+00 3.048880000000000035e+00 1.879992000000000019e+01 4.216359999999999886e+00 6.093210000000000015e+00 1.879957999999999885e+01
1.680000000000000070e-03 2.028449999999999864e+00 9.391930000000000334e+00 -1.756199999999999983e+00 5.085149999999999615e+00 9.382039999999999935e+00 -3.518320000000000114e+00 8.118690000000000850e+00 9.397280000000000300e+00 3.528360000000000163e+00 2.019159999999999844e+00 9.391740000000000421e+00 1.755789999999999962e+00 5.094190000000000218e+00 9.375379999999999825e+00 -7.539999999999999827e-03 8.131930000000000547e+00 9.381650000000000489e+00 7.040339999999999598e+00 2.034899999999999931e+00 9.404970000000000496e+00 5.281349999999999767e+00 5.063430000000000319e+00 9.386900000000000688e+00 3.527299999999999880e+00 8.122629999999999129e+00 9.383390000000000342e+00 7.282699999999999729e-01 2.026590000000000114e+00 1.699714000000000169e+01 -1.056869999999999976e+00 5.077549999999999564e+00 1.699324000000000012e+01 -2.817790000000000017e+00 8.129509999999999792e+00 1.699173000000000044e+01 4.225410000000000110e+00 2.038980000000000015e+00 1.698856999999999928e+01 2.475940000000000030e+00 5.064580000000000304e+00 1.698711000000000126e+01 6.806600000000000428e-01 8.129690000000000083e+00 1.698789999999999978e+01 7.738480000000000025e+00 2.027989999999999959e+00 1.700720000000000098e+01 5.990289999999999893e+00 5.083179999999999588e+00 1.699381999999999948e+01 4.232949999999999768e+00 8.146250000000000213e+00 1.699722999999999828e+01 7.299999999999999632e-04 2.029100000000000126e+00 1.300900000000000034e+01 -1.759009999999999962e+00 5.075669999999999682e+00 1.300863999999999976e+01 -3.527260000000000062e+00 8.133910000000000196e+00 1.301693999999999996e+01 3.512999999999999901e+00 2.046310000000000073e+00 1.299835999999999991e+01 1.754739999999999966e+00 5.075000000000000178e+00 1.301186000000000043e+01 -8.099999999999999561e-03 8.124029999999999418e+00 1.301314999999999955e+01 7.027759999999999785e+00 2.031810000000000116e+00 1.301069000000000031e+01 5.279200000000000337e+00 5.068200000000000038e+00 1.299255999999999922e+01 3.514390000000000125e+00 8.125870000000000815e+00 1.300717000000000034e+01 7.038200000000000012e-01 2.034909999999999997e+00 2.061411000000000016e+01 -1.056910000000000016e+00 5.097470000000000390e+00 2.061232000000000042e+01 -2.815879999999999939e+00 8.120029999999999859e+00 2.061045000000000016e+01 4.226140000000000008e+00 2.047620000000000218e+00 2.061998000000000175e+01 2.468620000000000037e+00 5.086949999999999861e+00 2.060657000000000139e+01 7.108999999999999764e-01 8.125329999999999941e+00 2.061649999999999849e+01 7.742659999999999876e+00 2.026149999999999896e+00 2.060447999999999880e+01 5.976799999999999891e+00 5.082189999999999763e+00 2.061728000000000094e+01 4.217030000000000278e+00 8.117800000000000793e+00 2.060673999999999850e+01 5.269779999999999909e+00 9.143100000000000449e+00 1.119227000000000061e+01 8.803499999999999659e+00 3.025939999999999852e+00 1.118502999999999936e+01 -3.504230000000000178e+00 6.094000000000000306e+00 1.121504999999999974e+01 3.514639999999999986e+00 2.010000000000000068e-03 1.119205999999999968e+01 1.751900000000000013e+00 3.066359999999999975e+00 1.120312000000000019e+01 9.509999999999999357e-03 6.106760000000000410e+00 1.118618999999999986e+01 7.048560000000000159e+00 1.090000000000000040e-03 1.119220999999999933e+01 5.281670000000000087e+00 3.049609999999999932e+00 1.119280000000000008e+01 3.529889999999999972e+00 6.101309999999999789e+00 1.119908999999999999e+01 -4.564630000000000187e+00 9.141669999999999519e+00 1.880386999999999986e+01 -1.058820000000000094e+00 3.051050000000000040e+00 1.880558999999999870e+01 -2.812339999999999840e+00 6.099949999999999761e+00 1.879587000000000074e+01 -1.033130000000000104e+00 9.144629999999999370e+00 1.880396999999999963e+01 2.454359999999999875e+00 3.059099999999999930e+00 1.881315000000000026e+01 6.877499999999999725e-01 6.114880000000000315e+00 1.879985999999999891e+01 7.743470000000000297e+00 8.519999999999999796e-03 1.880088999999999899e+01 5.977199999999999847e+00 3.049049999999999816e+00 1.879938999999999893e+01 4.214570000000000149e+00 6.092360000000000220e+00 1.879885000000000161e+01
2.060000000000000199e-03 2.027690000000000214e+00 9.392899999999999139e+00 -1.755439999999999889e+00 5.085989999999999789e+00 9.381180000000000518e+00 -3.518019999999999925e+00 8.116609999999999658e+00 9.399380000000000734e+00 3.529929999999999790e+00 2.016649999999999832e+00 9.392739999999999867e+00 1.755020000000000024e+00 5.096860000000000390e+00 9.373179999999999623e+00 -8.980000000000000135e-03 8.132540000000000546e+00 9.380649999999999267e+00 7.040409999999999613e+00 2.035379999999999967e+00 9.408440000000000580e+00 5.281690000000000218e+00 5.060100000000000264e+00 9.386969999999999814e+00 3.528719999999999857e+00 8.121349999999999625e+00 9.382699999999999818e+00 7.330400000000000249e-01 2.025500000000000078e+00 1.699812999999999974e+01 -1.057010000000000005e+00 5.076920000000000321e+00 1.699340000000000117e+01 -2.818029999999999813e+00 8.129619999999999180e+00 1.699164000000000030e+01 4.225679999999999659e+00 2.040299999999999780e+00 1.698790999999999940e+01 2.478229999999999933e+00 5.061490000000000045e+00 1.698611999999999966e+01 6.762000000000000233e-01 8.129839999999999733e+00 1.698697999999999908e+01 7.737440000000000317e+00 2.027190000000000047e+00 1.701007999999999853e+01 5.991550000000000153e+00 5.083680000000000199e+00 1.699411999999999878e+01 4.234729999999999883e+00 8.149609999999999133e+00 1.699821999999999989e+01 8.099999999999999561e-04 2.028459999999999930e+00 1.300921999999999912e+01 -1.758750000000000036e+00 5.074609999999999843e+00 1.300873999999999953e+01 -3.528739999999999988e+00 8.134880000000000777e+00 1.301871000000000045e+01 3.511569999999999858e+00 2.049059999999999881e+00 1.299648999999999965e+01 1.753679999999999906e+00 5.073990000000000222e+00 1.301265000000000072e+01 -9.719999999999999474e-03 8.123079999999999856e+00 1.301412000000000013e+01 7.025339999999999918e+00 2.031699999999999839e+00 1.301124000000000080e+01 5.279040000000000177e+00 5.065760000000000041e+00 1.298963999999999963e+01 3.513250000000000206e+00 8.125239999999999796e+00 1.300707000000000058e+01 7.037499999999999867e-01 2.035410000000000164e+00 2.061428000000000083e+01 -1.057120000000000060e+00 5.100760000000000183e+00 2.061212000000000089e+01 -2.815789999999999793e+00 8.118280000000000385e+00 2.060986000000000118e+01 4.226549999999999585e+00 2.050609999999999822e+00 2.062126999999999910e+01 2.469430000000000014e+00 5.088250000000000384e+00 2.060525000000000162e+01 7.122899999999999787e-01 8.124639999999999418e+00 2.061715999999999838e+01 7.742379999999999818e+00 2.024989999999999846e+00 2.060276999999999958e+01 5.975399999999999601e+00 5.082499999999999574e+00 2.061797999999999931e+01 4.215679999999999872e+00 8.115600000000000591e+00 2.060540999999999912e+01 5.267859999999999765e+00 9.142649999999999721e+00 1.119133000000000067e+01 8.804159999999999542e+00 3.021770000000000067e+00 1.118277999999999928e+01 -3.501269999999999882e+00 6.093410000000000437e+00 1.121828000000000003e+01 3.513580000000000148e+00 2.340000000000000066e-03 1.119116000000000000e+01 1.750320000000000098e+00 3.069799999999999862e+00 1.120398999999999923e+01 1.129999999999999928e-02 6.108640000000000292e+00 1.118406000000000056e+01 7.050069999999999837e+00 1.199999999999999895e-03 1.119122999999999912e+01 5.281959999999999766e+00 3.049749999999999961e+00 1.119189000000000078e+01 3.531680000000000152e+00 6.102100000000000080e+00 1.119927999999999990e+01 -4.562400000000000233e+00 9.141019999999999257e+00 1.880426999999999893e+01 -1.059260000000000090e+00 3.051579999999999959e+00 1.880621999999999971e+01 -2.811690000000000023e+00 6.100509999999999877e+00 1.879468999999999923e+01 -1.028880000000000017e+00 9.144619999999999749e+00 1.880437999999999832e+01 2.452650000000000219e+00 3.061090000000000089e+00 1.881522999999999968e+01 6.847900000000000098e-01 6.118280000000000385e+00 1.879928999999999917e+01 7.743269999999999875e+00 9.979999999999999288e-03 1.880058000000000007e+01 5.975920000000000343e+00 3.049259999999999859e+00 1.879889999999999972e+01 4.212850000000000428e+00 6.091540000000000177e+00 1.879807999999999879e+01