-3.381326679900000158e+02
-3.381302288300000214e+02
-3.381220165199999883e+02
-3.381082598400000165e+02
-3.380893335700000080e+02
-3.380657275799999866e+02
-3.380380339199999753e+02
-3.380069118600000024e+02
-3.379730723600000033e+02
-3.379372414299999718e+02
-3.377738473699999986e+02
-3.377718930600000249e+02
-3.377653684200000157e+02
-3.377544422899999859e+02
-3.377394080899999835e+02
-3.377206679500000064e+02
-3.376987212700000214e+02
-3.376741383199999973e+02
-3.376475432999999953e+02
-3.376195954699999788e+02
-3.372171595899999943e+02
-3.372271085099999937e+02
-3.372368281899999829e+02
-3.372461839499999883e+02
-3.372551165799999922e+02
-3.372636361200000010e+02
-3.372718118000000231e+02
-3.372797645900000134e+02
-3.372876431500000081e+02
-3.372956164799999783e+02
-3.374248026199999799e+02
-3.374264633999999887e+02
-3.374255218299999797e+02
-3.374221087500000067e+02
-3.374164374800000132e+02
-3.374087902699999972e+02
-3.373995118199999865e+02
-3.373889959399999725e+02
-3.373776744300000132e+02
-3.373659929400000124e+02
-3.359636624099999835e+02
-3.359667926100000273e+02
-3.359742995199999882e+02
-3.359861302599999817e+02
-3.360021926599999915e+02
-3.360223590200000103e+02
-3.360464630199999760e+02
-3.360743047199999864e+02
-3.361056438100000037e+02
-3.361402067500000044e+02
-3.364103929400000084e+02
-3.364207536100000198e+02
-3.364325726199999735e+02
-3.364457121199999960e+02
-3.364600455699999770e+02
-3.364754647699999737e+02
-3.364918795199999977e+02
-3.365092170300000021e+02
-3.365274277899999902e+02
-3.365464766599999962e+02
-3.371173627100000090e+02
-3.371157691099999738e+02
-3.371095897000000150e+02
-3.370990491700000007e+02
-3.370845265599999721e+02
-3.370665446799999927e+02
-3.370457338300000174e+02
-3.370228062499999737e+02
-3.369985299499999769e+02
-3.369736939100000086e+02
-3.371663883300000180e+02
-3.371672298299999966e+02
-3.371670831299999804e+02
-3.371660066599999936e+02
-3.371641255999999771e+02
-3.371616258500000072e+02
-3.371587478600000054e+02
-3.371557838699999934e+02
-3.371530609499999969e+02
-3.371509316899999931e+02
-3.368625669300000141e+02
-3.368604090900000188e+02
-3.368585070299999984e+02
-3.368568797099999870e+02
-3.368555578099999934e+02
-3.368545645899999954e+02
-3.368539301700000124e+02
-3.368536823900000172e+02
-3.368538477700000158e+02
-3.368544522899999833e+02
-3.376263488700000153e+02
-3.376242198699999904e+02
-3.376174666300000240e+02
-3.376062050699999872e+02
-3.375906813400000033e+02
-3.375712612300000046e+02
-3.375484120099999927e+02
-3.375226720900000146e+02
-3.374946371400000089e+02
-3.374649327199999789e+02
-3.374184485499999937e+02
-3.374220885299999964e+02
-3.374211457900000255e+02
-3.374157484300000078e+02
-3.374061720199999854e+02
-3.373928314899999918e+02
-3.373762562800000069e+02
-3.373570627899999863e+02
-3.373359296699999845e+02
-3.373135672899999804e+02
-3.372393018000000211e+02
-3.372284134199999812e+02
-3.372141352400000187e+02
-3.371968741599999930e+02
-3.371771432799999957e+02
-3.371555421799999976e+02
-3.371327202400000260e+02
-3.371093700900000272e+02
-3.370861874299999954e+02
-3.370638484799999901e+02
-3.376191816900000049e+02
-3.376109031099999811e+02
-3.375999083500000211e+02
-3.375864037700000040e+02
-3.375706576700000028e+02
-3.375529976799999758e+02
-3.375337936700000228e+02
-3.375134552600000006e+02
-3.374924058600000194e+02
-3.374710860899999716e+02
-3.371375574699999902e+02
-3.371495248200000105e+02
-3.371607652800000210e+02
-3.371711965399999826e+02
-3.371808147200000008e+02
-3.371896836700000222e+02
-3.371979283800000076e+02
-3.372057103199999801e+02
-3.372132098299999825e+02
-3.372206087800000205e+02
-3.370549564199999963e+02
-3.370566373500000168e+02
-3.370589507099999764e+02
-3.370619025699999725e+02
-3.370655174199999919e+02
-3.370698402599999781e+02
-3.370749291399999947e+02
-3.370808560500000226e+02
-3.370877050099999792e+02
-3.370955659900000114e+02
-3.376553792400000020e+02
-3.376628506700000116e+02
-3.376675422800000206e+02
-3.376694553500000211e+02
-3.376686944300000164e+02
-3.376654592300000104e+02
-3.376600366299999791e+02
-3.376527921900000138e+02
-3.376441426900000238e+02
-3.376345456600000148e+02
-3.375364044400000125e+02
-3.375337513299999728e+02
-3.375272955099999876e+02
-3.375171800900000108e+02
-3.375036632900000200e+02
-3.374871026600000050e+02
-3.374679380700000024e+02
-3.374466755000000262e+02
-3.374238620200000014e+02
-3.374000698300000067e+02
-3.365558118000000150e+02
-3.365695282199999951e+02
-3.365878912000000014e+02
-3.366106238400000166e+02
-3.366374372799999719e+02
-3.366680176599999754e+02
-3.367020255200000065e+02
-3.367390883400000234e+02
-3.367787892599999964e+02
-3.368206631300000140e+02
-3.363158143599999903e+02
-3.363163746899999751e+02
-3.363223910599999726e+02
-3.363338956299999722e+02
-3.363508943699999918e+02
-3.363733492700000056e+02
-3.364011655799999971e+02
-3.364341626199999951e+02
-3.364720629999999915e+02
-3.365144754500000204e+02
-3.365944436400000086e+02
-3.366208109500000205e+02
-3.366493162900000016e+02
-3.366795718899999770e+02
-3.367111871399999927e+02
-3.367437675499999727e+02
-3.367769404100000088e+02
-3.368103577100000052e+02
-3.368437090400000216e+02
-3.368767313299999842e+02
-3.360639625200000182e+02
-3.360837104700000282e+02
-3.361123193500000070e+02
-3.361493679499999985e+02
-3.361943163700000241e+02
-3.362465065999999752e+02
-3.363051492100000246e+02
-3.363693286299999841e+02
-3.364380218599999921e+02
-3.365101054300000101e+02
-3.373459444900000221e+02
-3.373433071800000107e+02
-3.373368045600000187e+02
-3.373265316800000164e+02
-3.373127013299999817e+02
-3.372956326099999842e+02
-3.372757362099999909e+02
-3.372535005600000204e+02
-3.372294711200000279e+02
-3.372042367299999910e+02
-3.368967594399999825e+02
-3.368994305300000178e+02
-3.368979585399999905e+02
-3.368924177700000087e+02
-3.368829948399999807e+02
-3.368699824500000091e+02
-3.368537641799999847e+02
-3.368348029300000235e+02
-3.368136208600000145e+02
-3.367907781299999783e+02
-3.371295187000000055e+02
-3.371316635700000006e+02
-3.371296570800000154e+02
-3.371235944599999925e+02
-3.371137095199999862e+02
-3.371003616500000248e+02
-3.370840200100000175e+02
-3.370652508000000012e+02
-3.370446915200000149e+02
-3.370230273999999895e+02
-3.376370795999999928e+02
-3.376345822200000271e+02
-3.376286298900000133e+02
-3.376194351099999835e+02
-3.376073111100000119e+02
-3.375926735400000211e+02
-3.375760144500000024e+02
-3.375578839099999868e+02
-3.375388668200000097e+02
-3.375195600399999876e+02
-3.359857803300000114e+02
-3.359982815299999857e+02
-3.360146728600000188e+02
-3.360348074500000166e+02
-3.360585745600000109e+02
-3.360858851799999911e+02
-3.361166525599999773e+02
-3.361507726899999966e+02
-3.361880965799999785e+02
-3.362284061299999962e+02
-3.371955993099999773e+02
-3.371932853100000216e+02
-3.371899885000000268e+02
-3.371857717299999990e+02
-3.371807489700000247e+02
-3.371750829100000146e+02
-3.371689817999999832e+02
-3.371626919899999848e+02
-3.371564887900000258e+02
-3.371506706000000122e+02
-3.374963409900000215e+02
-3.374958616399999869e+02
-3.374916122899999777e+02
-3.374836877100000265e+02
-3.374722692099999790e+02
-3.374576155199999903e+02
-3.374400417499999776e+02
-3.374199174400000061e+02
-3.373976471400000037e+02
-3.373736526600000047e+02
-3.373081964400000174e+02
-3.373079157299999906e+02
-3.373036659699999973e+02
-3.372956625599999825e+02
-3.372842526700000008e+02
-3.372698945299999878e+02
-3.372531399900000224e+02
-3.372346008800000163e+02
-3.372149266200000284e+02
-3.371947802099999763e+02
-3.373631217099999731e+02
-3.373648463600000014e+02
-3.373646157000000017e+02
-3.373624506799999949e+02
-3.373584295399999746e+02
-3.373526872400000229e+02
-3.373454101699999796e+02
-3.373368265299999962e+02
-3.373272021799999720e+02
-3.373168225900000152e+02
-3.375794692100000134e+02
-3.375780891399999746e+02
-3.375729397499999891e+02
-3.375641447500000254e+02
-3.375519409400000086e+02
-3.375366625300000010e+02
-3.375187363699999992e+02
-3.374986560699999814e+02
-3.374769678499999941e+02
-3.374542563800000039e+02
-3.367846960200000126e+02
-3.367762248700000214e+02
-3.367629954500000053e+02
-3.367453518799999870e+02
-3.367237938100000179e+02
-3.366989444899999739e+02
-3.366715306599999735e+02
-3.366423461399999724e+02
-3.366122258899999906e+02
-3.365820246999999767e+02
-3.373718772700000272e+02
-3.373689174799999932e+02
-3.373642152799999963e+02
-3.373578682300000082e+02
-3.373500481799999875e+02
-3.373409850300000130e+02
-3.373309636899999759e+02
-3.373203157500000202e+02
-3.373094103999999902e+02
-3.372986382799999774e+02
-3.371793895199999724e+02
-3.371772677499999986e+02
-3.371705545099999881e+02
-3.371594206799999824e+02
-3.371441718899999955e+02
-3.371252452599999856e+02
-3.371031810399999813e+02
-3.370786035900000002e+02
-3.370521924199999830e+02
-3.370246664599999917e+02
-3.373392808400000149e+02
-3.373373765299999718e+02
-3.373324544500000002e+02
-3.373246641999999724e+02
-3.373142504599999825e+02
-3.373015462500000012e+02
-3.372869556800000055e+02
-3.372709334200000058e+02
-3.372539698599999838e+02
-3.372365699700000050e+02
-3.373572909200000254e+02
-3.373556267399999911e+02
-3.373498124700000176e+02
-3.373400624999999877e+02
-3.373267312099999913e+02
-3.373102903100000276e+02
-3.372913076699999806e+02
-3.372704237099999887e+02
-3.372483207399999969e+02
-3.372256954499999893e+02
-3.369763388700000064e+02
-3.369773772799999847e+02
-3.369762016500000072e+02
-3.369729647899999918e+02
-3.369678991399999859e+02
-3.369613017099999865e+02
-3.369535286799999767e+02
-3.369449794399999973e+02
-3.369360845400000244e+02
-3.369272857700000259e+02
-3.367119372899999803e+02
-3.367144955399999731e+02
-3.367170471499999849e+02
-3.367195793199999798e+02
-3.367221084500000075e+02
-3.367246868500000119e+02
-3.367273994299999913e+02
-3.367303585399999974e+02
-3.367336952100000076e+02
-3.367375578900000050e+02
-3.373392045300000177e+02
-3.373278010999999879e+02
-3.373128384600000231e+02
-3.372947416499999918e+02
-3.372740627800000084e+02
-3.372514690900000005e+02
-3.372277109999999993e+02
-3.372035935499999937e+02
-3.371799450199999910e+02
-3.371575925899999788e+02
-3.374824541199999999e+02
-3.374822073799999771e+02
-3.374777075499999910e+02
-3.374690768699999808e+02
-3.374565557000000240e+02
-3.374404792000000270e+02
-3.374212684099999819e+02
-3.373994101299999784e+02
-3.373754432900000211e+02
-3.373499363199999834e+02
-3.372649279299999989e+02
-3.372654969700000152e+02
-3.372652809800000000e+02
-3.372644084699999780e+02
-3.372630758199999832e+02
-3.372615329500000030e+02
-3.372600725400000101e+02
-3.372590091999999800e+02
-3.372586715499999741e+02
-3.372593672500000253e+02
-3.379425482999999986e+02
-3.379417415400000095e+02
-3.379357466499999987e+02
-3.379248614499999803e+02
-3.379095309200000088e+02
-3.378903391299999726e+02
-3.378679636400000277e+02
-3.378431490699999813e+02
-3.378166685499999744e+02
-3.377893001099999992e+02
-3.370859775000000127e+02
-3.370861308199999939e+02
-3.370859445099999903e+02
-3.370854332600000021e+02
-3.370846980900000176e+02
-3.370839207299999885e+02
-3.370833543100000043e+02
-3.370833029199999942e+02
-3.370841013900000007e+02
-3.370860945599999923e+02
-3.376467781700000046e+02
-3.376434889000000226e+02
-3.376366391000000249e+02
-3.376265543600000001e+02
-3.376136696699999789e+02
-3.375985095400000091e+02
-3.375816558899999791e+02
-3.375637240199999951e+02
-3.375453291100000115e+02
-3.375270606099999782e+02
-3.370574688799999876e+02
-3.370632719299999849e+02
-3.370664973099999884e+02
-3.370670778400000245e+02
-3.370650329100000135e+02
-3.370604644300000245e+02
-3.370535586799999805e+02
-3.370445684900000174e+02
-3.370338113500000077e+02
-3.370216502900000251e+02
-3.371414014200000224e+02
-3.371433797999999911e+02
-3.371449685200000204e+02
-3.371462190699999724e+02
-3.371472187100000042e+02
-3.371480866599999899e+02
-3.371489763800000219e+02
-3.371500578999999789e+02
-3.371515278599999874e+02
-3.371535876400000120e+02
-3.373673972799999774e+02
-3.373671145700000125e+02
-3.373625841300000161e+02
-3.373539703399999894e+02
-3.373415392699999984e+02
-3.373256485200000157e+02
-3.373067302100000120e+02
-3.372852753299999904e+02
-3.372618199400000094e+02
-3.372369139900000050e+02
-3.370967946000000097e+02
-3.370971002599999906e+02
-3.370978711999999859e+02
-3.370992506499999877e+02
-3.371014437499999872e+02
-3.371046945200000096e+02
-3.371092812800000047e+02
-3.371154740599999968e+02
-3.371235232600000131e+02
-3.371336388799999781e+02
-3.361302937699999802e+02
-3.361435456099999897e+02
-3.361601952699999742e+02
-3.361800232400000255e+02
-3.362027664199999890e+02
-3.362281295500000056e+02
-3.362557829300000094e+02
-3.362853743300000247e+02
-3.363165361000000075e+02
-3.363488949100000127e+02
-3.365650757199999816e+02
-3.365642706500000259e+02
-3.365594050000000266e+02
-3.365507768100000021e+02
-3.365388798500000007e+02
-3.365243724499999871e+02
-3.365080355299999724e+02
-3.364907446899999854e+02
-3.364734139199999845e+02
-3.364569602199999849e+02
