1.015000000000000060e-03 4.130000000000000099e-04 3.949000000000000253e-03 1.008999999999999914e-03 4.139999999999999800e-04 3.948000000000000120e-03 1.012000000000000096e-03 4.099999999999999912e-04 3.950000000000000386e-03 1.010000000000000047e-03 4.099999999999999912e-04 3.943000000000000324e-03 1.015999999999999976e-03 4.130000000000000099e-04 3.939999999999999926e-03 1.018999999999999941e-03 4.169999999999999987e-04 3.945999999999999855e-03 1.018000000000000025e-03 4.110000000000000155e-04 3.943000000000000324e-03 1.018000000000000025e-03 4.180000000000000230e-04 3.944999999999999722e-03 1.013999999999999927e-03 4.139999999999999800e-04 3.950000000000000386e-03 3.930800000000000266e-02 -7.339999999999999520e-04 6.400000000000000524e-04 3.930600000000000066e-02 -7.380000000000000492e-04 6.350000000000000392e-04 3.930800000000000266e-02 -7.349999999999999763e-04 6.359999999999999551e-04 3.930499999999999966e-02 -7.380000000000000492e-04 6.380000000000000037e-04 3.930000000000000160e-02 -7.399999999999999894e-04 6.359999999999999551e-04 3.930700000000000166e-02 -7.360000000000000006e-04 6.380000000000000037e-04 3.930299999999999766e-02 -7.420000000000000380e-04 6.329999999999999906e-04 3.930700000000000166e-02 -7.380000000000000492e-04 6.329999999999999906e-04 3.930100000000000260e-02 -7.299999999999999632e-04 6.350000000000000392e-04 -3.928500000000000048e-02 -7.240000000000000342e-04 -9.990000000000001049e-04 -3.928899999999999754e-02 -7.230000000000000098e-04 -9.970000000000000563e-04 -3.928700000000000248e-02 -7.249999999999999500e-04 -1.000000000000000021e-03 -3.929099999999999954e-02 -7.259999999999999743e-04 -9.940000000000000918e-04 -3.928700000000000248e-02 -7.259999999999999743e-04 -9.929999999999999591e-04 -3.928700000000000248e-02 -7.230000000000000098e-04 -9.940000000000000918e-04 -3.927900000000000141e-02 -7.249999999999999500e-04 -9.950000000000000077e-04 -3.928199999999999747e-02 -7.169999999999999724e-04 -9.920000000000000432e-04 -3.928500000000000048e-02 -7.209999999999999612e-04 -9.959999999999999236e-04 -9.959999999999999236e-04 4.020000000000000136e-04 -4.035000000000000392e-03 -9.920000000000000432e-04 4.000000000000000192e-04 -4.034000000000000259e-03 -9.929999999999999591e-04 4.009999999999999893e-04 -4.034000000000000259e-03 -9.970000000000000563e-04 4.000000000000000192e-04 -4.037999999999999923e-03 -9.990000000000001049e-04 3.980000000000000248e-04 -4.035000000000000392e-03 -9.940000000000000918e-04 4.020000000000000136e-04 -4.036999999999999790e-03 -9.990000000000001049e-04 3.970000000000000005e-04 -4.034000000000000259e-03 -9.950000000000000077e-04 3.970000000000000005e-04 -4.034000000000000259e-03 -9.990000000000001049e-04 4.020000000000000136e-04 -4.035999999999999657e-03 -1.099299999999999930e-02 3.550000000000000096e-04 -4.366000000000000089e-03 -1.098999999999999977e-02 3.539999999999999853e-04 -4.362999999999999691e-03 -1.099200000000000003e-02 3.559999999999999797e-04 -4.363999999999999824e-03 -1.099900000000000010e-02 3.530000000000000152e-04 -4.364999999999999956e-03 -1.099900000000000010e-02 3.490000000000000263e-04 -4.361000000000000293e-03 -1.099800000000000083e-02 3.550000000000000096e-04 -4.363999999999999824e-03 -1.098799999999999950e-02 3.519999999999999908e-04 -4.363999999999999824e-03 -1.098999999999999977e-02 3.559999999999999797e-04 -4.362999999999999691e-03 -1.099200000000000003e-02 3.550000000000000096e-04 -4.364999999999999956e-03 1.101099999999999995e-02 3.620000000000000171e-04 4.818000000000000234e-03 1.101000000000000069e-02 3.539999999999999853e-04 4.818000000000000234e-03 1.100899999999999969e-02 3.600000000000000227e-04 4.820999999999999765e-03 1.101000000000000069e-02 3.559999999999999797e-04 4.817000000000000101e-03 1.100899999999999969e-02 3.589999999999999984e-04 4.817000000000000101e-03 1.101199999999999922e-02 3.550000000000000096e-04 4.819999999999999632e-03 1.101000000000000069e-02 3.570000000000000040e-04 4.819000000000000367e-03 1.101099999999999995e-02 3.600000000000000227e-04 4.825000000000000296e-03 1.100600000000000016e-02 3.550000000000000096e-04 4.818000000000000234e-03
1.513600000000000015e-02 2.076999999999999853e-03 -2.488900000000000140e-02 7.169999999999999724e-04 -1.832599999999999854e-02 2.170599999999999960e-02 -1.034099999999999950e-02 1.968000000000000131e-03 -8.665000000000000827e-03 -3.252000000000000030e-02 3.583999999999999686e-02 -4.995000000000000308e-03 2.438399999999999943e-02 -1.053600000000000023e-02 1.852399999999999880e-02 2.123900000000000093e-02 1.328299999999999967e-02 2.585000000000000058e-03 4.739999999999999747e-04 -1.480799999999999998e-02 -5.969300000000000300e-02 2.332400000000000098e-02 4.079300000000000287e-02 1.130399999999999981e-02 -1.012300000000000005e-02 5.426000000000000267e-03 -1.027299999999999915e-02 -2.876000000000000084e-03 1.299400000000000034e-02 3.041999999999999999e-03 3.918900000000000161e-02 -2.341000000000000199e-03 -1.264499999999999999e-02 6.657599999999999629e-02 7.243000000000000306e-03 3.930000000000000333e-03 2.501600000000000004e-02 -9.166999999999999801e-03 2.171199999999999866e-02 -5.473999999999999699e-03 4.056699999999999889e-02 1.365800000000000000e-02 9.486600000000000588e-02 8.096000000000000765e-03 -1.277999999999999969e-02 4.907000000000000250e-02 1.726099999999999857e-02 -3.875699999999999978e-02 2.612599999999999992e-02 -2.000000000000000042e-03 -8.257000000000000450e-03 2.295200000000000018e-02 -2.762500000000000025e-02 -5.618999999999999863e-03 -4.799799999999999900e-02 -2.975999999999999913e-03 -5.814999999999999857e-03 -8.273000000000000839e-03 -1.978500000000000050e-02 -2.080699999999999911e-02 -3.507300000000000001e-02 2.112999999999999861e-03 -1.788800000000000112e-02 -3.514500000000000263e-02 -2.052700000000000011e-02 6.866999999999999840e-03 -3.044200000000000031e-02 3.772099999999999759e-02 -9.853999999999999912e-03 -2.417400000000000104e-02 1.777899999999999966e-02 -3.183699999999999725e-02 -1.608400000000000107e-02 -7.429999999999999973e-03 -1.088800000000000011e-02 -2.919800000000000173e-02 2.010899999999999840e-02 4.028799999999999742e-02 -3.248800000000000299e-02 4.016999999999999738e-03 6.507999999999999896e-03 -9.780000000000000498e-03 -7.603000000000000383e-03 5.818000000000000255e-03 -7.875000000000000056e-03 -2.294500000000000012e-02 -1.250000000000000026e-04 2.162800000000000139e-02 1.956799999999999859e-02 -1.423999999999999919e-03 -7.477000000000000139e-03 -2.671300000000000063e-02 -1.565899999999999931e-02 -3.690100000000000324e-02 1.352500000000000056e-02 1.156500000000000063e-02 1.626000000000000058e-03 1.922899999999999957e-02 8.531999999999999654e-03 -5.334000000000000200e-03 2.189599999999999880e-02 1.911099999999999952e-02 1.240800000000000063e-02 1.510999999999999973e-03 -2.662000000000000130e-02 1.300899999999999973e-02 1.932000000000000037e-02 -8.270000000000000441e-04 2.307000000000000023e-02 -6.480999999999999782e-03 3.047400000000000109e-02 -1.783200000000000063e-02 7.752100000000000657e-02 6.536699999999999455e-02 -5.665200000000000097e-02 -5.032000000000000015e-03 -6.176800000000000346e-02 -3.243999999999999922e-03 -1.440999999999999920e-02 4.862299999999999955e-02 2.347999999999999827e-03 -3.610300000000000314e-02 -5.418699999999999906e-02 -3.747999999999999943e-02 -2.671600000000000016e-02 4.027200000000000224e-02 -5.563400000000000289e-02 -2.433599999999999999e-02 2.735399999999999984e-02 -1.710100000000000162e-02 -2.438900000000000096e-02 1.384200000000000014e-02 -5.427200000000000080e-02 -2.671099999999999863e-02 -2.250299999999999870e-02 -4.148999999999999910e-03 1.479600000000000012e-02 2.338600000000000054e-02 3.713600000000000234e-02 7.470000000000000511e-04 -4.374000000000000284e-03 -1.172199999999999978e-02 -1.585100000000000051e-02 2.974100000000000008e-02 -6.980899999999999606e-02 2.707800000000000137e-02 2.094199999999999881e-02 5.845000000000000195e-02 -3.668899999999999939e-02 -2.055399999999999935e-02 7.847200000000000009e-02 -5.199399999999999855e-02 -1.360800000000000030e-02 -1.537799999999999931e-02 -5.616899999999999671e-02 -2.445000000000000125e-03 2.629099999999999840e-02 1.779199999999999879e-02 2.629400000000000140e-02 4.767199999999999910e-02 1.761499999999999871e-02 -1.362999999999999975e-02
2.922900000000000151e-02 3.638999999999999874e-03 -5.384499999999999703e-02 4.130000000000000099e-04 -3.684799999999999881e-02 3.923499999999999904e-02 -2.162100000000000133e-02 3.520000000000000125e-03 -2.124099999999999946e-02 -6.548700000000000354e-02 7.097499999999999643e-02 -1.467199999999999928e-02 4.744700000000000306e-02 -2.143600000000000019e-02 3.273999999999999827e-02 4.111800000000000177e-02 2.603600000000000012e-02 1.211000000000000054e-03 -2.930000000000000204e-04 -3.020700000000000121e-02 -1.238319999999999976e-01 4.487399999999999722e-02 8.088599999999999957e-02 1.780100000000000085e-02 -2.129599999999999896e-02 1.039699999999999999e-02 -2.439099999999999949e-02 -4.456800000000000345e-02 2.643600000000000116e-02 5.052000000000000067e-03 3.894999999999999851e-02 -3.969999999999999571e-03 -2.581800000000000067e-02 9.342799999999999716e-02 1.504100000000000055e-02 6.955000000000000245e-03 1.106799999999999971e-02 -1.766200000000000062e-02 4.231900000000000245e-02 -4.918899999999999662e-02 8.109199999999999742e-02 2.557099999999999998e-02 1.498800000000000132e-01 1.660899999999999876e-02 -2.697700000000000098e-02 5.869200000000000111e-02 3.545500000000000040e-02 -7.819399999999999962e-02 1.297799999999999995e-02 -3.297000000000000017e-03 -1.712999999999999939e-02 6.713000000000000217e-03 -5.424799999999999761e-02 -1.196400000000000068e-02 -5.655799999999999716e-02 -5.147999999999999798e-03 -1.053100000000000043e-02 2.251299999999999829e-02 -3.856199999999999906e-02 -3.955899999999999694e-02 -3.086399999999999907e-02 4.773999999999999598e-03 -3.454499999999999932e-02 -3.102500000000000049e-02 -4.021899999999999781e-02 1.482499999999999964e-02 -2.169199999999999948e-02 7.601800000000000224e-02 -1.821800000000000155e-02 -9.381000000000000449e-03 3.587200000000000111e-02 -6.201700000000000268e-02 6.960000000000000041e-03 -1.418699999999999996e-02 -2.043899999999999884e-02 -1.912399999999999864e-02 4.110199999999999965e-02 8.160000000000000586e-02 -2.569799999999999862e-02 8.647999999999999438e-03 1.398199999999999964e-02 -1.854599999999999999e-02 -1.549500000000000009e-02 1.572099999999999886e-02 -1.470300000000000079e-02 -4.619100000000000289e-02 3.846000000000000026e-03 4.396300000000000208e-02 3.851899999999999769e-02 1.564000000000000069e-03 -1.389300000000000083e-02 -5.333999999999999853e-02 -2.686699999999999852e-02 -7.246400000000000063e-02 2.653300000000000103e-02 2.752399999999999985e-02 4.219999999999999793e-03 3.795199999999999962e-02 2.112800000000000095e-02 -9.615999999999999548e-03 4.336000000000000271e-02 4.231000000000000039e-02 2.555199999999999833e-02 2.621000000000000066e-03 -4.882000000000000228e-02 2.689199999999999924e-02 3.814599999999999935e-02 2.458999999999999814e-03 5.692799999999999944e-02 -1.327700000000000061e-02 6.502099999999999547e-02 -2.418700000000000017e-02 1.539059999999999873e-01 1.348509999999999986e-01 -1.016620000000000024e-01 -9.971999999999999961e-03 -1.182659999999999961e-01 4.478000000000000209e-03 -2.919499999999999873e-02 1.012030000000000013e-01 1.513899999999999968e-02 -7.222900000000000154e-02 -1.032669999999999977e-01 -6.341700000000000115e-02 -5.328000000000000097e-02 8.428599999999999981e-02 -9.959899999999999309e-02 -4.890499999999999708e-02 5.850099999999999745e-02 -2.340700000000000072e-02 -4.927000000000000129e-02 3.216800000000000215e-02 -9.697400000000000464e-02 -5.325599999999999778e-02 -4.050000000000000128e-02 -1.923599999999999963e-02 2.920700000000000032e-02 4.168000000000000177e-02 6.279800000000000659e-02 1.247999999999999977e-03 -1.326699999999999928e-02 -3.404200000000000281e-02 -3.199400000000000160e-02 5.418900000000000106e-02 -1.498710000000000042e-01 5.377799999999999941e-02 3.716499999999999665e-02 1.053380000000000011e-01 -7.326699999999999879e-02 -4.547099999999999753e-02 1.445859999999999923e-01 -1.035129999999999939e-01 -3.126999999999999919e-02 -4.114999999999999908e-02 -1.125180000000000069e-01 -9.268999999999999462e-03 4.149699999999999916e-02 3.520399999999999918e-02 4.748999999999999749e-02 8.419899999999999607e-02 3.470899999999999680e-02 -3.204499999999999710e-02
4.316099999999999798e-02 5.086000000000000243e-03 -8.275200000000000611e-02 8.100000000000000375e-05 -5.504799999999999971e-02 5.636800000000000144e-02 -3.279399999999999676e-02 5.168999999999999984e-03 -3.384000000000000202e-02 -9.776999999999999580e-02 1.057529999999999998e-01 -2.504199999999999829e-02 7.002899999999999403e-02 -3.239100000000000312e-02 4.650699999999999973e-02 6.058299999999999796e-02 3.852300000000000169e-02 -1.119999999999999983e-04 -1.315999999999999896e-03 -4.572799999999999782e-02 -1.881240000000000134e-01 6.554200000000000303e-02 1.205230000000000051e-01 2.337399999999999894e-02 -3.251300000000000023e-02 1.541799999999999941e-02 -3.826999999999999846e-02 -8.576499999999999402e-02 3.952399999999999664e-02 6.598999999999999831e-03 3.864200000000000274e-02 -5.553999999999999909e-03 -3.884699999999999959e-02 1.196509999999999935e-01 2.261799999999999922e-02 9.761999999999999844e-03 -2.416000000000000179e-03 -2.617900000000000088e-02 6.230499999999999927e-02 -9.168900000000000661e-02 1.207730000000000053e-01 3.632699999999999818e-02 2.041870000000000074e-01 2.473699999999999857e-02 -4.179800000000000182e-02 6.817700000000000149e-02 5.375800000000000023e-02 -1.175979999999999942e-01 -1.210000000000000002e-04 -4.657999999999999814e-03 -2.605400000000000077e-02 -9.369000000000000591e-03 -8.057999999999999885e-02 -1.847700000000000037e-02 -6.482400000000000662e-02 -7.203000000000000201e-03 -1.507099999999999933e-02 5.281999999999999890e-02 -5.678400000000000114e-02 -5.696999999999999981e-02 -2.663499999999999895e-02 7.079000000000000223e-03 -5.084299999999999931e-02 -2.691599999999999895e-02 -5.976299999999999668e-02 2.294699999999999865e-02 -1.308100000000000061e-02 1.138919999999999932e-01 -2.606100000000000083e-02 5.101999999999999764e-03 5.346999999999999670e-02 -9.122700000000000253e-02 2.977199999999999985e-02 -2.100300000000000084e-02 -2.954100000000000129e-02 -9.091999999999999388e-03 6.220400000000000235e-02 1.228250000000000036e-01 -1.890999999999999973e-02 1.317399999999999995e-02 2.145199999999999885e-02 -2.717999999999999930e-02 -2.327600000000000155e-02 2.566799999999999984e-02 -2.134799999999999892e-02 -6.934200000000000086e-02 7.875000000000000056e-03 6.581700000000000050e-02 5.725700000000000234e-02 5.055999999999999731e-03 -2.020800000000000027e-02 -7.943799999999999473e-02 -3.750599999999999767e-02 -1.074699999999999961e-01 3.926099999999999729e-02 4.375199999999999922e-02 6.610000000000000424e-03 5.643499999999999905e-02 3.362300000000000011e-02 -1.378700000000000064e-02 6.470399999999999763e-02 6.553200000000000691e-02 3.842500000000000082e-02 3.723999999999999880e-03 -7.040599999999999636e-02 4.067300000000000082e-02 5.690800000000000025e-02 5.912999999999999853e-03 9.033599999999999963e-02 -1.993500000000000133e-02 9.896000000000000629e-02 -3.008100000000000010e-02 2.290500000000000036e-01 2.034960000000000102e-01 -1.458359999999999934e-01 -1.443000000000000012e-02 -1.735099999999999976e-01 1.212899999999999916e-02 -4.390199999999999658e-02 1.529010000000000091e-01 2.743699999999999958e-02 -1.079269999999999952e-01 -1.512419999999999876e-01 -8.877000000000000168e-02 -7.922700000000000575e-02 1.273420000000000107e-01 -1.426040000000000085e-01 -7.313400000000000456e-02 8.880499999999999505e-02 -2.995300000000000046e-02 -7.411099999999999632e-02 5.044200000000000073e-02 -1.388490000000000002e-01 -7.920499999999999763e-02 -5.821799999999999892e-02 -3.427100000000000285e-02 4.349299999999999694e-02 5.954299999999999871e-02 8.788799999999999391e-02 1.765000000000000076e-03 -2.181699999999999959e-02 -5.576500000000000207e-02 -4.790300000000000114e-02 7.797700000000000464e-02 -2.287270000000000136e-01 8.015200000000000102e-02 5.333999999999999853e-02 1.514220000000000010e-01 -1.091469999999999940e-01 -6.975399999999999656e-02 2.089529999999999998e-01 -1.539939999999999920e-01 -4.802399999999999725e-02 -6.608300000000000285e-02 -1.683070000000000122e-01 -1.559299999999999922e-02 5.650399999999999867e-02 5.243400000000000144e-02 6.825100000000000611e-02 1.204260000000000053e-01 5.151599999999999929e-02 -5.025099999999999706e-02
5.671299999999999952e-02 6.416999999999999961e-03 -1.113510000000000055e-01 -2.869999999999999830e-04 -7.287499999999999534e-02 7.305799999999999794e-02 -4.376399999999999735e-02 6.989000000000000420e-03 -4.641200000000000186e-02 -1.292210000000000025e-01 1.399420000000000108e-01 -3.601499999999999840e-02 9.196999999999999620e-02 -4.339400000000000202e-02 5.977600000000000274e-02 7.949900000000000022e-02 5.062300000000000133e-02 -1.252000000000000075e-03 -2.504000000000000149e-03 -6.130700000000000038e-02 -2.520740000000000203e-01 8.518299999999999483e-02 1.594909999999999939e-01 2.803599999999999842e-02 -4.376499999999999835e-02 2.052400000000000058e-02 -5.166899999999999965e-02 -1.263460000000000139e-01 5.220299999999999940e-02 7.663999999999999806e-03 3.827200000000000046e-02 -7.039000000000000118e-03 -5.162900000000000128e-02 1.450690000000000035e-01 2.991999999999999868e-02 1.239700000000000003e-02 -1.529900000000000010e-02 -3.467400000000000343e-02 8.158500000000000474e-02 -1.327609999999999901e-01 1.594359999999999944e-01 4.590000000000000330e-02 2.574879999999999947e-01 3.243900000000000255e-02 -5.703699999999999742e-02 7.748700000000000032e-02 7.205499999999999405e-02 -1.567149999999999932e-01 -1.310099999999999980e-02 -6.106000000000000316e-03 -3.504800000000000276e-02 -2.520700000000000024e-02 -1.065159999999999996e-01 -2.516399999999999887e-02 -7.269399999999999473e-02 -9.081999999999999795e-03 -1.941599999999999923e-02 8.237999999999999490e-02 -7.425400000000000056e-02 -7.290699999999999958e-02 -2.237700000000000106e-02 8.876999999999999474e-03 -6.669400000000000328e-02 -2.286799999999999944e-02 -7.908400000000000152e-02 3.128100000000000325e-02 -4.602000000000000188e-03 1.510579999999999978e-01 -3.339299999999999907e-02 1.922300000000000050e-02 7.047799999999999898e-02 -1.192079999999999945e-01 5.227699999999999708e-02 -2.786800000000000041e-02 -3.813099999999999823e-02 7.879999999999999635e-04 8.334400000000000142e-02 1.637550000000000117e-01 -1.215499999999999914e-02 1.750700000000000173e-02 2.883399999999999852e-02 -3.558499999999999858e-02 -3.086900000000000061e-02 3.561299999999999882e-02 -2.768400000000000027e-02 -9.234399999999999553e-02 1.187200000000000061e-02 8.704099999999999338e-02 7.570000000000000340e-02 9.116000000000000839e-03 -2.636799999999999908e-02 -1.048980000000000051e-01 -4.748800000000000243e-02 -1.416530000000000011e-01 5.156899999999999679e-02 6.009599999999999664e-02 8.673999999999999419e-03 7.451800000000000090e-02 4.583700000000000274e-02 -1.778700000000000073e-02 8.576200000000000490e-02 8.858000000000000596e-02 5.095700000000000229e-02 4.840999999999999817e-03 -9.123599999999999766e-02 5.429699999999999804e-02 7.556200000000000416e-02 9.537999999999999604e-03 1.229999999999999982e-01 -2.638899999999999926e-02 1.319649999999999990e-01 -3.550199999999999884e-02 3.023520000000000096e-01 2.706189999999999984e-01 -1.888980000000000103e-01 -1.839500000000000163e-02 -2.270979999999999943e-01 1.965099999999999833e-02 -5.841899999999999871e-02 2.031949999999999867e-01 3.920099999999999973e-02 -1.429600000000000037e-01 -1.977190000000000059e-01 -1.133989999999999998e-01 -1.043820000000000026e-01 1.690460000000000018e-01 -1.842989999999999906e-01 -9.679100000000000203e-02 1.179189999999999960e-01 -3.667900000000000327e-02 -9.869999999999999607e-02 6.847399999999999320e-02 -1.795769999999999866e-01 -1.043810000000000016e-01 -7.549100000000000255e-02 -4.923299999999999899e-02 5.756599999999999911e-02 7.677499999999999603e-02 1.122240000000000043e-01 2.260999999999999989e-03 -2.996700000000000058e-02 -7.669299999999999728e-02 -6.344900000000000539e-02 1.008939999999999976e-01 -3.057300000000000018e-01 1.059510000000000035e-01 6.926400000000000612e-02 1.963699999999999890e-01 -1.440470000000000084e-01 -9.323499999999999843e-02 2.710969999999999769e-01 -2.030800000000000105e-01 -6.372700000000000586e-02 -8.998399999999999455e-02 -2.230429999999999913e-01 -2.137000000000000011e-02 7.121299999999999852e-02 6.932499999999999774e-02 8.836600000000000010e-02 1.560979999999999868e-01 6.790200000000000402e-02 -6.804399999999999338e-02
6.967800000000000382e-02 7.637999999999999824e-03 -1.393739999999999979e-01 -6.909999999999999910e-04 -9.025700000000000389e-02 8.926399999999999613e-02 -5.443699999999999928e-02 9.053999999999999548e-03 -5.889699999999999797e-02 -1.597139999999999949e-01 1.733310000000000128e-01 -4.749400000000000149e-02 1.131110000000000032e-01 -5.443900000000000128e-02 7.251799999999999913e-02 9.773199999999999943e-02 6.221000000000000141e-02 -2.077999999999999986e-03 -3.765999999999999816e-03 -7.687800000000000189e-02 -3.152130000000000210e-01 1.036699999999999983e-01 1.975989999999999969e-01 3.179799999999999988e-02 -5.503000000000000252e-02 2.574600000000000152e-02 -6.437400000000000067e-02 -1.662019999999999886e-01 6.443999999999999728e-02 8.236999999999999530e-03 3.785299999999999776e-02 -8.385000000000000092e-03 -6.406699999999999895e-02 1.695220000000000060e-01 3.689599999999999824e-02 1.493399999999999936e-02 -2.748300000000000048e-02 -4.310599999999999848e-02 1.000780000000000003e-01 -1.722170000000000090e-01 1.969329999999999969e-01 5.428700000000000192e-02 3.094899999999999873e-01 3.970300000000000218e-02 -7.245799999999999463e-02 8.661299999999999555e-02 9.021400000000000252e-02 -1.952859999999999874e-01 -2.590999999999999900e-02 -7.643999999999999753e-03 -4.412300000000000250e-02 -4.073199999999999737e-02 -1.319649999999999990e-01 -3.201999999999999985e-02 -8.006099999999999328e-02 -1.072500000000000016e-02 -2.354699999999999849e-02 1.109519999999999951e-01 -9.076499999999999846e-02 -8.727600000000000635e-02 -1.806400000000000020e-02 1.003300000000000025e-02 -8.199599999999999944e-02 -1.894399999999999903e-02 -9.811799999999999689e-02 3.987299999999999872e-02 3.736000000000000171e-03 1.872379999999999878e-01 -4.025200000000000305e-02 3.292899999999999994e-02 8.680000000000000215e-02 -1.457320000000000004e-01 7.441000000000000392e-02 -3.477299999999999836e-02 -4.612900000000000333e-02 1.041599999999999991e-02 1.044550000000000062e-01 2.041800000000000004e-01 -5.465000000000000240e-03 2.157099999999999990e-02 3.606800000000000284e-02 -4.365900000000000336e-02 -3.820899999999999991e-02 4.550499999999999684e-02 -3.359299999999999786e-02 -1.151490000000000014e-01 1.575700000000000017e-02 1.074989999999999973e-01 9.378300000000000525e-02 1.379400000000000071e-02 -3.234100000000000169e-02 -1.296339999999999992e-01 -5.671299999999999952e-02 -1.747529999999999917e-01 6.332100000000000228e-02 7.639500000000000457e-02 1.028500000000000074e-02 9.206999999999999906e-02 5.759399999999999936e-02 -2.154000000000000012e-02 1.063690000000000052e-01 1.112739999999999979e-01 6.308199999999999918e-02 6.008000000000000319e-03 -1.111660000000000009e-01 6.771399999999999642e-02 9.404700000000000559e-02 1.332900000000000057e-02 1.546629999999999949e-01 -3.256699999999999873e-02 1.637069999999999914e-01 -4.043599999999999972e-02 3.732550000000000034e-01 3.355429999999999802e-01 -2.305669999999999942e-01 -2.186000000000000096e-02 -2.786190000000000055e-01 2.697300000000000045e-02 -7.263400000000000412e-02 2.515769999999999951e-01 5.040100000000000136e-02 -1.771020000000000094e-01 -2.423119999999999996e-01 -1.371680000000000121e-01 -1.285989999999999911e-01 2.090259999999999896e-01 -2.243690000000000129e-01 -1.196630000000000055e-01 1.455359999999999987e-01 -4.353100000000000025e-02 -1.228179999999999966e-01 8.606800000000000561e-02 -2.188670000000000060e-01 -1.286239999999999883e-01 -9.215099999999999680e-02 -6.408899999999999320e-02 7.133100000000000551e-02 9.319600000000000106e-02 1.356479999999999908e-01 2.681999999999999922e-03 -3.766900000000000109e-02 -9.664999999999999980e-02 -7.849299999999999333e-02 1.227310000000000068e-01 -3.802710000000000257e-01 1.309130000000000016e-01 8.474199999999999788e-02 2.398760000000000059e-01 -1.777070000000000038e-01 -1.157379999999999937e-01 3.305679999999999730e-01 -2.504379999999999939e-01 -7.824399999999999411e-02 -1.126650000000000013e-01 -2.762379999999999836e-01 -2.657699999999999993e-02 8.550800000000000067e-02 8.572599999999999665e-02 1.076420000000000016e-01 1.909700000000000009e-01 8.375299999999999412e-02 -8.522799999999999820e-02
8.185299999999999521e-02 8.750000000000000833e-03 -1.665739999999999998e-01 -1.126999999999999964e-03 -1.071330000000000060e-01 1.049630000000000007e-01 -6.472200000000000175e-02 1.144700000000000058e-02 -7.125199999999999589e-02 -1.891440000000000066e-01 2.057160000000000100e-01 -5.935900000000000204e-02 1.333020000000000038e-01 -6.551700000000000579e-02 8.472300000000000664e-02 1.151599999999999985e-01 7.315699999999999981e-02 -2.456999999999999983e-03 -5.003999999999999768e-03 -9.236500000000000266e-02 -3.770740000000000203e-01 1.208970000000000045e-01 2.346679999999999877e-01 3.470199999999999674e-02 -6.628599999999999770e-02 3.111399999999999930e-02 -7.618700000000000472e-02 -2.052410000000000068e-01 7.618700000000000472e-02 8.316000000000000475e-03 3.741099999999999981e-02 -9.553999999999999992e-03 -7.606599999999999473e-02 1.928590000000000027e-01 4.351399999999999713e-02 1.745100000000000123e-02 -3.886200000000000071e-02 -5.143500000000000155e-02 1.177300000000000013e-01 -2.099090000000000122e-01 2.331419999999999881e-01 6.150599999999999817e-02 3.599019999999999997e-01 4.651899999999999785e-02 -8.781600000000000517e-02 9.553799999999999792e-02 1.081209999999999949e-01 -2.330639999999999934e-01 -3.849799999999999750e-02 -9.291000000000000647e-03 -5.328900000000000303e-02 -5.587000000000000299e-02 -1.568469999999999864e-01 -3.904599999999999738e-02 -8.683299999999999352e-02 -1.207899999999999946e-02 -2.744200000000000111e-02 1.383149999999999935e-01 -1.061320000000000041e-01 -1.000189999999999968e-01 -1.367900000000000019e-02 1.041599999999999991e-02 -9.667000000000000592e-02 -1.518300000000000032e-02 -1.168219999999999953e-01 4.875600000000000073e-02 1.192700000000000010e-02 2.221799999999999886e-01 -4.669700000000000240e-02 4.618200000000000083e-02 1.023450000000000054e-01 -1.706050000000000066e-01 9.611300000000000399e-02 -4.170700000000000102e-02 -5.346800000000000164e-02 1.969900000000000123e-02 1.254679999999999962e-01 2.438929999999999987e-01 1.139999999999999954e-03 2.528800000000000145e-02 4.309700000000000336e-02 -5.131600000000000050e-02 -4.523300000000000237e-02 5.530299999999999799e-02 -3.895499999999999657e-02 -1.377220000000000111e-01 1.946200000000000013e-02 1.270679999999999865e-01 1.114590000000000025e-01 1.912799999999999917e-02 -3.807800000000000074e-02 -1.535789999999999933e-01 -6.511400000000000521e-02 -2.065279999999999894e-01 7.439500000000000279e-02 9.247900000000000564e-02 1.131300000000000014e-02 1.089529999999999943e-01 6.872999999999999943e-02 -2.497999999999999873e-02 1.263819999999999943e-01 1.334380000000000011e-01 7.474699999999999400e-02 7.244999999999999704e-03 -1.300779999999999992e-01 8.088800000000000157e-02 1.123239999999999933e-01 1.729500000000000134e-02 1.850719999999999865e-01 -3.841200000000000170e-02 1.938819999999999988e-01 -4.489900000000000141e-02 4.412739999999999996e-01 3.976219999999999755e-01 -2.705989999999999784e-01 -2.483399999999999844e-02 -3.277149999999999785e-01 3.403599999999999681e-02 -8.644499999999999407e-02 2.975670000000000259e-01 6.102899999999999991e-02 -2.101520000000000055e-01 -2.846830000000000194e-01 -1.599869999999999903e-01 -1.517330000000000068e-01 2.469469999999999998e-01 -2.625319999999999876e-01 -1.415490000000000081e-01 1.713679999999999926e-01 -5.044499999999999679e-02 -1.462569999999999981e-01 1.030390000000000056e-01 -2.564529999999999865e-01 -1.517989999999999895e-01 -1.080440000000000011e-01 -7.881100000000000605e-02 8.470600000000000351e-02 1.086420000000000025e-01 1.580169999999999908e-01 2.978999999999999877e-03 -4.488099999999999729e-02 -1.154830000000000023e-01 -9.291000000000000647e-02 1.433069999999999899e-01 -4.517869999999999941e-01 1.547910000000000119e-01 9.959300000000000097e-02 2.816609999999999947e-01 -2.098879999999999912e-01 -1.370969999999999966e-01 3.869759999999999867e-01 -2.957779999999999854e-01 -9.146500000000000463e-02 -1.339730000000000087e-01 -3.274340000000000028e-01 -3.119900000000000104e-02 9.929000000000000326e-02 1.014940000000000009e-01 1.259049999999999891e-01 2.248110000000000108e-01 9.895099999999999729e-02 -1.016090000000000049e-01