-1.917751321338154957e+00 3.978249466723186791e-04 2.040516483290808036e+00 3.978249466723186791e-04 -2.258759632444817811e+00 1.265806648502831964e-04 2.040516483290808036e+00 1.265806648502831964e-04 -3.702846105913213393e-01
-1.913411412829002511e+00 -3.235040134530809547e-02 2.219845119479416429e+00 -3.235040134530809547e-02 -2.088291642795729430e+00 -5.578590729473194981e-02 2.219845119479416429e+00 -5.578590729473194981e-02 -1.532168533252070974e-01
-1.897227170680287678e+00 -6.428489479182239452e-02 2.398197276253465571e+00 -6.428489479182239452e-02 -1.906774969400423236e+00 -1.090582842445797229e-01 2.398197276253465571e+00 -1.090582842445797229e-01 8.381448308300895600e-02
-1.868619940424123715e+00 -9.524290882377738077e-02 2.575789949038413074e+00 -9.524290882377738077e-02 -1.714734017870422234e+00 -1.598352138016647384e-01 2.575789949038413074e+00 -1.598352138016647384e-01 3.383862830490499407e-01
-1.828566201475069652e+00 -1.250074480157153944e-01 2.752478474217286752e+00 -1.250074480157153944e-01 -1.514338742460302312e+00 -2.082432766308373318e-01 2.752478474217286752e+00 -2.082432766308373318e-01 6.073521129037803279e-01
-1.777861603726470507e+00 -1.534519317027862040e-01 2.928262851790087495e+00 -1.534519317027862040e-01 -1.307560184951304105e+00 -2.544271363490692162e-01 2.928262851790087495e+00 -2.544271363490692162e-01 8.878729491641292881e-01
-1.717717704970464609e+00 -1.804136133158965039e-01 3.103323911278028646e+00 -1.804136133158965039e-01 -1.096622548454367685e+00 -2.986942031424253963e-01 3.103323911278028646e+00 -2.986942031424253963e-01 1.176585362735503848e+00
-1.649418394807675936e+00 -2.057839951423175440e-01 3.277842482202326657e+00 -2.057839951423175440e-01 -8.840031974101349999e-01 -3.413157212927279138e-01 3.277842482202326657e+00 -3.413157212927279138e-01 1.469963177954217270e+00
-1.574536890072672835e+00 -2.294003306129561159e-01 3.452180223605409548e+00 -2.294003306129561159e-01 -6.720709985465179725e-01 -3.826533498424061208e-01 3.452180223605409548e+00 -3.826533498424061208e-01 1.764190891922639892e+00
-1.494555992839415204e+00 -2.512626197278121642e-01 3.626825375194557832e+00 -2.512626197278121642e-01 -4.633575651605224555e-01 -4.230868307860108923e-01 3.626825375194557832e+00 -4.230868307860108923e-01 2.055651914216477749e+00
-2.075566279658088220e+01 -2.899595673824894693e+00 -5.980452651376785056e+00 -2.899595673824894693e+00 2.281749183941898629e+00 1.143345173299996631e+01 -5.980452651376785056e+00 1.143345173299996631e+01 -1.386493533531521294e+01
-2.068993911562902710e+01 -2.896889189467389158e+00 -5.792095969739572858e+00 -2.896889189467389158e+00 2.421133128353435637e+00 1.156959886841637974e+01 -5.792095969739572858e+00 1.156959886841637974e+01 -1.359867579311736741e+01
-2.058614178310739362e+01 -2.892500295914677721e+00 -5.591706404945341546e+00 -2.892500295914677721e+00 2.577469174112322570e+00 1.167933949429064100e+01 -5.591706404945341546e+00 1.167933949429064100e+01 -1.327013053658395414e+01
-2.044412450256422886e+01 -2.886447280223229495e+00 -5.378899928808230868e+00 -2.886447280223229495e+00 2.750464728315043850e+00 1.176298449058274009e+01 -5.378899928808230868e+00 1.176298449058274009e+01 -1.288191461479013000e+01
-2.026498449738771157e+01 -2.878766716505984036e+00 -5.153731402497648162e+00 -2.878766716505984036e+00 2.938437381766394019e+00 1.182062529257502170e+01 -5.153731402497648162e+00 1.182062529257502170e+01 -1.243702710499691655e+01
-2.005007500975658985e+01 -2.869440317706471344e+00 -4.916109390731246975e+00 -2.869440317706471344e+00 3.139631577045288502e+00 1.185246305788865051e+01 -4.916109390731246975e+00 1.185246305788865051e+01 -1.193874139031237647e+01
-1.980100530064020248e+01 -2.858486370881161420e+00 -4.665777874718450846e+00 -2.858486370881161420e+00 3.352090599109476265e+00 1.185871723120126475e+01 -4.665777874718450846e+00 1.185871723120126475e+01 -1.139062344674808713e+01
-1.951964064979843982e+01 -2.845886588973584708e+00 -4.402462548612215087e+00 -2.845886588973584708e+00 3.573546852956722919e+00 1.183975355364225557e+01 -4.402462548612215087e+00 1.183975355364225557e+01 -1.079669642672737062e+01
-1.920790119816061647e+01 -2.831677546096680320e+00 -4.125687948944330330e+00 -2.831677546096680320e+00 3.801860752980082303e+00 1.179584633105866942e+01 -4.125687948944330330e+00 1.179584633105866942e+01 -1.016092862150413367e+01
-1.886781680899486346e+01 -2.815840955193979145e+00 -3.834832315794829416e+00 -2.815840955193979145e+00 4.034673268894970910e+00 1.172728815635401745e+01 -3.834832315794829416e+00 1.172728815635401745e+01 -9.487361470558168364e+00
2.817328764512511441e+01 -1.380122893218449276e+00 -1.203470417392720826e+01 -1.380122893218449276e+00 -5.661956468808092557e-01 -1.962948359448774127e+01 -1.203470417392720826e+01 -1.962948359448774127e+01 3.562072990850476373e+01
2.784387501423235278e+01 -1.385429153381026124e+00 -1.206611723408966341e+01 -1.385429153381026124e+00 -7.385252894274252355e-01 -1.964271386982643008e+01 -1.206611723408966341e+01 -1.964271386982643008e+01 3.499085913967303441e+01
2.744953144648352961e+01 -1.390717726009727651e+00 -1.205354139750435571e+01 -1.390717726009727651e+00 -9.484940040605852607e-01 -1.961114162185910104e+01 -1.205354139750435571e+01 -1.961114162185910104e+01 3.421301446244091693e+01
2.699363526084881215e+01 -1.395740985630300024e+00 -1.199740116498429465e+01 -1.395740985630300024e+00 -1.195182039018776177e+00 -1.953517366386487808e+01 -1.199740116498429465e+01 -1.953517366386487808e+01 3.329292663778399231e+01
2.647938790095962958e+01 -1.400375119505617327e+00 -1.189847478801998903e+01 -1.400375119505617327e+00 -1.478076455819615331e+00 -1.941516374652126586e+01 -1.189847478801998903e+01 -1.941516374652126586e+01 3.223611417627134301e+01
2.591007924811677654e+01 -1.404443252296925904e+00 -1.175782351864395636e+01 -1.404443252296925904e+00 -1.796929628988849226e+00 -1.925155405817515231e+01 -1.175782351864395636e+01 -1.925155405817515231e+01 3.104844933914954908e+01
2.528914068389205028e+01 -1.407768508665474094e+00 -1.157677392189684085e+01 -1.407768508665474094e+00 -2.151370120315097889e+00 -1.904508747524929291e+01 -1.157677392189684085e+01 -1.904508747524929291e+01 2.973617582587657893e+01
2.462039271560250597e+01 -1.410156325738633587e+00 -1.135693556336128651e+01 -1.410156325738633587e+00 -2.540849616248227694e+00 -1.879668374950520260e+01 -1.135693556336128651e+01 -1.879668374950520260e+01 2.830661627547679515e+01
2.390770891316683233e+01 -1.411482890779277799e+00 -1.110023638422970116e+01 -1.411482890779277799e+00 -2.965049741178484410e+00 -1.850742182050927198e+01 -1.110023638422970116e+01 -1.850742182050927198e+01 2.676728788984716445e+01
2.315533428471507804e+01 -1.411553640914778862e+00 -1.080878120103323958e+01 -1.411553640914778862e+00 -3.422909243073352759e+00 -1.817861056576826684e+01 -1.080878120103323958e+01 -1.817861056576826684e+01 2.512662762264620042e+01
1.401383992969603476e+01 8.331895949509167565e+00 -1.421184593971779897e+01 8.331895949509167565e+00 -1.418342958812355725e+01 -9.095430961910951240e+00 -1.421184593971779897e+01 -9.095430961910951240e+00 -2.403774429261012813e+01
1.405163149703364311e+01 8.399212178829284170e+00 -1.409830771650014292e+01 8.399212178829284170e+00 -1.418759029433524788e+01 -8.885160861527221954e+00 -1.409830771650014292e+01 -8.885160861527221954e+00 -2.401483315491170245e+01
1.411980167042340817e+01 8.456789811950864433e+00 -1.395433638016205791e+01 8.456789811950864433e+00 -1.414549266860388066e+01 -8.656867090567095246e+00 -1.395433638016205791e+01 -8.656867090567095246e+00 -2.390125859364852801e+01
1.421825960475153749e+01 8.504338144509770103e+00 -1.377995009972629958e+01 8.504338144509770103e+00 -1.405673699242877284e+01 -8.410186268575397861e+00 -1.377995009972629958e+01 -8.410186268575397861e+00 -2.369827427139094311e+01
1.434595149669803860e+01 8.541548303119109065e+00 -1.357514887519286795e+01 8.541548303119109065e+00 -1.392219537890233205e+01 -8.145245578711442391e+00 -1.357514887519286795e+01 -8.145245578711442391e+00 -2.340762441432375951e+01
1.450162368369257671e+01 8.568165921460261458e+00 -1.334005988972107382e+01 8.568165921460261458e+00 -1.374299430743557870e+01 -7.862390232407640234e+00 -1.334005988972107382e+01 -7.862390232407640234e+00 -2.303178000954212479e+01
1.468369546075516929e+01 8.584027478328403404e+00 -1.307473765037919122e+01 8.584027478328403404e+00 -1.352053279278091757e+01 -7.561892765005368666e+00 -1.307473765037919122e+01 -7.561892765005368666e+00 -2.257370260775567772e+01
1.489038626365547913e+01 8.589042128609738924e+00 -1.277927300228101259e+01 8.589042128609738924e+00 -1.325640970894109572e+01 -7.244134725982553036e+00 -1.277927300228101259e+01 -7.244134725982553036e+00 -2.203669897110644982e+01
1.511967933086732430e+01 8.583173534258754955e+00 -1.245373862151757294e+01 8.583173534258754955e+00 -1.295246012721471374e+01 -6.909588509930913780e+00 -1.245373862151757294e+01 -6.909588509930913780e+00 -2.142454825632820459e+01
1.536961240793278272e+01 8.566421695275449721e+00 -1.209820718417990548e+01 8.566421695275449721e+00 -1.261066447108244759e+01 -6.558672004373897302e+00 -1.209820718417990548e+01 -6.558672004373897302e+00 -2.074113863429125715e+01
-4.872418653405504330e+01 -1.159182807549975180e+01 1.760478337955605355e+01 -1.159182807549975180e+01 -2.629090910946890247e+01 1.416276018875834453e+01 1.760478337955605355e+01 1.416276018875834453e+01 -5.674627958719533183e+01
-4.870288210453126254e+01 -1.162376559552193278e+01 1.748716915911508707e+01 -1.162376559552193278e+01 -2.624939033344006489e+01 1.406140159228076492e+01 1.748716915911508707e+01 1.406140159228076492e+01 -5.666915143255494058e+01
-4.860615157981737156e+01 -1.165256673633235351e+01 1.735469538594523797e+01 -1.165256673633235351e+01 -2.614196934543731743e+01 1.394480095780457596e+01 1.735469538594523797e+01 1.394480095780457596e+01 -5.639466087873556432e+01
-4.843322998937392754e+01 -1.167821237366753095e+01 1.720728556299255985e+01 -1.167821237366753095e+01 -2.596782380213074148e+01 1.381295828532977588e+01 1.720728556299255985e+01 1.381295828532977588e+01 -5.592341990216876013e+01
-4.818516916769266345e+01 -1.170087462589883920e+01 1.704516918141889192e+01 -1.170087462589883920e+01 -2.572777604685025210e+01 1.366598832043728429e+01 1.704516918141889192e+01 1.366598832043728429e+01 -5.525749392331105980e+01
-4.786313569484624963e+01 -1.172055349302627825e+01 1.686857573238606633e+01 -1.172055349302627825e+01 -2.542293528687805804e+01 1.350404405723499224e+01 1.686857573238606633e+01 1.350404405723499224e+01 -5.440007669416467451e+01
-4.746869776044057687e+01 -1.173722985078636327e+01 1.667775383131940714e+01 -1.173722985078636327e+01 -2.505485058755655103e+01 1.332718286851335776e+01 1.667775383131940714e+01 1.332718286851335776e+01 -5.335562416812192055e+01
-4.700395903345912529e+01 -1.175090369917909250e+01 1.647300946643469644e+01 -1.175090369917909250e+01 -2.462554912081528258e+01 1.313557687264375851e+01 1.647300946643469644e+01 1.313557687264375851e+01 -5.212995012128265415e+01
-4.646891951390190911e+01 -1.176147941688703824e+01 1.625535622369670463e+01 -1.176147941688703824e+01 -2.413518388076214549e+01 1.292993366737518812e+01 1.625535622369670463e+01 1.292993366737518812e+01 -5.072703240045203188e+01
-4.587170701375060844e+01 -1.176884225832927733e+01 1.602410562961993179e+01 -1.176884225832927733e+01 -2.359188267937883055e+01 1.270943090937773512e+01 1.602410562961993179e+01 1.270943090937773512e+01 -4.916153931572405611e+01
-4.987718135187377300e+01 6.694144931589431913e+00 -2.119624791670179142e+00 6.694144931589431913e+00 -4.281589310989201635e+01 -5.682401655704995669e+00 -2.119624791670179142e+00 -5.682401655704995669e+00 -5.282359115500288027e+01
-4.974441351816390977e+01 6.700962426967048913e+00 -2.125383071664268098e+00 6.700962426967048913e+00 -4.275299497457196907e+01 -5.598415505021983485e+00 -2.125383071664268098e+00 -5.598415505021983485e+00 -5.253719857375842395e+01
-4.953796281068354546e+01 6.706046660807983173e+00 -2.126384511663240051e+00 6.706046660807983173e+00 -4.262134413163019531e+01 -5.508748108190957282e+00 -2.126384511663240051e+00 -5.508748108190957282e+00 -5.205897245732628420e+01
-4.925834920789367288e+01 6.709320599266161089e+00 -2.122706145513169940e+00 6.709320599266161089e+00 -4.242140278414314736e+01 -5.413206880596731274e+00 -2.122706145513169940e+00 -5.413206880596731274e+00 -5.139295708262539364e+01
-4.890672821748540855e+01 6.710707208495506393e+00 -2.114251680906464870e+00 6.710707208495506393e+00 -4.215424940595586634e+01 -5.311657013008672656e+00 -2.114251680906464870e+00 -5.311657013008672656e+00 -5.054184863426836216e+01
-4.848467903330329420e+01 6.710033162342352142e+00 -2.101059634766161199e+00 6.710033162342352142e+00 -4.182134764014377026e+01 -5.204021471580707825e+00 -2.101059634766161199e+00 -5.204021471580707825e+00 -4.950974916455866293e+01
-4.799443563688349457e+01 6.707125134653029619e+00 -2.083072231707703725e+00 6.707125134653029619e+00 -4.142481591747392144e+01 -5.090107671697650993e+00 -2.083072231707703725e+00 -5.090107671697650993e+00 -4.830249398733647581e+01
-4.743904086514595519e+01 6.701752023889315346e+00 -2.060250954808054757e+00 6.701752023889315346e+00 -4.096733116409740916e+01 -4.969819321051905270e+00 -2.060250954808054757e+00 -4.969819321051905270e+00 -4.692684282259484974e+01
-4.682217308424076663e+01 6.693644211589946380e+00 -2.032634320990251986e+00 6.693644211589946380e+00 -4.045222509385698118e+01 -4.843002351951325224e+00 -2.032634320990251986e+00 -4.843002351951325224e+00 -4.539169307955543076e+01
-4.614733733416431249e+01 6.682512820832142708e+00 -2.000260847177332213e+00 6.682512820832142708e+00 -3.988281016213384333e+01 -4.709772315165019485e+00 -2.000260847177332213e+00 -4.709772315165019485e+00 -4.370794504743778930e+01
3.547874532525069924e+01 3.453249304602503678e+00 -2.146496184918971650e+01 3.453249304602503678e+00 2.106748665373649843e+01 5.880779426990664582e+00 -2.146496184918971650e+01 5.880779426990664582e+00 -1.956320754721724509e+00
3.534977646786655470e+01 3.349391918222522690e+00 -2.145984459564474989e+01 3.349391918222522690e+00 2.109695922054531181e+01 5.898329320591615854e+00 -2.145984459564474989e+01 5.898329320591615854e+00 -2.081825354551376073e+00
3.522437737841926975e+01 3.243178133302934807e+00 -2.140867206019508373e+01 3.243178133302934807e+00 2.114188905837139743e+01 5.903903785793521486e+00 -2.140867206019508373e+01 5.903903785793521486e+00 -2.197113032354823137e+00
3.510246013159021317e+01 3.135645468603716512e+00 -2.131165526360545215e+01 3.135645468603716512e+00 2.120141449909205988e+01 5.896729079792330630e+00 -2.131165526360545215e+01 5.896729079792330630e+00 -2.303080626382212781e+00
3.498409506763429988e+01 3.027866613012300423e+00 -2.116895247144941550e+01 3.027866613012300423e+00 2.127470904471206481e+01 5.876136970166363938e+00 -2.116895247144941550e+01 5.876136970166363938e+00 -2.400290858672855521e+00
3.486875463463966440e+01 2.920967010607304459e+00 -2.098058126879070429e+01 2.920967010607304459e+00 2.135999660379484766e+01 5.841529564748856096e+00 -2.098058126879070429e+01 5.841529564748856096e+00 -2.490414310280949284e+00
3.475564750473854048e+01 2.816072105467347431e+00 -2.074647131537440004e+01 2.816072105467347431e+00 2.145543074464891831e+01 5.792414481755411515e+00 -2.074647131537440004e+01 5.792414481755411515e+00 -2.575455678471533005e+00
3.464375374423467235e+01 2.714272171543590240e+00 -2.046632366511712320e+01 2.714272171543590240e+00 2.155809234669537133e+01 5.728281754337904985e+00 -2.046632366511712320e+01 5.728281754337904985e+00 -2.657824116975398887e+00
3.453245787589757754e+01 2.616305781512626272e+00 -2.014010314789141631e+01 2.616305781512626272e+00 2.166764729372335196e+01 5.648920361731597062e+00 -2.014010314789141631e+01 5.648920361731597062e+00 -2.740034289905708853e+00
3.442031792450151784e+01 2.523192869070702837e+00 -1.976724704165797064e+01 2.523192869070702837e+00 2.178080717881566386e+01 5.553996187725648070e+00 -1.976724704165797064e+01 5.553996187725648070e+00 -2.825128413287477880e+00
-1.316643517926783780e+01 -7.555565167758224732e+00 -1.082579051721290142e+01 -7.555565167758224732e+00 -3.369839998602962083e+01 -3.335667680051153550e+00 -1.082579051721290142e+01 -3.335667680051153550e+00 -4.399743123447569104e+01
-1.306193342045269112e+01 -7.630351052851880311e+00 -1.080852647463494698e+01 -7.630351052851880311e+00 -3.363145969078429687e+01 -3.432286399901746332e+00 -1.080852647463494698e+01 -3.432286399901746332e+00 -4.377472134030845297e+01
-1.289904848944875582e+01 -7.700455798417892517e+00 -1.076989771125282047e+01 -7.700455798417892517e+00 -3.349495766215817127e+01 -3.529391958263214057e+00 -1.076989771125282047e+01 -3.529391958263214057e+00 -4.338805921532497223e+01
-1.267867916504533810e+01 -7.765841955340036407e+00 -1.071040979013550754e+01 -7.765841955340036407e+00 -3.328958670880132331e+01 -3.626553690299013422e+00 -1.071040979013550754e+01 -3.626553690299013422e+00 -4.284010374677696120e+01
-1.240232341189128995e+01 -7.826715493757532727e+00 -1.063058699891010406e+01 -7.826715493757532727e+00 -3.301632050773552152e+01 -3.723060062800942038e+00 -1.063058699891010406e+01 -3.723060062800942038e+00 -4.213364489382288980e+01
-1.207181623668144432e+01 -7.883057689112266786e+00 -1.053106597255237276e+01 -7.883057689112266786e+00 -3.267656340081905597e+01 -3.818124644328356521e+00 -1.053106597255237276e+01 -3.818124644328356521e+00 -4.127253991543354061e+01
-1.168962928108639687e+01 -7.934887265962352387e+00 -1.041250207059618127e+01 -7.934887265962352387e+00 -3.227203804739808390e+01 -3.910886105208169372e+00 -1.041250207059618127e+01 -3.910886105208169372e+00 -4.026173209495010497e+01
-1.125849633059029387e+01 -7.982091876959125365e+00 -1.027558810169161951e+01 -7.982091876959125365e+00 -3.180493522077155433e+01 -4.000389492976741401e+00 -1.027558810169161951e+01 -4.000389492976741401e+00 -3.910689497348008103e+01
-1.078126351802594129e+01 -8.024521725637699276e+00 -1.012109177272122373e+01 -8.024521725637699276e+00 -3.127737079600596459e+01 -4.085586232379880833e+00 -1.012109177272122373e+01 -4.085586232379880833e+00 -3.781398296050264918e+01
-1.026133871296946865e+01 -8.062008290975079206e+00 -9.950099108055409758e+00 -8.062008290975079206e+00 -3.069249049886389358e+01 -4.165334125372840646e+00 -9.950099108055409758e+00 -4.165334125372840646e+00 -3.639160935274866659e+01
-3.428800381088689875e+01 1.146845238122781119e+01 1.191133543040696097e+01 1.146845238122781119e+01 3.932069990978804164e+00 -1.022281015521122072e+01 1.191133543040696097e+01 -1.022281015521122072e+01 -3.967983341233767902e+01
-3.423390357172076648e+01 1.146654012157300428e+01 1.185693814119736444e+01 1.146654012157300428e+01 3.907247746721730142e+00 -1.048098377423805871e+01 1.185693814119736444e+01 -1.048098377423805871e+01 -3.963923038452150394e+01
-3.411291137589178390e+01 1.146193584589929060e+01 1.179297955371372808e+01 1.146193584589929060e+01 3.922861439631377678e+00 -1.072133439065697580e+01 1.179297955371372808e+01 -1.072133439065697580e+01 -3.945535640761644203e+01
-3.392348627629946378e+01 1.145454672606808977e+01 1.171921831479573228e+01 1.145454672606808977e+01 3.980025007370744827e+00 -1.094404766074513802e+01 1.171921831479573228e+01 -1.094404766074513802e+01 -3.912694901893776489e+01
-3.366638946368018281e+01 1.144433563082396610e+01 1.163548733379393241e+01 1.144433563082396610e+01 4.078014390458883476e+00 -1.114884510008679186e+01 1.163548733379393241e+01 -1.114884510008679186e+01 -3.865569769060766703e+01
-3.334230786625946763e+01 1.143132112579464099e+01 1.154150812629257494e+01 1.143132112579464099e+01 4.216179791925713793e+00 -1.133544822426619447e+01 1.154150812629257494e+01 -1.133544822426619447e+01 -3.804342185414239452e+01
-3.295235542170030385e+01 1.141550321098010912e+01 1.143698364224820097e+01 1.141550321098010912e+01 4.393630061640838136e+00 -1.150348572072900843e+01 1.143698364224820097e+01 -1.150348572072900843e+01 -3.729272069742225426e+01
-3.249781315831513950e+01 1.139686332075265973e+01 1.132152400347875520e+01 1.139686332075265973e+01 4.609418352590711976e+00 -1.165271623631492481e+01 1.132152400347875520e+01 -1.165271623631492481e+01 -3.640669468027592615e+01
-3.198035198259846723e+01 1.137529006134598575e+01 1.119472076617447520e+01 1.137529006134598575e+01 4.862263636462890837e+00 -1.178284272098047225e+01 1.119472076617447520e+01 -1.178284272098047225e+01 -3.538907549387444362e+01
-3.140177276043879218e+01 1.135080199838781034e+01 1.105610978964244673e+01 1.135080199838781034e+01 5.150922016200362386e+00 -1.189366095282077040e+01 1.105610978964244673e+01 -1.189366095282077040e+01 -3.424404040445401876e+01
-6.210453700215250450e+00 4.621653796509002099e+00 -7.252449570543567425e+00 4.621653796509002099e+00 3.077274255019976934e+01 2.674028788313249638e-01 -7.252449570543567425e+00 2.674028788313249638e-01 4.902677303344002091e+00
-6.220811795595008853e+00 4.587994443536567601e+00 -7.440000626300987463e+00 4.587994443536567601e+00 3.069246285399485785e+01 1.776386615557918325e-01 -7.440000626300987463e+00 1.776386615557918325e-01 4.783639432688841175e+00
-6.210578496545126725e+00 4.551803507872350885e+00 -7.607477300995399538e+00 4.551803507872350885e+00 3.059239402548094233e+01 8.669779316999354224e-02 -7.607477300995399538e+00 8.669779316999354224e-02 4.650606545040375295e+00
-6.179789459159854559e+00 4.513437550458855974e+00 -7.755182671427929719e+00 4.513437550458855974e+00 3.047319570240165376e+01 -5.170133666316702702e-03 -7.755182671427929719e+00 -5.170133666316702702e-03 4.504238278142237206e+00
-6.129300429701202368e+00 4.473270960285712583e+00 -7.883188049787080764e+00 4.473270960285712583e+00 3.033506399327537295e+01 -9.753724582213339767e-02 -7.883188049787080764e+00 -9.753724582213339767e-02 4.344605944182927004e+00
-6.060430683656439221e+00 4.431695954389676118e+00 -7.991582576308479346e+00 4.431695954389676118e+00 3.017796324200784852e+01 -1.899043579779500779e-01 -7.991582576308479346e+00 -1.899043579779500779e-01 4.171281670031441458e+00
-5.975069994020838493e+00 4.389051265666125801e+00 -8.080455391227751250e+00 4.389051265666125801e+00 3.000142991937381964e+01 -2.817901128613855555e-01 -8.080455391227751250e+00 -2.817901128613855555e-01 3.982999664341886792e+00
-5.875090305742548757e+00 4.345729111151817037e+00 -8.149913462827646171e+00 4.345729111151817037e+00 2.980505398028941144e+01 -3.728022934356847173e-01 -8.149913462827646171e+00 -3.728022934356847173e-01 3.778672416239626131e+00
-5.762773608853598795e+00 4.302014739600753757e+00 -8.199992447202419044e+00 4.302014739600753757e+00 2.958830058334086033e+01 -4.626021668054682845e-01 -8.199992447202419044e+00 -4.626021668054682845e-01 3.556517121012134908e+00
-5.640508861668771523e+00 4.258264711955439097e+00 -8.230763656540565520e+00 4.258264711955439097e+00 2.935027832617192090e+01 -5.508153439811064311e-01 -8.230763656540565520e+00 -5.508153439811064311e-01 3.314554865428513075e+00
2.528624626513581930e+01 -6.713802687636499122e+00 2.195174620991393155e+01 -6.713802687636499122e+00 -2.287572130347234722e+00 -1.039086135676643252e+01 2.195174620991393155e+01 -1.039086135676643252e+01 3.226302991065505665e+00
2.517100140408930287e+01 -6.664218314072748228e+00 2.186333650462124112e+01 -6.664218314072748228e+00 -2.210599482792710901e+00 -1.031228288207238464e+01 2.186333650462124112e+01 -1.031228288207238464e+01 3.153576864168833982e+00
2.505097474667175561e+01 -6.604606442148857504e+00 2.173285412827301499e+01 -6.604606442148857504e+00 -2.118014626937257727e+00 -1.021031285871260152e+01 2.173285412827301499e+01 -1.021031285871260152e+01 3.081510910651744872e+00
2.492696920645294867e+01 -6.535359607387821512e+00 2.156060240377339454e+01 -6.535359607387821512e+00 -2.009871090352192802e+00 -1.008491560163953871e+01 2.156060240377339454e+01 -1.008491560163953871e+01 3.010765303893820466e+00
2.479894909838532868e+01 -6.456923872883953308e+00 2.134711660683554513e+01 -6.456923872883953308e+00 -1.887631959986860508e+00 -9.936305221138463040e+00 2.134711660683554513e+01 -9.936305221138463040e+00 2.940893980800747265e+00
2.466687873742135295e+01 -6.369798829302882659e+00 2.109311043841037048e+01 -6.369798829302882659e+00 -1.752956590552102067e+00 -9.764945622827465144e+00 2.109311043841037048e+01 -9.764945622827465144e+00 2.871076185278992110e+00
2.453024069037162036e+01 -6.274591122452872760e+00 2.079926191440122452e+01 -6.274591122452872760e+00 -1.607968242376844215e+00 -9.571229342229536030e+00 2.079926191440122452e+01 -9.571229342229536030e+00 2.799759617760347652e+00
2.438867810676068260e+01 -6.172014453284824675e+00 2.046642747594918532e+01 -6.172014453284824675e+00 -1.454986443551510522e+00 -9.355691655057849943e+00 2.046642747594918532e+01 -9.355691655057849943e+00 2.725249238486427306e+00
2.424142375806631833e+01 -6.062782522749638581e+00 2.009533866652892797e+01 -6.062782522749638581e+00 -1.296473462356705131e+00 -9.118885679549356027e+00 2.009533866652892797e+01 -9.118885679549356027e+00 2.645457472175849478e+00
2.408772825829008468e+01 -5.947644716845757351e+00 1.968686976980530190e+01 -5.947644716845757351e+00 -1.135016464739438291e+00 -8.861328848893455401e+00 1.968686976980530190e+01 -8.861328848893455401e+00 2.558100475785736183e+00
-2.072926102639689461e+01 -9.383996314467790256e+00 1.161260419778126263e+01 -9.383996314467790256e+00 8.345121592921575626e+00 -1.324592891429141872e+01 1.161260419778126263e+01 -1.324592891429141872e+01 2.229870319774441256e+01
-2.062042342677050044e+01 -9.547605906317555124e+00 1.163490060070023269e+01 -9.547605906317555124e+00 8.480512016820279442e+00 -1.330598973645169814e+01 1.163490060070023269e+01 -1.330598973645169814e+01 2.259581952063863852e+01
-2.051428457940643213e+01 -9.699659767003790733e+00 1.164191011160977141e+01 -9.699659767003790733e+00 8.572124694289128044e+00 -1.333080376732008965e+01 1.164191011160977141e+01 -1.333080376732008965e+01 2.281526973815792658e+01
-2.041258327770860959e+01 -9.838799464179690091e+00 1.163312558243373473e+01 -9.838799464179690091e+00 8.618619305412602571e+00 -1.332031666960271821e+01 1.163312558243373473e+01 -1.332031666960271821e+01 2.295283365381152763e+01
-2.031702209021836580e+01 -9.963793352517475554e+00 1.160796741537081722e+01 -9.963793352517475554e+00 8.618854767019383800e+00 -1.327445599357442241e+01 1.160796741537081722e+01 -1.327445599357442241e+01 2.300597552721872319e+01
-2.022973828382801997e+01 -1.007362713586486613e+01 1.156596468720746174e+01 -1.007362713586486613e+01 8.571617546212985772e+00 -1.319323985166649038e+01 1.156596468720746174e+01 -1.319323985166649038e+01 2.297208716827364228e+01
-2.015314081189924167e+01 -1.016741330508861019e+01 1.150662836229881236e+01 -1.016741330508861019e+01 8.475694110096927858e+00 -1.307677691846666868e+01 1.150662836229881236e+01 -1.307677691846666868e+01 2.284868717388944859e+01
-2.008971107751887430e+01 -1.024444547536836758e+01 1.142950562986260188e+01 -1.024444547536836758e+01 8.329798476049560918e+00 -1.292515775613141216e+01 1.142950562986260188e+01 -1.292515775613141216e+01 2.263333036584187496e+01
-2.004220217024311523e+01 -1.030427083592186754e+01 1.133416179154784764e+01 -1.030427083592186754e+01 8.132735223605696007e+00 -1.273856348897362700e+01 1.133416179154784764e+01 -1.273856348897362700e+01 2.232353534104409576e+01
-2.001331284233429386e+01 -1.034654525055458762e+01 1.122008969927841093e+01 -1.034654525055458762e+01 7.883399494456591050e+00 -1.251704845428718471e+01 1.122008969927841093e+01 -1.251704845428718471e+01 2.191687503370313195e+01
9.276460911156268807e+00 -5.916153702775556411e+00 -1.244970749591679215e+01 -5.916153702775556411e+00 -1.177281539778624797e+01 5.783165148579072934e+00 -1.244970749591679215e+01 5.783165148579072934e+00 -2.449413819298781547e+01
9.209039060717762126e+00 -5.986067269833992732e+00 -1.249797768503570161e+01 -5.986067269833992732e+00 -1.184833078031138420e+01 5.835054692496273177e+00 -1.249797768503570161e+01 5.835054692496273177e+00 -2.469711306509295312e+01
9.171863376256929712e+00 -6.049960704036980275e+00 -1.251945737356223987e+01 -6.049960704036980275e+00 -1.187639442078255136e+01 5.873921834224649530e+00 -1.251945737356223987e+01 5.873921834224649530e+00 -2.480545726877846135e+01
9.165552240000613082e+00 -6.107561189696207649e+00 -1.251423750005917768e+01 -6.107561189696207649e+00 -1.185647887553567692e+01 5.899948450889743512e+00 -1.251423750005917768e+01 5.899948450889743512e+00 -2.481909805319413209e+01
9.189832836260501736e+00 -6.158632286548467505e+00 -1.248229987681396125e+01 -6.158632286548467505e+00 -1.178885696025907315e+01 5.913316419617097530e+00 -1.248229987681396125e+01 5.913316419617097530e+00 -2.473838098487848569e+01
9.243959468821872250e+00 -6.202937554330556047e+00 -1.242364450382659058e+01 -6.202937554330556047e+00 -1.167454718685577753e+01 5.914262180669918045e+00 -1.242364450382659058e+01 5.914262180669918045e+00 -2.456508845966184396e+01
9.326986376631904108e+00 -6.240222365066715682e+00 -1.233814406710918377e+01 -6.240222365066715682e+00 -1.151473175664181348e+01 5.902967611173743911e+00 -1.233814406710918377e+01 5.902967611173743911e+00 -2.430125750135027474e+01
9.437895047787559832e+00 -6.270323029343956023e+00 -1.222570762809897360e+01 -6.270323029343956023e+00 -1.131068380949597696e+01 5.879723714529446532e+00 -1.222570762809897360e+01 5.879723714529446532e+00 -2.394930707571349160e+01
9.575576031823032963e+00 -6.292948543761409219e+00 -1.208613512195785944e+01 -6.292948543761409219e+00 -1.106384017471005343e+01 5.844803306425337297e+00 -1.208613512195785944e+01 5.844803306425337297e+00 -2.351174708708397532e+01
9.738919878272515263e+00 -6.307935218906090213e+00 -1.191911735757242319e+01 -6.307935218906090213e+00 -1.077563768157582480e+01 5.798442827124620891e+00 -1.191911735757242319e+01 5.798442827124620891e+00 -2.299126931691975528e+01