-3.431980838499999891e+02
-3.431952586400000200e+02
-3.431867175799999927e+02
-3.431726830599999971e+02
-3.431535268100000167e+02
-3.431297464200000036e+02
-3.431019459400000073e+02
-3.430708058000000165e+02
-3.430370551899999896e+02
-3.430014485799999875e+02
-3.429401123600000005e+02
-3.429429319299999861e+02
-3.429411842200000251e+02
-3.429350249600000211e+02
-3.429247259399999734e+02
-3.429106701800000110e+02
-3.428933260399999767e+02
-3.428732260599999790e+02
-3.428509478899999863e+02
-3.428270953499999791e+02
-3.424416029999999864e+02
-3.424431295200000136e+02
-3.424426448300000061e+02
-3.424402160099999719e+02
-3.424359613299999978e+02
-3.424300434500000279e+02
-3.424226596600000221e+02
-3.424140449899999794e+02
-3.424044478700000127e+02
-3.423941394899999864e+02
-3.424090880499999798e+02
-3.424119694099999833e+02
-3.424114991700000132e+02
-3.424078208500000073e+02
-3.424012048399999912e+02
-3.423920205300000248e+02
-3.423807143799999722e+02
-3.423677989000000252e+02
-3.423538024999999720e+02
-3.423392621099999928e+02
-3.423996947100000057e+02
-3.424046743200000265e+02
-3.424076301200000216e+02
-3.424085929699999724e+02
-3.424076494500000081e+02
-3.424049496399999839e+02
-3.424006918200000200e+02
-3.423951168699999812e+02
-3.423884955300000001e+02
-3.423811244299999998e+02
-3.418588424000000145e+02
-3.418684761100000173e+02
-3.418797699599999760e+02
-3.418926208999999972e+02
-3.419069384399999763e+02
-3.419226503699999853e+02
-3.419397069099999840e+02
-3.419580773600000043e+02
-3.419777571199999784e+02
-3.419987506699999926e+02
-3.422077232799999820e+02
-3.422061583400000018e+02
-3.421999034500000221e+02
-3.421891369300000179e+02
-3.421741797399999996e+02
-3.421554770399999938e+02
-3.421335776000000237e+02
-3.421091126200000190e+02
-3.420827720899999917e+02
-3.420552791100000150e+02
-3.427392909299999815e+02
-3.427395390400000110e+02
-3.427373227499999757e+02
-3.427327216599999815e+02
-3.427259106100000281e+02
-3.427171398400000157e+02
-3.427067197599999986e+02
-3.426950131500000225e+02
-3.426824060000000145e+02
-3.426693015700000160e+02
-3.423908515499999794e+02
-3.423923207000000275e+02
-3.423900032999999894e+02
-3.423839638200000195e+02
-3.423744017600000120e+02
-3.423616310500000282e+02
-3.423460708499999896e+02
-3.423282275700000241e+02
-3.423086617100000240e+02
-3.422879721900000050e+02
-3.423741480799999977e+02
-3.423800103699999795e+02
-3.423833752099999970e+02
-3.423842528100000209e+02
-3.423827537700000221e+02
-3.423790858699999831e+02
-3.423735508199999913e+02
-3.423665255099999740e+02
-3.423584553599999936e+02
-3.423498351399999819e+02
-3.418428725300000224e+02
-3.418384122300000172e+02
-3.418360992600000259e+02
-3.418359537900000191e+02
-3.418380457200000251e+02
-3.418424796300000139e+02
-3.418493947399999797e+02
-3.418589389200000141e+02
-3.418712623900000267e+02
-3.418864816899999823e+02
-3.416682762699999785e+02
-3.416743382299999894e+02
-3.416831777900000020e+02
-3.416946938099999898e+02
-3.417087786499999993e+02
-3.417253087600000185e+02
-3.417441512699999748e+02
-3.417651636300000177e+02
-3.417881958899999972e+02
-3.418130916499999898e+02
-3.423966047700000104e+02
-3.423930239100000108e+02
-3.423857018900000071e+02
-3.423747632000000181e+02
-3.423604566000000204e+02
-3.423431375700000103e+02
-3.423232480500000179e+02
-3.423012970300000006e+02
-3.422778423500000144e+02
-3.422534643299999857e+02
-3.426281259699999850e+02
-3.426323761500000273e+02
-3.426343156400000112e+02
-3.426339824799999860e+02
-3.426314801199999920e+02
-3.426269802200000072e+02
-3.426207036299999800e+02
-3.426129167400000028e+02
-3.426039268499999935e+02
-3.425940624899999989e+02
-3.424238050000000158e+02
-3.424223204300000134e+02
-3.424175892900000235e+02
-3.424097459000000185e+02
-3.423990173500000083e+02
-3.423857108000000267e+02
-3.423702055399999722e+02
-3.423529375699999946e+02
-3.423343847799999935e+02
-3.423150539900000240e+02
-3.421980073700000275e+02
-3.422031023800000185e+02
-3.422060485599999993e+02
-3.422069809800000257e+02
-3.422061077600000090e+02
-3.422036987299999851e+02
-3.422000755299999923e+02
-3.421955863900000168e+02
-3.421905984699999976e+02
-3.421854791800000157e+02
-3.425743322999999805e+02
-3.425934351099999731e+02
-3.426113466099999982e+02
-3.426278657899999871e+02
-3.426429085400000076e+02
-3.426564945200000238e+02
-3.426687386199999992e+02
-3.426798324800000159e+02
-3.426900170800000183e+02
-3.426995615000000157e+02
-3.430492027899999812e+02
-3.430482537699999739e+02
-3.430425514600000270e+02
-3.430323328599999968e+02
-3.430179693800000109e+02
-3.429999536000000262e+02
-3.429788688599999773e+02
-3.429553783399999816e+02
-3.429301883900000121e+02
-3.429040270400000168e+02
-3.411311627200000203e+02
-3.411550570399999742e+02
-3.411832709000000250e+02
-3.412154283300000088e+02
-3.412512113299999896e+02
-3.412903450100000100e+02
-3.413325942700000155e+02
-3.413777292999999986e+02
-3.414255049000000213e+02
-3.414756464100000244e+02
-3.418420440599999779e+02
-3.418404258200000072e+02
-3.418369137600000158e+02
-3.418316278600000260e+02
-3.418247347999999874e+02
-3.418164475300000049e+02
-3.418070230299999821e+02
-3.417967596299999968e+02
-3.417859699900000123e+02
-3.417749872900000128e+02
-3.416009937900000182e+02
-3.416065018400000213e+02
-3.416122689100000116e+02
-3.416182148699999743e+02
-3.416242804799999817e+02
-3.416304222300000220e+02
-3.416366194400000040e+02
-3.416428709200000071e+02
-3.416491955700000176e+02
-3.416556267600000183e+02
-3.428267078200000242e+02
-3.428194493600000214e+02
-3.428078950099999815e+02
-3.427923444900000050e+02
-3.427732293000000254e+02
-3.427510946599999784e+02
-3.427265672699999755e+02
-3.427003352199999995e+02
-3.426731147599999758e+02
-3.426456308400000239e+02
-3.423867893600000230e+02
-3.423772649800000067e+02
-3.423637191799999755e+02
-3.423464201799999955e+02
-3.423257259800000156e+02
-3.423020729799999913e+02
-3.422759563299999854e+02
-3.422479100499999731e+02
-3.422185001099999795e+02
-3.421882975099999840e+02
-3.426111466500000233e+02
-3.426099863300000266e+02
-3.426041580899999985e+02
-3.425939991600000099e+02
-3.425800021599999923e+02
-3.425627906400000029e+02
-3.425430931099999725e+02
-3.425217043800000170e+02
-3.424994543700000236e+02
-3.424771782299999927e+02
-3.422316678899999829e+02
-3.422309213699999759e+02
-3.422265766699999858e+02
-3.422188092600000004e+02
-3.422078835799999865e+02
-3.421941378000000213e+02
-3.421779761000000235e+02
-3.421598527699999863e+02
-3.421402504999999792e+02
-3.421196736100000066e+02
-3.415600340299999971e+02
-3.415736601599999744e+02
-3.415885655199999746e+02
-3.416045715299999870e+02
-3.416215234900000155e+02
-3.416392871200000059e+02
-3.416577583900000263e+02
-3.416768636900000047e+02
-3.416965559700000199e+02
-3.417168131399999993e+02
-3.424981217999999785e+02
-3.424922262800000112e+02
-3.424835039700000152e+02
-3.424721683700000199e+02
-3.424584902700000271e+02
-3.424427927699999827e+02
-3.424254341899999758e+02
-3.424067931299999827e+02
-3.423872634800000014e+02
-3.423672384100000272e+02
-3.426005726899999786e+02
-3.426001223700000082e+02
-3.425945994900000073e+02
-3.425841561299999967e+02
-3.425690739699999767e+02
-3.425497535000000084e+02
-3.425267018900000267e+02
-3.425004993200000172e+02
-3.424717843099999754e+02
-3.424412304100000028e+02
-3.416595523899999876e+02
-3.416579029900000251e+02
-3.416579785700000116e+02
-3.416597906000000080e+02
-3.416633470699999862e+02
-3.416686560200000145e+02
-3.416757237900000064e+02
-3.416845529700000270e+02
-3.416951458500000172e+02
-3.417074961700000131e+02
-3.419430771699999809e+02
-3.419381085399999733e+02
-3.419282428600000117e+02
-3.419137324600000056e+02
-3.418949602299999810e+02
-3.418724143700000013e+02
-3.418466733600000111e+02
-3.418183728800000267e+02
-3.417881874400000015e+02
-3.417568027899999947e+02
-3.419742539399999828e+02
-3.419737574499999937e+02
-3.419689390899999921e+02
-3.419599603600000250e+02
-3.419471065500000009e+02
-3.419307740799999920e+02
-3.419114471999999978e+02
-3.418896836800000187e+02
-3.418660844400000087e+02
-3.418412775599999804e+02
-3.418932009100000187e+02
-3.418928862700000195e+02
-3.418921294300000113e+02
-3.418909687099999815e+02
-3.418894843400000241e+02
-3.418877952700000264e+02
-3.418860543700000107e+02
-3.418844475500000044e+02
-3.418831790400000159e+02
-3.418824717900000110e+02
-3.421584485199999790e+02
-3.421497922600000265e+02
-3.421386388000000238e+02
-3.421254018800000267e+02
-3.421105966700000067e+02
-3.420947974000000045e+02
-3.420786336900000038e+02
-3.420627420600000050e+02
-3.420477542400000175e+02
-3.420342626099999848e+02
-3.425740050800000063e+02
-3.425735399299999813e+02
-3.425705022199999803e+02
-3.425651180500000237e+02
-3.425577326299999754e+02
-3.425487944700000185e+02
-3.425388219999999819e+02
-3.425283800799999767e+02
-3.425180483600000230e+02
-3.425083931099999859e+02
-3.424150231300000087e+02
-3.424159496600000239e+02
-3.424141766299999858e+02
-3.424097636199999783e+02
-3.424028458500000056e+02
-3.423936287799999718e+02
-3.423823804900000027e+02
-3.423694321899999977e+02
-3.423551532100000259e+02
-3.423399469899999872e+02
-3.420399223300000244e+02
-3.420424447600000235e+02
-3.420428836899999965e+02
-3.420413802699999906e+02
-3.420382018999999900e+02
-3.420337284099999806e+02
-3.420284344799999872e+02
-3.420228524600000242e+02
-3.420175414400000022e+02
-3.420130564300000060e+02
-3.424340163400000279e+02
-3.424312524000000053e+02
-3.424262677599999734e+02
-3.424192130399999883e+02
-3.424103040599999872e+02
-3.423998035999999843e+02
-3.423880166899999722e+02
-3.423752820000000270e+02
-3.423619627699999910e+02
-3.423484300599999983e+02
-3.410773807900000065e+02
-3.410787662100000261e+02
-3.410811645900000144e+02
-3.410846093399999859e+02
-3.410891481200000044e+02
-3.410948495399999842e+02
-3.411018018500000153e+02
-3.411101057800000262e+02
-3.411198754700000109e+02
-3.411312301199999979e+02
-3.424241503800000146e+02
-3.424126397100000077e+02
-3.423979130700000155e+02
-3.423802953800000068e+02
-3.423602809899999784e+02
-3.423385111399999801e+02
-3.423157423600000016e+02
-3.422928148299999975e+02
-3.422706060699999853e+02
-3.422500066100000140e+02
-3.429442029599999842e+02
-3.429416203900000255e+02
-3.429343703499999947e+02
-3.429226631799999723e+02
-3.429068431300000270e+02
-3.428873648800000069e+02
-3.428647743099999730e+02
-3.428396920900000282e+02
-3.428127893000000199e+02
-3.427847661399999879e+02
-3.425520188300000086e+02
-3.425526133199999776e+02
-3.425492835800000080e+02
-3.425422102699999982e+02
-3.425316866499999833e+02
-3.425181046999999808e+02
-3.425019262199999730e+02
-3.424836727800000062e+02
-3.424638997299999801e+02
-3.424431657999999743e+02
-3.419452732199999900e+02
-3.419413618500000211e+02
-3.419374844100000246e+02
-3.419337228300000220e+02
-3.419301854500000104e+02
-3.419269998299999997e+02
-3.419243110599999795e+02
-3.419222798499999953e+02
-3.419210713800000008e+02
-3.419208514300000274e+02
-3.425006678899999883e+02
-3.425042049599999814e+02
-3.425048949800000173e+02
-3.425027967799999828e+02
-3.424980611199999885e+02
-3.424909203500000103e+02
-3.424816845099999796e+02
-3.424707229399999733e+02
-3.424584497899999747e+02
-3.424453050399999938e+02
-3.421535949699999719e+02
-3.421539132799999834e+02
-3.421507439000000090e+02
-3.421442565699999818e+02
-3.421347409800000037e+02
-3.421225992600000154e+02
-3.421083275099999810e+02
-3.420924948200000131e+02
-3.420757175900000107e+02
-3.420586482799999999e+02
-3.424700950399999897e+02
-3.424725917299999765e+02
-3.424712566100000117e+02
-3.424661453499999766e+02
-3.424574225599999977e+02
-3.424453561600000171e+02
-3.424303036499999848e+02
-3.424126970500000198e+02
-3.423930296600000247e+02
-3.423718327799999770e+02
-3.426994067699999960e+02
-3.426982258900000033e+02
-3.426925269000000185e+02
-3.426824665799999821e+02
-3.426683295899999848e+02
-3.426505187299999875e+02
-3.426295254799999839e+02
-3.426059194200000206e+02
-3.425803100399999721e+02
-3.425533397400000126e+02
-3.424402975400000173e+02
-3.424410529599999791e+02
-3.424400623500000052e+02
-3.424374109299999986e+02
-3.424332380700000158e+02
-3.424277330300000131e+02
-3.424211254200000099e+02
-3.424136807200000021e+02
-3.424056890200000112e+02
-3.423974550899999940e+02
-3.417022038200000225e+02
-3.417012981299999979e+02
-3.417040554800000223e+02
-3.417104549300000258e+02
-3.417204284700000017e+02
-3.417338777800000003e+02
-3.417506589399999939e+02
-3.417705866499999843e+02
-3.417934421900000075e+02
-3.418189657600000260e+02
-3.426693179999999757e+02
-3.426711449900000162e+02
-3.426681491300000175e+02
-3.426605271799999741e+02
-3.426486257799999748e+02
-3.426329253200000267e+02
-3.426140220799999838e+02
-3.425926020699999981e+02
-3.425694093800000246e+02
-3.425452267200000165e+02
-3.423520678699999849e+02
-3.423443753899999820e+02
-3.423337156599999958e+02
-3.423203824099999792e+02
-3.423047146700000098e+02
-3.422871030700000006e+02
-3.422679761399999734e+02
-3.422477870499999995e+02
-3.422269967500000121e+02
-3.422060629999999719e+02
-3.424219478499999809e+02
-3.424207290400000261e+02
-3.424177647899999783e+02
-3.424132000999999832e+02
-3.424073009699999943e+02
-3.424004287500000032e+02
-3.423930224599999974e+02
-3.423855824699999744e+02
-3.423786326700000018e+02
-3.423726896900000156e+02
-3.422276482500000157e+02
-3.422313383900000190e+02
-3.422315849099999809e+02
-3.422284766700000205e+02
-3.422222243800000001e+02
-3.422131580199999803e+02
-3.422017059899999936e+02
-3.421883709499999782e+02
-3.421737177300000212e+02
-3.421583401500000150e+02
-3.419358372099999883e+02
-3.419393558200000030e+02
-3.419420265699999959e+02
-3.419439513699999793e+02
-3.419453091999999970e+02
-3.419463458500000002e+02
-3.419473703400000204e+02
-3.419487432299999909e+02
-3.419508635500000082e+02
-3.419541574200000014e+02
-3.417568534299999783e+02
-3.417475118099999918e+02
-3.417401445099999933e+02
-3.417350182399999881e+02
-3.417324233800000002e+02
-3.417326666600000067e+02
-3.417360505099999841e+02
-3.417428525199999854e+02
-3.417533046400000103e+02
-3.417675742700000114e+02
-3.422601613799999996e+02
-3.422568623299999899e+02
-3.422505322299999762e+02
-3.422412780500000054e+02
-3.422292977299999848e+02
-3.422148840799999903e+02
-3.421984040300000061e+02
-3.421802867499999934e+02
-3.421610087500000077e+02
-3.421410772799999904e+02
-3.421355552399999738e+02
-3.421316842300000189e+02
-3.421240991999999892e+02
-3.421130248100000131e+02
-3.420988079100000050e+02
-3.420819073299999786e+02
-3.420628653499999814e+02
-3.420422848700000031e+02
-3.420208014599999728e+02
-3.419990564899999868e+02
-3.421630783200000110e+02
-3.421555210500000044e+02
-3.421480545000000006e+02
-3.421410251300000027e+02
-3.421348570499999937e+02
-3.421300347299999771e+02
-3.421270677599999885e+02
-3.421264633399999866e+02
-3.421286952099999894e+02
-3.421341656499999999e+02
-3.417727888800000073e+02
-3.417766715299999873e+02
-3.417756558199999972e+02
-3.417699223500000016e+02
-3.417598272299999849e+02
-3.417458857699999726e+02
-3.417287494500000093e+02
-3.417091633900000147e+02
-3.416879322300000013e+02
-3.416658887899999968e+02
-3.423984490999999935e+02
-3.423970980700000268e+02
-3.423923557699999947e+02
-3.423843740899999943e+02
-3.423733923099999856e+02
-3.423597347099999979e+02
-3.423437883899999861e+02
-3.423259987199999728e+02
-3.423068471000000272e+02
-3.422868363800000111e+02
-3.428386116799999854e+02
-3.428349964999999884e+02
-3.428268411999999898e+02
-3.428143387200000234e+02
-3.427977816299999745e+02
-3.427775586700000190e+02
-3.427541416799999752e+02
-3.427280605799999762e+02
-3.426998889000000190e+02
-3.426702287599999863e+02
-3.410988399799999797e+02
-3.411064099399999918e+02
-3.411186022399999729e+02
-3.411353498199999876e+02
-3.411566168200000106e+02
-3.411823797299999796e+02
-3.412126156499999752e+02
-3.412472599100000252e+02
-3.412861873599999853e+02
-3.413291841500000032e+02
-3.421639094199999818e+02
-3.421564667800000166e+02
-3.421455564600000230e+02
-3.421314572900000144e+02
-3.421145564099999774e+02
-3.420953202900000178e+02
-3.420742835199999945e+02
-3.420520349500000066e+02
-3.420291894299999740e+02
-3.420063729299999977e+02
-3.418911806500000239e+02
-3.418906690100000105e+02
-3.418871909399999822e+02
-3.418809233200000222e+02
-3.418721328600000220e+02
-3.418611685999999850e+02
-3.418484539300000051e+02
-3.418344626300000186e+02
-3.418197110699999826e+02
-3.418047376700000086e+02
-3.418844011099999989e+02
-3.418845224600000279e+02
-3.418859519700000078e+02
-3.418886448100000166e+02
-3.418925791899999922e+02
-3.418977424199999859e+02
-3.419041321099999777e+02
-3.419117506499999877e+02
-3.419205894899999976e+02
-3.419306264300000180e+02
-3.422531231699999807e+02
-3.422488540900000089e+02
-3.422441392599999972e+02
-3.422392815000000041e+02
-3.422346586799999955e+02
-3.422307040300000267e+02
-3.422278757600000176e+02
-3.422266253099999744e+02
-3.422273747400000161e+02
-3.422304769799999917e+02
-3.423126892700000212e+02
-3.423107201400000008e+02
-3.423083166800000186e+02
-3.423055416700000251e+02
-3.423024794899999961e+02
-3.422992322399999807e+02
-3.422959119999999871e+02
-3.422926508300000137e+02
-3.422895833800000105e+02
-3.422868511699999772e+02
-3.420862938600000120e+02
-3.420977155100000004e+02
-3.421094406400000025e+02
-3.421213633200000004e+02
-3.421334684799999764e+02
-3.421458300499999723e+02
-3.421585908399999880e+02
-3.421719427400000200e+02
-3.421861031099999764e+02
-3.422012947800000120e+02
-3.420486180600000239e+02
-3.420360316399999761e+02
-3.420234264299999722e+02
-3.420110190099999841e+02
-3.419990510200000244e+02
-3.419877800400000183e+02
-3.419774734999999737e+02
-3.419684099599999740e+02
-3.419608638199999859e+02
-3.419551050399999781e+02
-3.428628936399999816e+02
-3.428627232599999957e+02
-3.428579974599999787e+02
-3.428489695299999767e+02
-3.428360478299999841e+02
-3.428197618300000045e+02
-3.428007427699999994e+02
-3.427796875199999818e+02
-3.427573281699999939e+02
-3.427343898899999886e+02
-3.424234458199999835e+02
-3.424314938300000222e+02
-3.424383199100000184e+02
-3.424439187699999820e+02
-3.424483444200000122e+02
-3.424517087899999979e+02
-3.424541793299999881e+02
-3.424559678100000042e+02
-3.424573278999999957e+02
-3.424585330900000031e+02
-3.417271122899999796e+02
-3.417330093099999999e+02
-3.417407875900000249e+02
-3.417504214300000172e+02
-3.417619415600000252e+02
-3.417754245400000173e+02
-3.417909707499999854e+02
-3.418086859200000163e+02
-3.418286611300000004e+02
-3.418509404900000277e+02
-3.426964183900000194e+02
-3.426899258099999770e+02
-3.426783732600000008e+02
-3.426620541600000251e+02
-3.426414102800000023e+02
-3.426170014499999752e+02
-3.425894875100000263e+02
-3.425596018200000117e+02
-3.425281247400000098e+02
-3.424958488699999748e+02
-3.419816003500000079e+02
-3.419844957700000236e+02
-3.419870156100000145e+02
-3.419892363199999750e+02
-3.419913262200000190e+02
-3.419935388000000103e+02
-3.419961825099999828e+02
-3.419996015599999737e+02
-3.420041484600000103e+02
-3.420101571899999726e+02
-3.426693559000000278e+02
-3.426715655799999922e+02
-3.426718258000000219e+02
-3.426702810900000031e+02
-3.426671480699999961e+02
-3.426627104500000200e+02
-3.426573024300000156e+02
-3.426512848099999928e+02
-3.426450390200000129e+02
-3.426389539499999728e+02
-3.424955129900000088e+02
-3.424926087900000198e+02
-3.424872130800000036e+02
-3.424794986399999743e+02
-3.424696994600000153e+02
-3.424581075300000066e+02
-3.424450529999999731e+02
-3.424308960800000250e+02
-3.424160181799999805e+02
-3.424008065799999940e+02
-3.430508647699999756e+02
-3.430497400799999923e+02
-3.430439684599999737e+02
-3.430337587800000279e+02
-3.430194487599999889e+02
-3.430014928599999848e+02
-3.429804416100000140e+02
-3.429569148699999914e+02
-3.429315806899999757e+02
-3.429051293599999894e+02
-3.420087624799999730e+02
-3.420124265499999865e+02
-3.420129152499999918e+02
-3.420102519199999733e+02
-3.420045710800000052e+02
-3.419961037900000065e+02
-3.419851710899999944e+02
-3.419721666799999866e+02
-3.419575468200000046e+02
-3.419418032300000050e+02
-3.427960849300000064e+02
-3.427955468200000269e+02
-3.427897491800000012e+02
-3.427788925199999994e+02
-3.427633019500000273e+02
-3.427434183199999893e+02
-3.427197815100000184e+02
-3.426929959000000281e+02
-3.426637072400000079e+02
-3.426325804499999776e+02
-3.426111250199999745e+02
-3.426272219699999937e+02
-3.426412597699999765e+02
-3.426531490899999994e+02
-3.426629053099999851e+02
-3.426706434299999842e+02
-3.426765649600000074e+02
-3.426809319399999936e+02
-3.426840481599999748e+02
-3.426862399299999993e+02
-3.428498408199999972e+02
-3.428507236600000283e+02
-3.428470746899999995e+02
-3.428389822699999741e+02
-3.428266460599999732e+02
-3.428103671700000064e+02
-3.427905381400000238e+02
-3.427676149499999951e+02
-3.427421118600000227e+02
-3.427145688200000109e+02
-3.423527027100000169e+02
-3.423500617600000169e+02
-3.423458355500000039e+02
-3.423400772200000119e+02
-3.423328824899999745e+02
-3.423243963499999722e+02
-3.423148099699999989e+02
-3.423043514699999719e+02
-3.422932841699999926e+02
-3.422818884100000218e+02
-3.428567811699999766e+02
-3.428560786499999722e+02
-3.428509241500000257e+02
-3.428414392099999759e+02
-3.428278606100000161e+02
-3.428105351199999973e+02
-3.427898957799999948e+02
-3.427664442799999733e+02
-3.427407282500000179e+02
-3.427133202100000062e+02
-3.426882823000000258e+02
-3.426838925600000039e+02
-3.426757609699999989e+02
-3.426641377999999918e+02
-3.426493588299999828e+02
-3.426318268599999897e+02
-3.426119976800000018e+02
-3.425903594600000019e+02
-3.425674141700000064e+02
-3.425436644200000273e+02
-3.407369085000000268e+02
-3.407424460700000282e+02
-3.407536456000000271e+02
-3.407703826399999798e+02
-3.407924636700000178e+02
-3.408196149099999843e+02
-3.408514928499999996e+02
-3.408876813100000049e+02
-3.409276977100000181e+02
-3.409710038000000054e+02
-3.421572336799999903e+02
-3.421542614300000196e+02
-3.421459577699999954e+02
-3.421325945400000137e+02
-3.421145805900000028e+02
-3.420924616099999866e+02
-3.420668725200000040e+02
-3.420385234400000058e+02
-3.420081669799999986e+02
-3.419765733699999828e+02
-3.424735047300000019e+02
-3.424751284899999746e+02
-3.424735811699999886e+02
-3.424690148099999760e+02
-3.424616712299999790e+02
-3.424518666100000246e+02
-3.424399811200000272e+02
-3.424264363899999921e+02
-3.424116771999999855e+02
-3.423961596500000155e+02
-3.421447128199999952e+02
-3.421486012199999891e+02
-3.421542399300000170e+02
-3.421615964200000235e+02
-3.421706700199999887e+02
-3.421814750500000173e+02
-3.421940438799999811e+02
-3.422084013400000231e+02
-3.422245512100000155e+02
-3.422424605400000246e+02
-3.427076063999999747e+02
-3.427074756000000093e+02
-3.427035891500000275e+02
-3.426960934400000269e+02
-3.426852345099999866e+02
-3.426713379000000259e+02
-3.426547986100000003e+02
-3.426360689499999808e+02
-3.426156306699999732e+02
-3.425939897200000246e+02
-3.425802701700000057e+02
-3.425779624599999806e+02
-3.425718019099999765e+02
-3.425619924499999911e+02
-3.425488453300000060e+02
-3.425327767300000232e+02
-3.425142830600000252e+02
-3.424939293200000066e+02
-3.424723212900000249e+02
-3.424500998699999741e+02
-3.421255950799999823e+02
-3.421367458999999940e+02
-3.421453098299999738e+02
-3.421512254900000016e+02
-3.421545191600000067e+02
-3.421553055100000051e+02
-3.421537778300000241e+02
-3.421502082700000074e+02
-3.421449235100000124e+02
-3.421382942000000185e+02
-3.429691340599999876e+02
-3.429653955800000062e+02
-3.429573618100000090e+02
-3.429452175299999794e+02
-3.429292434399999934e+02
-3.429098027499999830e+02
-3.428873345900000231e+02
-3.428623259299999972e+02
-3.428352988099999834e+02
-3.428067916599999876e+02
-3.427493959299999915e+02
-3.427467003400000181e+02
-3.427389923499999895e+02
-3.427264641300000108e+02
-3.427094595899999945e+02
-3.426884479899999860e+02
-3.426640070999999921e+02
-3.426367950800000131e+02
-3.426075325400000224e+02
-3.425769674499999837e+02
-3.418284037999999896e+02
-3.418455116000000089e+02
-3.418628757299999847e+02
-3.418803695899999866e+02
-3.418979639199999951e+02
-3.419157154399999854e+02
-3.419337477000000263e+02
-3.419522237699999891e+02
-3.419713183000000072e+02
-3.419911991299999841e+02
-3.420070686400000000e+02
-3.420120735400000171e+02
-3.420183304799999746e+02
-3.420258318099999997e+02
-3.420345950199999834e+02
-3.420446621899999968e+02
-3.420560846800000263e+02
-3.420689177699999846e+02
-3.420832025999999928e+02
-3.420989546399999881e+02
-3.425994304700000157e+02
-3.425979496900000072e+02
-3.425938011800000140e+02
-3.425871140500000251e+02
-3.425781077600000231e+02
-3.425670926999999892e+02
-3.425544357699999978e+02
-3.425405625000000214e+02
-3.425259222799999748e+02
-3.425109691700000099e+02
-3.424456649300000208e+02
-3.424425123799999824e+02
-3.424366847499999835e+02
-3.424282703599999991e+02
-3.424174550500000009e+02
-3.424045059599999945e+02
-3.423897654900000020e+02
-3.423736265599999911e+02
-3.423565218100000038e+02
-3.423389030199999752e+02
-3.427646678500000235e+02
-3.427612977599999908e+02
-3.427522604299999784e+02
-3.427378432099999941e+02
-3.427184840400000212e+02
-3.426947486600000161e+02
-3.426672982599999955e+02
-3.426368630399999802e+02
-3.426042095099999756e+02
-3.425701189700000100e+02
-3.427348034799999823e+02
-3.427318038999999885e+02
-3.427247575299999767e+02
-3.427139179299999796e+02
-3.426996403100000066e+02
-3.426823800199999823e+02
-3.426626496800000155e+02
-3.426410140899999988e+02
-3.426180608399999983e+02
-3.425943803800000182e+02
-3.422186384799999814e+02
-3.422157205400000066e+02
-3.422084849999999960e+02
-3.421971674399999870e+02
-3.421821327999999767e+02
-3.421638564500000257e+02
-3.421429097899999761e+02
-3.421199234900000192e+02
-3.420955802500000118e+02
-3.420705752999999731e+02
-3.427958941499999810e+02
-3.427904205899999965e+02
-3.427803591200000142e+02
-3.427659475799999882e+02
-3.427475338899999997e+02
-3.427255623400000104e+02
-3.427005548700000190e+02
-3.426730872200000135e+02
-3.426437730900000247e+02
-3.426132405199999766e+02
-3.427694788000000017e+02
-3.427687274400000206e+02
-3.427647491500000001e+02
-3.427576523899999756e+02
-3.427476294699999926e+02
-3.427349482800000260e+02
-3.427199525999999992e+02
-3.427030347400000210e+02
-3.426846311699999887e+02
-3.426652053799999749e+02
-3.422589011800000094e+02
-3.422548597100000052e+02
-3.422473075400000084e+02
-3.422364527799999792e+02
-3.422226014699999723e+02
-3.422061344599999870e+02
-3.421875019999999950e+02
-3.421672017600000117e+02
-3.421457631100000185e+02
-3.421237284399999794e+02
-3.424774704299999826e+02
-3.424753323099999989e+02
-3.424724338600000237e+02
-3.424690459899999837e+02
-3.424655437000000120e+02
-3.424623829999999884e+02
-3.424600804899999957e+02
-3.424591840599999841e+02
-3.424602388399999882e+02
-3.424637533499999904e+02
-3.424767315700000267e+02
-3.424792801099999906e+02
-3.424785101599999848e+02
-3.424745860300000118e+02
-3.424677749599999856e+02
-3.424584404600000198e+02
-3.424470234899999923e+02
-3.424340270800000212e+02
-3.424199931399999741e+02
-3.424054793899999822e+02
-3.424316088300000160e+02
-3.424419629999999870e+02
-3.424488586900000087e+02
-3.424523264100000119e+02
-3.424525467899999853e+02
-3.424498360299999717e+02
-3.424446358299999815e+02
-3.424374662600000079e+02
-3.424289014099999804e+02
-3.424195443099999920e+02
-3.424219044199999757e+02
-3.424231250099999784e+02
-3.424204252299999780e+02
-3.424139393899999959e+02
-3.424039387500000089e+02
-3.423908235299999774e+02
-3.423751064400000246e+02
-3.423573772999999960e+02
-3.423382926400000201e+02
-3.423185447600000089e+02
-3.425821783600000003e+02
-3.425761965600000281e+02
-3.425658048600000143e+02
-3.425512830200000280e+02
-3.425330171400000268e+02
-3.425114873300000227e+02
-3.424872442999999862e+02
-3.424608878600000139e+02
-3.424330431700000190e+02
-3.424043376000000194e+02
-3.426428648099999918e+02
-3.426437113100000147e+02
-3.426412715600000070e+02
-3.426356389700000022e+02
-3.426269970700000158e+02
-3.426156114300000013e+02
-3.426018326099999740e+02
-3.425860678399999983e+02
-3.425687860300000125e+02
-3.425504870899999901e+02
-3.414318472900000074e+02
-3.414301568399999951e+02
-3.414299405099999944e+02
-3.414311574700000165e+02
-3.414337880499999756e+02
-3.414378360700000030e+02
-3.414433298100000229e+02
-3.414503172799999788e+02
-3.414588602200000196e+02
-3.414690356599999745e+02
-3.422253009099999872e+02
-3.422215432899999996e+02
-3.422141589299999964e+02
-3.422034839799999872e+02
-3.421899730700000077e+02
-3.421741888199999835e+02
-3.421567697199999998e+02
-3.421384122200000206e+02
-3.421198443399999860e+02
-3.421018001300000151e+02
-3.428364879299999757e+02
-3.428375150599999870e+02
-3.428338903100000152e+02
-3.428258456799999863e+02
-3.428137444999999843e+02
-3.427980737299999987e+02
-3.427794142999999849e+02
-3.427584267199999886e+02
-3.427358124200000020e+02
-3.427122985099999823e+02
-3.424018007999999895e+02
-3.424040398999999866e+02
-3.424014478700000268e+02
-3.423941878100000054e+02
-3.423825644099999863e+02
-3.423670020900000281e+02
-3.423480332299999986e+02
-3.423262699399999747e+02
-3.423023797399999921e+02
-3.422770611000000258e+02
-3.424615984600000047e+02
-3.424651493399999822e+02
-3.424685687099999996e+02
-3.424719429200000036e+02
-3.424754553800000281e+02
-3.424793611399999804e+02
-3.424839787799999726e+02
-3.424896563300000025e+02
-3.424967514100000017e+02
-3.425056037300000185e+02
-3.424881217399999969e+02
-3.424854970499999922e+02
-3.424786254200000144e+02
-3.424677529200000095e+02
-3.424532191499999954e+02
-3.424354598099999976e+02
-3.424149776699999848e+02
-3.423923222700000224e+02
-3.423680650800000080e+02
-3.423427811199999837e+02
-3.424623256900000001e+02
-3.424620863999999756e+02
-3.424586463100000060e+02
-3.424521167699999751e+02
-3.424427016700000195e+02
-3.424306917700000099e+02
-3.424164432100000113e+02
-3.424003746500000034e+02
-3.423829433099999733e+02
-3.423646292799999742e+02
-3.426515252899999950e+02
-3.426535715100000061e+02
-3.426513366799999858e+02