1.324087599157172113e+00 1.824701185464209770e-04 -3.984070467465465448e+00 1.824701185463386860e-04 -2.433599652630536181e-01 3.122175150279955075e-04 -3.984070467465465448e+00 3.122175150279955075e-04 -3.500859531864825014e-01
1.418837321398759954e+00 6.125998820909709514e-02 -3.933619904077368279e+00 6.125998820909710901e-02 -1.642782687039359979e-01 5.677330845338252746e-02 -3.933619904077368279e+00 5.677330845338252746e-02 -1.132716121260396031e-01
1.526731228452144373e+00 1.206867303476795439e-01 -3.887246953180071962e+00 1.206867303476794606e-01 -7.508608052077735129e-02 1.102223486595274582e-01 -3.887246953180071962e+00 1.102223486595274582e-01 1.399982153703382137e-01
1.647606747687160311e+00 1.780765096586329477e-01 -3.844886550933698910e+00 1.780765096586329477e-01 2.423450829956824704e-02 1.606635342971155789e-01 -3.844886550933698910e+00 1.606635342971155789e-01 4.085300544622424423e-01
1.780041469495778017e+00 2.331509878302956695e-01 -3.806669949376697115e+00 2.331509878302956140e-01 1.323572986417654584e-01 2.083396869223003711e-01 -3.806669949376697115e+00 2.083396869223003711e-01 6.893583010007793277e-01
1.922387596517151742e+00 2.856269812385681672e-01 -3.772710317595393548e+00 2.856269812385681672e-01 2.478921519092570358e-01 2.535249486830752352e-01 -3.772710317595393548e+00 2.535249486830752352e-01 9.794088531242906015e-01
2.072680555153807891e+00 3.352628796553586144e-01 -3.743131639659623477e+00 3.352628796553586144e-01 3.690966365133985794e-01 2.965832273392922658e-01 -3.743131639659623477e+00 2.965832273392922658e-01 1.275282115832825136e+00
2.228772844205166859e+00 3.818628424122132436e-01 -3.718106654034424974e+00 3.818628424122132436e-01 4.941400041867423099e-01 3.380109809867702375e-01 -3.718106654034424974e+00 3.380109809867702375e-01 1.573379581653030046e+00
2.388385211918933049e+00 4.253063454847357816e-01 -3.697743035344957185e+00 4.253063454847357816e-01 6.209796811231349523e-01 3.783088638849790852e-01 -3.697743035344957185e+00 3.783088638849790852e-01 1.869976162446660650e+00
2.549139924029270698e+00 4.654734270278308994e-01 -3.682264699107668182e+00 4.654734270278308439e-01 7.477258248863453138e-01 4.180655223978023138e-01 -3.682264699107668182e+00 4.180655223978023138e-01 2.161256355314835176e+00
5.846236692089272768e-01 -1.180226615500367116e+00 6.470831506483787354e-01 -1.180226615500367116e+00 -1.890198553763636369e+01 1.063897429799829375e+01 6.470831506483787354e-01 1.063897429799829375e+01 -5.879119718293137620e-01
5.626833833917933569e-01 -1.184976385952036360e+00 4.987989708168411584e-01 -1.184976385952036360e+00 -1.895041492789550119e+01 1.048363853588081618e+01 4.987989708168411584e-01 1.048363853588081618e+01 -7.061995244237705416e-01
5.450726960248348796e-01 -1.186821489089030957e+00 3.374346538953220676e-01 -1.186821489089030957e+00 -1.898088653217774890e+01 1.030901139839040503e+01 3.374346538953220676e-01 1.030901139839040503e+01 -8.082282473952052682e-01
5.321569740658724790e-01 -1.185652314824004794e+00 1.629171264922571472e-01 -1.185652314824004794e+00 -1.899290710509005109e+01 1.011496500709182378e+01 1.629171264922571472e-01 1.011496500709182378e+01 -8.956240237059205356e-01
5.231324102077008487e-01 -1.181541936548521576e+00 -2.433343939085966939e-02 -1.181541936548521576e+00 -1.898689681863389822e+01 9.901809923899218546e+00 -2.433343939085966939e-02 9.901809923899218546e+00 -9.688800987489741834e-01
5.168663668810755674e-01 -1.174526890958363934e+00 -2.240247501877718761e-01 -1.174526890958363934e+00 -1.896373255350806275e+01 9.669801905683062415e+00 -2.240247501877718761e-01 9.669801905683062415e+00 -1.029275256876738487e+00
5.120983280815152305e-01 -1.164643714749313386e+00 -4.357549022448766185e-01 -1.164643714749313386e+00 -1.892467482571703030e+01 9.419251514357506849e+00 -4.357549022448766185e-01 9.419251514357506849e+00 -1.078435381051515707e+00
5.072937525861728192e-01 -1.151892407921370598e+00 -6.591037235606801437e-01 -1.151892407921370598e+00 -1.887107549300473153e+01 9.150359701749351871e+00 -6.591037235606801437e-01 9.150359701749351871e+00 -1.118315184497646886e+00
5.008084890848550907e-01 -1.136419117257663203e+00 -8.937789205689259386e-01 -1.136419117257663203e+00 -1.880474312181238261e+01 8.863309151337505298e+00 -8.937789205689259386e-01 8.863309151337505298e+00 -1.151143405657838015e+00
4.911445330504971007e-01 -1.118223842758191644e+00 -1.139543004747030297e+00 -1.118223842758191644e+00 -1.872728532675438728e+01 8.558191204861426371e+00 -1.139543004747030297e+00 8.558191204861426371e+00 -1.179185319670578158e+00
-7.839343111113708851e+00 -2.082322183257528891e+01 1.846024635145383730e+00 -2.082322183257528891e+01 -4.569608796824009112e+00 -3.661490146984276439e+00 1.846024635145383730e+00 -3.661490146984276439e+00 -3.017225546345332177e+01
-7.896124645098709927e+00 -2.082211927851732725e+01 1.635730824490252866e+00 -2.082211927851732725e+01 -4.435097201752743246e+00 -3.650078712484377874e+00 1.635730824490252866e+00 -3.650078712484377874e+00 -3.007374225837449089e+01
-7.913361240204836555e+00 -2.080515832192569192e+01 1.414944374383525050e+00 -2.080515832192569192e+01 -4.258302658558667630e+00 -3.633228011298538007e+00 1.414944374383525050e+00 -3.633228011298538007e+00 -2.986813430246569112e+01
-7.890814009719529842e+00 -2.077263297721583513e+01 1.183481525815539337e+00 -2.077263297721583513e+01 -4.039519181657235336e+00 -3.610974795228687917e+00 1.183481525815539337e+00 -3.610974795228687917e+00 -2.955607475226074499e+01
-7.828685088553417160e+00 -2.072459837209066080e+01 9.418016763104469780e-01 -2.072459837209066080e+01 -3.779867701007376013e+00 -3.583300688373861842e+00 9.418016763104469780e-01 -3.583300688373861842e+00 -2.913927256654948295e+01
-7.727599257339342387e+00 -2.066121988965885947e+01 6.903825992933639855e-01 -2.066121988965885947e+01 -3.481093927200859639e+00 -3.550095435328263882e+00 6.903825992933639855e-01 -3.550095435328263882e+00 -2.862028199556618446e+01
-7.588420183422708298e+00 -2.058271804073202205e+01 4.297204440903731326e-01 -2.058271804073202205e+01 -3.145053826235255645e+00 -3.511285532488030103e+00 4.297204440903731326e-01 -3.511285532488030103e+00 -2.800206155936638197e+01
-7.412048285950850968e+00 -2.048933171202270742e+01 1.602746082256247540e-01 -2.048933171202270742e+01 -2.773823874919723487e+00 -3.466742348546398400e+00 1.602746082256247540e-01 -3.466742348546398400e+00 -2.728821293453940910e+01
-7.199806629793322088e+00 -2.038129979024347804e+01 -1.174771348757646106e-01 -2.038129979024347804e+01 -2.369829692181777858e+00 -3.416282124493708050e+00 -1.174771348757646106e-01 -3.416282124493708050e+00 -2.648257668438717261e+01
-6.951272569227904263e+00 -2.025889791390882166e+01 -4.028548768780522149e-01 -2.025889791390882166e+01 -1.933916569465856217e+00 -3.359812980825128914e+00 -4.028548768780522149e-01 -3.359812980825128914e+00 -2.558733954112461717e+01
-1.234534820490835649e+01 -1.050585285772262800e+01 -1.013724228247199655e+01 -1.050585285772262800e+01 2.982961035255002002e+00 -6.213089077342034194e+00 -1.013724228247199655e+01 -6.213089077342034194e+00 3.182849022536587569e+01
-1.255206411980616288e+01 -1.040763255011983546e+01 -1.026013053274539288e+01 -1.040763255011983546e+01 2.886799399295291391e+00 -6.306957280857259818e+00 -1.026013053274539288e+01 -6.306957280857259818e+00 3.142009672353885819e+01
-1.277738031358443571e+01 -1.029718662232085258e+01 -1.038272984664782861e+01 -1.029718662232085258e+01 2.744335709889440533e+00 -6.386974597089650096e+00 -1.038272984664782861e+01 -6.386974597089650096e+00 3.090987120947206535e+01
-1.302012298223615971e+01 -1.017561664423995715e+01 -1.050507634122567602e+01 -1.017561664423995715e+01 2.556418717627139792e+00 -6.453068791946465765e+00 -1.050507634122567602e+01 -6.453068791946465765e+00 3.029936671615940469e+01
-1.328012959905266932e+01 -1.004436729773194159e+01 -1.062704360681664184e+01 -1.004436729773194159e+01 2.322922012846095896e+00 -6.505005104626301993e+00 -1.062704360681664184e+01 -6.505005104626301993e+00 2.959055162262801986e+01
-1.355750851517307431e+01 -9.904919381697972369e+00 -1.074845105818887170e+01 -9.904919381697972369e+00 2.043791419976753954e+00 -6.542530715804569574e+00 -1.074845105818887170e+01 -6.542530715804569574e+00 2.878537624938189410e+01
-1.385249449139877775e+01 -9.758843987655136942e+00 -1.086924451977281869e+01 -9.758843987655136942e+00 1.719063056065482931e+00 -6.565501157295790868e+00 -1.086924451977281869e+01 -6.565501157295790868e+00 2.788591732658728972e+01
-1.416577375161080710e+01 -9.607676090074152242e+00 -1.098931564042936593e+01 -9.607676090074152242e+00 1.348592452926804075e+00 -6.573753902391300308e+00 -1.098931564042936593e+01 -6.573753902391300308e+00 2.689383623837722226e+01
-1.449806863673656210e+01 -9.453221541273514106e+00 -1.110859218606577592e+01 -9.453221541273514106e+00 9.324879616998271725e-01 -6.567144482905618474e+00 -1.110859218606577592e+01 -6.567144482905618474e+00 2.581119165639476520e+01
-1.485013760474980593e+01 -9.296997257200750653e+00 -1.122703803963568170e+01 -9.296997257200750653e+00 4.709843431859556118e-01 -6.545600664746006991e+00 -1.122703803963568170e+01 -6.545600664746006991e+00 2.463984360852797195e+01
-1.933733886047857808e+01 -1.673905793772814476e+01 7.436914130992342997e+00 -1.673905793772814476e+01 -2.110727596791410221e+01 1.113858660429680292e+01 7.436914130992342997e+00 1.113858660429680292e+01 -2.481326554253616479e+01
-1.929243728513645095e+01 -1.670184154705916058e+01 7.436504750694984622e+00 -1.670184154705916058e+01 -2.097592071704792716e+01 1.100109064897024247e+01 7.436504750694984622e+00 1.100109064897024247e+01 -2.456953540004499104e+01
-1.921512023352163467e+01 -1.665061318530330681e+01 7.419292170010579390e+00 -1.665061318530330681e+01 -2.080889355572552901e+01 1.084909890947811384e+01 7.419292170010579390e+00 1.084909890947811384e+01 -2.424026338360115673e+01
-1.910469920240675989e+01 -1.658529841967924057e+01 7.385332213525131806e+00 -1.658529841967924057e+01 -2.060518964139884446e+01 1.068207174815571392e+01 7.385332213525131806e+00 1.068207174815571392e+01 -2.382619382101804462e+01
-1.896262563102791177e+01 -1.650630663048432112e+01 7.334848179582655447e+00 -1.650630663048432112e+01 -2.036624180510863624e+01 1.049958117651035394e+01 7.334848179582655447e+00 1.049958117651035394e+01 -2.333047149730718317e+01
-1.879035095862118965e+01 -1.641397276523457549e+01 7.268044758331829058e+00 -1.641397276523457549e+01 -2.009353870248165919e+01 1.030140389619801411e+01 7.268044758331829058e+00 1.030140389619801411e+01 -2.275611094011275526e+01
-1.858941966539934754e+01 -1.630861316325067989e+01 7.185089423530665265e+00 -1.630861316325067989e+01 -1.978849455636333232e+01 1.008720495970267983e+01 7.185089423530665265e+00 1.008720495970267983e+01 -2.210631275903230275e+01
-1.836169257089583695e+01 -1.619065581302533730e+01 7.086112432546502582e+00 -1.619065581302533730e+01 -1.945295157809177411e+01 9.856612203117656179e+00 7.086112432546502582e+00 9.856612203117656179e+00 -2.138491024230472348e+01
-1.810925379298812032e+01 -1.606047287846523020e+01 6.971244042746684855e+00 -1.606047287846523020e+01 -1.908893806095844425e+01 9.609272070731590176e+00 6.971244042746684855e+00 9.609272070731590176e+00 -2.059603440929427620e+01
-1.783426188233499587e+01 -1.591858538903973219e+01 6.840633119693886321e+00 -1.591858538903973219e+01 -1.869857533923147486e+01 9.344886831419129791e+00 6.840633119693886321e+00 9.344886831419129791e+00 -1.974405818590456363e+01
-2.324847746271335325e+01 4.325077003016256860e+00 1.811280887382617522e+01 4.325077003016256860e+00 -3.142182289667444905e+01 5.144647856687751819e+00 1.811280887382617522e+01 5.144647856687751819e+00 -5.420479621288427552e+01
-2.308887334052332818e+01 4.278970825825511248e+00 1.813216628483204929e+01 4.278970825825511248e+00 -3.132376929229216600e+01 5.209638851842234963e+00 1.813216628483204929e+01 5.209638851842234963e+00 -5.382664616428908033e+01
-2.286722720376174678e+01 4.229707727113299676e+00 1.812623051622282588e+01 4.229707727113299676e+00 -3.115658477770628565e+01 5.268297100232102181e+00 1.812623051622282588e+01 5.268297100232102181e+00 -5.326800338104147414e+01
-2.258452204595625545e+01 4.177533455261533746e+00 1.809458568612142670e+01 4.177533455261533746e+00 -3.092112002039266372e+01 5.321019580012745109e+00 1.809458568612142670e+01 5.321019580012745109e+00 -5.253340475634595208e+01
-2.224219454995493805e+01 4.122504721435269026e+00 1.803677810520740366e+01 4.122504721435269026e+00 -3.061875499203432582e+01 5.367919713514278435e+00 1.803677810520740366e+01 5.367919713514278435e+00 -5.162623405638420593e+01
-2.184205947303959761e+01 4.064791659129673107e+00 1.795237298788199354e+01 4.064791659129673107e+00 -3.025111541269623316e+01 5.409129826788499074e+00 1.795237298788199354e+01 5.409129826788499074e+00 -5.055153857484624780e+01
-2.138646087669922835e+01 4.004658920448344261e+00 1.784101116343316917e+01 4.004658920448344261e+00 -2.982045082525893420e+01 5.444649919835407914e+00 1.784101116343316917e+01 5.444649919835407914e+00 -4.931606694037377281e+01
-2.087834774151675532e+01 3.942371157494877210e+00 1.770240907603565006e+01 3.942371157494877210e+00 -2.932957788425356682e+01 5.474479992655005844e+00 1.770240907603565006e+01 5.474479992655005844e+00 -4.792715379698071843e+01
-2.031896771312341343e+01 3.878174118651182223e+00 1.753707712617494252e+01 3.878174118651182223e+00 -2.877940396832102721e+01 5.498601141525604419e+00 1.753707712617494252e+01 5.498601141525604419e+00 -4.639067820211126048e+01
-1.971919043148832884e+01 3.812899567671417689e+00 1.734348411239453114e+01 3.812899567671417689e+00 -2.818125240675088961e+01 5.516843232952037823e+00 1.734348411239453114e+01 5.516843232952037823e+00 -4.472826601337351349e+01
-2.108059676382917402e+01 -3.117986483330973169e+00 -9.887034737732454559e+00 -3.117986483330973169e+00 -2.958427037410881155e+01 -1.510738181644715539e+01 -9.887034737732454559e+00 -1.510738181644715539e+01 1.162234561375680642e+01
-2.110032862749671878e+01 -3.196284000569513228e+00 -9.952974364767941395e+00 -3.196284000569513228e+00 -2.956088857885205812e+01 -1.507260556470632729e+01 -9.952974364767941395e+00 -1.507260556470632729e+01 1.162358696104856826e+01
-2.112509999061738242e+01 -3.272617595227058640e+00 -1.001895104694646399e+01 -3.272617595227058640e+00 -2.952970667598588150e+01 -1.500925979768347496e+01 -1.001895104694646399e+01 -1.500925979768347496e+01 1.160644895739365978e+01
-2.115511465647787404e+01 -3.346190581728298863e+00 -1.008494625669650624e+01 -3.346190581728298863e+00 -2.949220687123178664e+01 -1.491732598780708408e+01 -1.008494625669650624e+01 -1.491732598780708408e+01 1.156765222263324588e+01
-2.119037262507819364e+01 -3.416428605356152115e+00 -1.015107115944718252e+01 -3.416428605356152115e+00 -2.944953787402394241e+01 -1.479706352107841205e+01 -1.015107115944718252e+01 -1.479706352107841205e+01 1.150686326047999231e+01
-2.123155941656453294e+01 -3.482683201107457549e+00 -1.021719606219785703e+01 -3.482683201107457549e+00 -2.940371918965789533e+01 -1.464850945264049997e+01 -1.021719606219785703e+01 -1.464850945264049997e+01 1.142243311706872255e+01
-2.127949024408372480e+01 -3.544250321264502013e+00 -1.028320979951941894e+01 -3.544250321264502013e+00 -2.935702970943046353e+01 -1.447179347549398010e+01 -1.028320979951941894e+01 -1.447179347549398010e+01 1.131269431096274225e+01
-2.133516559649778088e+01 -3.600537083538682293e+00 -1.034887151298212160e+01 -3.600537083538682293e+00 -2.931193360035365103e+01 -1.426687853449581311e+01 -1.034887151298212160e+01 -1.426687853449581311e+01 1.117566439200953710e+01
-2.139982682109846834e+01 -3.650876495355320550e+00 -1.041394034415622372e+01 -3.650876495355320550e+00 -2.927117294301224604e+01 -1.403363493664536676e+01 -1.041394034415622372e+01 -1.403363493664536676e+01 1.100908299648381217e+01
-2.147484495817817773e+01 -3.694768312283409184e+00 -1.047815690704045899e+01 -3.694768312283409184e+00 -2.923765656613469943e+01 -1.377176624079834255e+01 -1.047815690704045899e+01 -1.377176624079834255e+01 1.081063417794571180e+01
2.251208949522177249e+01 -9.773245738753097100e+00 9.114306704168066986e+00 -9.773245738753097100e+00 7.417683202062848480e+00 -4.745949793899438163e+00 9.114306704168066986e+00 -4.745949793899438163e+00 2.707895085875393093e+01
2.234628197914608450e+01 -9.766791462648770406e+00 9.233923590431199813e+00 -9.766791462648770406e+00 7.430237123716317171e+00 -4.682878749660189577e+00 9.233923590431199813e+00 -4.682878749660189577e+00 2.688443599923620297e+01
2.214013523741836309e+01 -9.744556126838812560e+00 9.311960044099160783e+00 -9.744556126838812560e+00 7.417647739007329655e+00 -4.603281921549426059e+00 9.311960044099160783e+00 -4.603281921549426059e+00 2.658775207677033237e+01
2.189489047698175028e+01 -9.706823435767370611e+00 9.348628843505053965e+00 -9.706823435767370611e+00 7.379578148908463753e+00 -4.507318893316980102e+00 9.348628843505053965e+00 -4.507318893316980102e+00 2.618990978843858741e+01
2.161194848852920813e+01 -9.654018946100661580e+00 9.344195961565270991e+00 -9.654018946100661580e+00 7.315106313976243335e+00 -4.395308832462514914e+00 9.344195961565270991e+00 -4.395308832462514914e+00 2.569261136090584330e+01
2.129263913664267704e+01 -9.586834187421294118e+00 9.299211075640339885e+00 -9.586834187421294118e+00 7.223132879489603475e+00 -4.267801416346563848e+00 9.299211075640339885e+00 -4.267801416346563848e+00 2.509754128930922334e+01
2.093829228590409386e+01 -9.506049346950668166e+00 9.214330252257354914e+00 -9.506049346950668166e+00 7.102310249338846582e+00 -4.125505906079492746e+00 9.214330252257354914e+00 -4.125505906079492746e+00 2.440645499489687964e+01
2.055011368020107554e+01 -9.412675121771055586e+00 9.090440067804268054e+00 -9.412675121771055586e+00 6.951095780608930852e+00 -3.969273414993741866e+00 9.090440067804268054e+00 -3.969273414993741866e+00 2.362080646294505826e+01
2.012955730480987881e+01 -9.307775403548003368e+00 8.928533487835592197e+00 -9.307775403548003368e+00 6.768230534828956202e+00 -3.800096908643820548e+00 8.928533487835592197e+00 -3.800096908643820548e+00 2.274267028220157982e+01
1.967786436667363503e+01 -9.192555936169135578e+00 8.729727598600154792e+00 -9.192555936169135578e+00 6.552118674500601259e+00 -3.619022547167518589e+00 8.729727598600154792e+00 -3.619022547167518589e+00 2.177366002169253179e+01
9.829570099251162318e+00 -2.024943564784465266e+01 1.652809134257716916e+00 -2.024943564784465266e+01 -3.330176154111345710e+00 -1.860441979093471687e+01 1.652809134257716916e+00 -1.860441979093471687e+01 -8.903239405013032126e+00
9.940524620002580747e+00 -2.016403582723362931e+01 1.715590326659369724e+00 -2.016403582723362931e+01 -3.374307852580752165e+00 -1.860425667582743969e+01 1.715590326659369724e+00 -1.860425667582743969e+01 -8.809466342228347457e+00
1.006151978180207252e+01 -2.005971465417822586e+01 1.759377671013409250e+00 -2.005971465417822586e+01 -3.392486125091970006e+00 -1.857665397489564896e+01 1.759377671013409250e+00 -1.857665397489564896e+01 -8.684538293953348642e+00
1.019277307145933875e+01 -1.993667149158734375e+01 1.784026176113365114e+00 -1.993667149158734375e+01 -3.383279183481103569e+00 -1.852152106863530889e+01 1.784026176113365114e+00 -1.852152106863530889e+01 -8.527857171461349139e+00
1.033252647059592810e+01 -1.979552255208847811e+01 1.789318355149532191e+00 -1.979552255208847811e+01 -3.347122001367565325e+00 -1.843860422243508879e+01 1.789318355149532191e+00 -1.843860422243508879e+01 -8.341054125825138499e+00
1.047914882813904924e+01 -1.963682967660670187e+01 1.775181712518675070e+00 -1.963682967660670187e+01 -3.284540171874809289e+00 -1.832746846267557927e+01 1.775181712518675070e+00 -1.832746846267557927e+01 -8.125651564712653041e+00
1.063053777159488078e+01 -1.946135406897598585e+01 1.741670619923220142e+00 -1.946135406897598585e+01 -3.196530509547319099e+00 -1.818755194843170742e+01 1.741670619923220142e+00 -1.818755194843170742e+01 -7.883878727923378626e+00
1.078448218506475520e+01 -1.926980256132787162e+01 1.688984440272064180e+00 -1.926980256132787162e+01 -3.084379811342518707e+00 -1.801812972367113019e+01 1.688984440272064180e+00 -1.801812972367113019e+01 -7.618218589868116730e+00
1.093866220924514110e+01 -1.906308134870279858e+01 1.617485651581382688e+00 -1.906308134870279858e+01 -2.949610484928347098e+00 -1.781829559335339752e+01 1.617485651581382688e+00 -1.781829559335339752e+01 -7.331389735668185637e+00
1.109075798483251774e+01 -1.884202413053796832e+01 1.527645475272204623e+00 -1.884202413053796832e+01 -2.793889929179212750e+00 -1.758707086683483922e+01 1.527645475272204623e+00 -1.758707086683483922e+01 -7.026128874345716646e+00
-1.450382492326549055e+01 -1.302917887943042352e+01 -2.130482451663843424e+00 -1.302917887943042352e+01 -3.766222113853481268e-01 1.478209931479744554e+01 -2.130482451663843424e+00 1.478209931479744554e+01 -3.678167921912794469e+01
-1.434608511851656232e+01 -1.299230535731563307e+01 -2.186078361818927007e+00 -1.299230535731563307e+01 -4.513827707155348423e-01 1.470293457166644480e+01 -2.186078361818927007e+00 1.470293457166644480e+01 -3.666007583460245911e+01
-1.413300738927452471e+01 -1.294787654081450334e+01 -2.240974025177227880e+00 -1.294787654081450334e+01 -4.780842867296932752e-01 1.460735088390561565e+01 -2.240974025177227880e+00 1.460735088390561565e+01 -3.640290098471039926e+01
-1.386411261930999750e+01 -1.289578186464333420e+01 -2.295261579475164737e+00 -1.289578186464333420e+01 -4.553631209288255266e-01 1.449553252698779993e+01 -2.295261579475164737e+00 1.449553252698779993e+01 -3.600950970529683559e+01
-1.354116985316222177e+01 -1.283613189408582400e+01 -2.348959452260021674e+00 -1.283613189408582400e+01 -3.835693967113230629e-01 1.436762692129127039e+01 -2.348959452260021674e+00 1.436762692129127039e+01 -3.548233443260322417e+01
-1.316626140367426245e+01 -1.276914775970938187e+01 -2.401993933342663201e+00 -1.276914775970938187e+01 -2.634770710631033630e-01 1.422363406681602171e+01 -2.401993933342663201e+00 1.422363406681602171e+01 -3.482469212514063628e+01
-1.274196712746584481e+01 -1.269506901962869350e+01 -2.454586153290494899e+00 -1.269506901962869350e+01 -9.622865191575925847e-02 1.406331440544736999e+01 -2.454586153290494899e+00 1.406331440544736999e+01 -3.404082111878434347e+01
-1.227140128002792352e+01 -1.261413523195844810e+01 -2.506883532481786858e+00 -1.261413523195844810e+01 1.166095192115903095e-01 1.388633624133420419e+01 -2.506883532481786858e+00 1.388633624133420419e+01 -3.313602854715206547e+01
-1.175788081987157341e+01 -1.252675180273889133e+01 -2.559162484125794723e+00 -1.252675180273889133e+01 3.731209774014349612e-01 1.369218360315257854e+01 -2.559162484125794723e+00 1.369218360315257854e+01 -3.211622965292188070e+01
-1.120507282890626044e+01 -1.243328728291569441e+01 -2.611736276526342326e+00 -1.243328728291569441e+01 6.712234098107107139e-01 1.348013781655843246e+01 -2.611736276526342326e+00 1.348013781655843246e+01 -3.098776351235939686e+01
1.066593905611544102e+01 9.352384277140494362e+00 -1.987186049086151929e+00 9.352384277140494362e+00 4.134796590484450007e+01 -2.154710129453786749e+01 -1.987186049086151929e+00 -2.154710129453786749e+01 4.962336101238666686e+01
1.070614385735464325e+01 9.288985741737235458e+00 -2.079995916064916628e+00 9.288985741737235458e+00 4.132175069778106291e+01 -2.169674279628307900e+01 -2.079995916064916628e+00 -2.169674279628307900e+01 4.964101829042873248e+01
1.070672020767649002e+01 9.216156019249195808e+00 -2.192576345599187349e+00 9.216156019249195808e+00 4.118981886956171934e+01 -2.177978963811296964e+01 -2.192576345599187349e+00 -2.177978963811296964e+01 4.945478727582681699e+01
1.066728387353308705e+01 9.134733437417242641e+00 -2.324333522205848990e+00 9.134733437417242641e+00 4.095391693631328422e+01 -2.179697535680078957e+01 -2.324333522205848990e+00 -2.179697535680078957e+01 4.906608264664364327e+01
1.058626299041029917e+01 9.045783371078732316e+00 -2.474551374272907722e+00 9.045783371078732316e+00 4.061570408835623169e+01 -2.174906841944235225e+01 -2.474551374272907722e+00 -2.174906841944235225e+01 4.847672077965109594e+01
1.046163159960103073e+01 8.950406125393554291e+00 -2.642304248253154686e+00 8.950406125393554291e+00 4.017755558762302570e+01 -2.163722152668134058e+01 -2.642304248253154686e+00 -2.163722152668134058e+01 4.768926905355558432e+01
1.029101443917281244e+01 8.849684540360334140e+00 -2.826579164793038501e+00 8.849684540360334140e+00 3.964235318572289657e+01 -2.146293668238681818e+01 -2.826579164793038501e+00 -2.146293668238681818e+01 4.670697598835297981e+01
1.007196638654811061e+01 8.744788781784032849e+00 -3.026223423248864286e+00 8.744788781784032849e+00 3.901362484523201601e+01 -2.122811758913701041e+01 -3.026223423248864286e+00 -2.122811758913701041e+01 4.553419040919904148e+01
9.801920063020512330e+00 8.636906480630885952e+00 -3.240014462331862521e+00 8.636906480630885952e+00 3.829577178678994898e+01 -2.093494739209042876e+01 -3.240014462331862521e+00 -2.093494739209042876e+01 4.417613439931293584e+01
9.478622462786431058e+00 8.527155407222050343e+00 -3.466624929785658171e+00 8.527155407222050343e+00 3.749373665103556164e+01 -2.058601093511475355e+01 -3.466624929785658171e+00 -2.058601093511475355e+01 4.263933992900894054e+01
-2.563535339224187481e+01 8.956207521232270707e+00 -4.463812756179669883e+00 8.956207521232270707e+00 -3.106191958049728186e+01 2.045043681909639233e+01 -4.463812756179669883e+00 2.045043681909639233e+01 -5.363365665388398185e+01
-2.545984584140251528e+01 9.074323762008683403e+00 -4.339199743340025783e+00 9.074323762008683403e+00 -3.101043787067843738e+01 2.044272782134206423e+01 -4.339199743340025783e+00 2.044272782134206423e+01 -5.330629889420810485e+01
-2.522073432383333369e+01 9.188500269289027855e+00 -4.214510966394688474e+00 9.188500269289027855e+00 -3.089582571979035563e+01 2.041139936363773444e+01 -4.214510966394688474e+00 2.041139936363773444e+01 -5.279828162450570517e+01
-2.491936365241038231e+01 9.297998343042786829e+00 -4.089841130475774023e+00 9.297998343042786829e+00 -3.071884076888997583e+01 2.035660297419479647e+01 -4.089841130475774023e+00 2.035660297419479647e+01 -5.211354457827285103e+01
-2.455688922974549726e+01 9.402495985820763735e+00 -3.965739525349561756e+00 9.402495985820763735e+00 -3.048056265648341778e+01 2.027831971198682481e+01 -3.965739525349561756e+00 2.027831971198682481e+01 -5.125528878897508633e+01
-2.413452328152978055e+01 9.501424966830258612e+00 -3.842793322835178937e+00 9.501424966830258612e+00 -3.018193843389186526e+01 2.017660640009308537e+01 -3.842793322835178937e+00 2.017660640009308537e+01 -5.022758657729347220e+01
-2.365465237709257451e+01 9.594273878357835628e+00 -3.721513930646055623e+00 9.594273878357835628e+00 -2.982499479094261829e+01 2.005151986159285826e+01 -3.721513930646055623e+00 2.005151986159285826e+01 -4.903636648449850810e+01
-2.311786368825300997e+01 9.680550253716489806e+00 -3.602696871891976738e+00 9.680550253716489806e+00 -2.940992113789991436e+01 1.990336315290891278e+01 -3.602696871891976738e+00 1.990336315290891278e+01 -4.768751916980788508e+01
-2.253072975118000798e+01 9.759117631320812336e+00 -3.486588379916445657e+00 9.759117631320812336e+00 -2.894234295961150139e+01 1.973183321761846898e+01 -3.486588379916445657e+00 1.973183321761846898e+01 -4.619053408745975275e+01
-2.189525831467444661e+01 9.829483544483796464e+00 -3.373965036802823558e+00 9.829483544483796464e+00 -2.842360506895345296e+01 1.953734675830284928e+01 -3.373965036802823558e+00 1.953734675830284928e+01 -4.455457869424301975e+01
1.841464878100036984e+01 2.066848491393464382e+00 7.226384372154243785e+00 2.066848491393464382e+00 3.488520822131317090e+01 1.894380616621732472e+01 7.226384372154243785e+00 1.894380616621732472e+01 3.356798612871940257e+00
1.851331122242845950e+01 1.937791738043221246e+00 7.189498413808786736e+00 1.937791738043221246e+00 3.486269914295410643e+01 1.907238663029194115e+01 7.189498413808786736e+00 1.907238663029194115e+01 3.466627391761854415e+00
1.862157001074317364e+01 1.806088933161740462e+00 7.129239000270728432e+00 1.806088933161740462e+00 3.482944709537821382e+01 1.915806577887342499e+01 7.129239000270728432e+00 1.915806577887342499e+01 3.558939309514974170e+00
1.873921346182200764e+01 1.672428050147143130e+00 7.045976578754443054e+00 1.672428050147143130e+00 3.478527567515008201e+01 1.920131990123739740e+01 7.045976578754443054e+00 1.920131990123739740e+01 3.632270217617347363e+00
1.886495383058643327e+01 1.537832228924842060e+00 6.940081596474303005e+00 1.537832228924842060e+00 3.472977915436825214e+01 1.920255472528530660e+01 6.940081596474303005e+00 1.920255472528530660e+01 3.685244169272730019e+00
1.899729168783541056e+01 1.403254048046082447e+00 6.811871579614055427e+00 1.403254048046082447e+00 3.466242832272647689e+01 1.916219361926215825e+01 6.811871579614055427e+00 1.916219361926215825e+01 3.716344094936546050e+00
1.913451592024540915e+01 1.269610805375027018e+00 6.661575852639743722e+00 1.269610805375027018e+00 3.458255284717017730e+01 1.908067759175648703e+01 6.661575852639743722e+00 1.908067759175648703e+01 3.723911802315885922e+00
1.927466844968331117e+01 1.137749237401671776e+00 6.489335538299697781e+00 1.137749237401671776e+00 3.448942947361414468e+01 1.895853585307454736e+01 6.489335538299697781e+00 1.895853585307454736e+01 3.706077414995342600e+00
1.941570299629828966e+01 1.008392598211221625e+00 6.295238838311626672e+00 1.008392598211221625e+00 3.438221146556838903e+01 1.879624469249195684e+01 6.295238838311626672e+00 1.879624469249195684e+01 3.660671170719300260e+00
1.955552035920889864e+01 8.822994225759650533e-01 6.079232831644906909e+00 8.822994225759650533e-01 3.426015792860415132e+01 1.859426275894079694e+01 6.079232831644906909e+00 1.859426275894079694e+01 3.585593868606310242e+00