 vasp.6.1.1 19Jun20 (build Dec 21 2021 08:45:49) complex                        
  
 executed on             LinuxIFC date 2023.10.08  07:37:58
 running on   40 total cores
 distrk:  each k-point on   40 cores,    1 groups
 distr:  one band on NCORE=   1 cores,   40 groups


--------------------------------------------------------------------------------------------------------


 INCAR:
 POTCAR:   PAW_PBE Te 08Apr2002                   
 POTCAR:   PAW_PBE Mo 08Apr2002                   
 -----------------------------------------------------------------------------
|                                                                             |
|           W    W    AA    RRRRR   N    N  II  N    N   GGGG   !!!           |
|           W    W   A  A   R    R  NN   N  II  NN   N  G    G  !!!           |
|           W    W  A    A  R    R  N N  N  II  N N  N  G       !!!           |
|           W WW W  AAAAAA  RRRRR   N  N N  II  N  N N  G  GGG   !            |
|           WW  WW  A    A  R   R   N   NN  II  N   NN  G    G                |
|           W    W  A    A  R    R  N    N  II  N    N   GGGG   !!!           |
|                                                                             |
|     For optimal performance we recommend to set                             |
|       NCORE = 4 - approx SQRT(number of cores).                             |
|     NCORE specifies how many cores store one orbital (NPAR=cpu/NCORE).      |
|     This setting can greatly improve the performance of VASP for DFT.       |
|     The default, NCORE=1 might be grossly inefficient on modern             |
|     multi-core architectures or massively parallel machines. Do your        |
|     own testing!!!!                                                         |
|     Unfortunately you need to use the default for GW and RPA                |
|     calculations (for HF NCORE is supported but not extensively tested      |
|     yet).                                                                   |
|                                                                             |
 -----------------------------------------------------------------------------

 POTCAR:   PAW_PBE Te 08Apr2002                   
   VRHFIN =Te: s2p4                                                                                 
   LEXCH  = PE                                                                                      
   EATOM  =   223.2721 eV,   16.4100 Ry                                                             
                                                                                                    
   TITEL  = PAW_PBE Te 08Apr2002                                                                    
   LULTRA =        F    use ultrasoft PP ?                                                          
   IUNSCR =        1    unscreen: 0-lin 1-nonlin 2-no                                               
   RPACOR =    2.200    partial core radius                                                         
   POMASS =  127.600; ZVAL   =    6.000    mass and valenz                                          
   RCORE  =    2.300    outmost cutoff radius                                                       
   RWIGS  =    2.900; RWIGS  =    1.535    wigner-seitz radius (au A)                               
   ENMAX  =  174.982; ENMIN  =  131.236 eV                                                          
   ICORE  =        3    local potential                                                             
   LCOR   =        T    correct aug charges                                                         
   LPAW   =        T    paw PP                                                                      
   EAUG   =  368.792                                                                                
   DEXC   =    -.169                                                                                
   RMAX   =    3.486    core radius for proj-oper                                                   
   RAUG   =    1.300    factor for augmentation sphere                                              
   RDEP   =    2.397    radius for radial grids                                                     
   QCUT   =   -3.586; QGAM   =    7.172    optimization parameters                                  
                                                                                                    
   Description                                                                                      
     l     E      TYP  RCUT    TYP  RCUT                                                            
     0   .000     23  2.300                                                                         
     0   .000     23  2.300                                                                         
     1   .000     23  2.300                                                                         
     1   .000     23  2.300                                                                         
     2   .000     23  2.300                                                                         
     3  -.100     23  2.300                                                                         
  local pseudopotential read in
  partial core-charges read in
  atomic valenz-charges read in
  non local Contribution for L=           0  read in
    real space projection operators read in
  non local Contribution for L=           0  read in
    real space projection operators read in
  non local Contribution for L=           1  read in
    real space projection operators read in
  non local Contribution for L=           1  read in
    real space projection operators read in
  non local Contribution for L=           2  read in
    real space projection operators read in
    PAW grid and wavefunctions read in
 
   number of l-projection  operators is LMAX  =           5
   number of lm-projection operators is LMMAX =          13
 
 POTCAR:   PAW_PBE Mo 08Apr2002                   
   VRHFIN =Mo: 4p5s4d                                                                               
   LEXCH  = PE                                                                                      
   EATOM  =   217.5180 eV,   15.9871 Ry                                                             
                                                                                                    
   TITEL  = PAW_PBE Mo 08Apr2002                                                                    
   LULTRA =        F    use ultrasoft PP ?                                                          
   IUNSCR =        1    unscreen: 0-lin 1-nonlin 2-no                                               
   RPACOR =    2.200    partial core radius                                                         
   POMASS =   95.940; ZVAL   =    6.000    mass and valenz                                          
   RCORE  =    2.750    outmost cutoff radius                                                       
   RWIGS  =    2.750; RWIGS  =    1.455    wigner-seitz radius (au A)                               
   ENMAX  =  224.584; ENMIN  =  168.438 eV                                                          
   RCLOC  =    2.111    cutoff for local pot                                                        
   LCOR   =        T    correct aug charges                                                         
   LPAW   =        T    paw PP                                                                      
   EAUG   =  345.278                                                                                
   DEXC   =    -.088                                                                                
   RMAX   =    3.077    core radius for proj-oper                                                   
   RAUG   =    1.300    factor for augmentation sphere                                              
   RDEP   =    2.815    radius for radial grids                                                     
   QCUT   =   -4.063; QGAM   =    8.126    optimization parameters                                  
                                                                                                    
   Description                                                                                      
     l     E      TYP  RCUT    TYP  RCUT                                                            
     2   .000     23  2.500                                                                         
     2   .000     23  2.500                                                                         
     0   .000     23  2.600                                                                         
     0  1.000     23  2.600                                                                         
     1   .400     23  2.750                                                                         
     1  2.000     23  2.750                                                                         
     3   .000      7   .000                                                                         
  local pseudopotential read in
  partial core-charges read in
  atomic valenz-charges read in
  non local Contribution for L=           2  read in
    real space projection operators read in
  non local Contribution for L=           2  read in
    real space projection operators read in
  non local Contribution for L=           0  read in
    real space projection operators read in
  non local Contribution for L=           0  read in
    real space projection operators read in
  non local Contribution for L=           1  read in
    real space projection operators read in
  non local Contribution for L=           1  read in
    real space projection operators read in
    PAW grid and wavefunctions read in
 
   number of l-projection  operators is LMAX  =           6
   number of lm-projection operators is LMMAX =          18
 
 -----------------------------------------------------------------------------
|                                                                             |
|               ----> ADVICE to this user running VASP <----                  |
|                                                                             |
|     You have a (more or less) 'large supercell' and for larger cells it     |
|     might be more efficient to use real-space projection operators.         |
|     Therefore, try LREAL= Auto in the INCAR file.                           |
|     Mind: If you want to do very accurate calculations, keep the            |
|     reciprocal projection scheme (i.e. LREAL=.FALSE.).                      |
|                                                                             |
 -----------------------------------------------------------------------------

 PAW_PBE Te 08Apr2002                   :
 energy of atom  1       EATOM= -223.2721
 kinetic energy error for atom=    0.0006 (will be added to EATOM!!)
 PAW_PBE Mo 08Apr2002                   :
 energy of atom  2       EATOM= -217.5180
 kinetic energy error for atom=    0.0009 (will be added to EATOM!!)
 
 
 POSCAR: Te Mo
  positions in cartesian coordinates
  No initial velocities read in
 exchange correlation table for  LEXCH =        8
   RHO(1)=    0.500       N(1)  =     2000
   RHO(2)=  100.500       N(2)  =     4000
 


--------------------------------------------------------------------------------------------------------


 ion  position               nearest neighbor table
   1  0.112  0.223  0.321-  37 2.71  38 2.74  41 2.76   4 3.50   7 3.50   5 3.53   2 3.54   9 3.55
                             3 3.55  19 3.65
   2  0.110  0.555  0.321-  38 2.71  39 2.74  42 2.77   8 3.50   5 3.50   7 3.54   1 3.54   6 3.55
                             3 3.55  20 3.66
   3  0.111  0.889  0.321-  39 2.71  37 2.73  40 2.76   6 3.50   9 3.50   8 3.54   4 3.54   2 3.55
                             1 3.55  21 3.65
   4  0.444  0.222  0.321-  40 2.72  41 2.74  44 2.76   1 3.50   7 3.50   5 3.54   3 3.54   8 3.54
                             6 3.55  22 3.65
   5  0.444  0.555  0.321-  41 2.70  42 2.73  45 2.76   8 3.50   2 3.50   1 3.53   4 3.54   9 3.55
                             6 3.55  23 3.64
   6  0.444  0.889  0.321-  42 2.71  40 2.74  43 2.76   3 3.50   9 3.50   7 3.54   4 3.55   2 3.55
                             5 3.55  24 3.66
   7  0.778  0.222  0.321-  43 2.71  44 2.73  38 2.76   4 3.50   1 3.50   2 3.54   6 3.54   9 3.55
                             8 3.55  25 3.65
   8  0.778  0.556  0.321-  44 2.70  45 2.73  39 2.76   5 3.50   2 3.50   3 3.54   9 3.54   4 3.54
                             7 3.55  26 3.64
   9  0.778  0.889  0.321-  45 2.71  43 2.73  37 2.76   3 3.50   6 3.50   8 3.54   1 3.55   7 3.55
                             5 3.55  27 3.64
  10  0.332  0.277  0.559-  46 2.70  47 2.73  50 2.76  16 3.50  13 3.50  18 3.53  12 3.55  14 3.55
                            11 3.56  28 3.65
  11  0.334  0.612  0.558-  47 2.71  48 2.73  51 2.77  14 3.50  17 3.51  12 3.54  15 3.54  16 3.55
                            10 3.56  29 3.65
  12  0.334  0.944  0.558-  48 2.70  46 2.74  49 2.76  15 3.50  18 3.50  13 3.54  11 3.54  17 3.55
                            10 3.55  30 3.65
  13  0.666  0.277  0.558-  49 2.71  50 2.73  53 2.77  10 3.50  16 3.51  12 3.54  17 3.54  15 3.55
                            14 3.55  31 3.65
  14  0.666  0.611  0.559-  50 2.70  51 2.74  54 2.76  11 3.50  17 3.50  18 3.55  10 3.55  13 3.55
                            15 3.55  32 3.65
  15  0.667  0.945  0.558-  51 2.71  49 2.74  52 2.75  18 3.50  12 3.50  16 3.54  11 3.54  13 3.55
                            14 3.55  33 3.65
  16  0.000  0.278  0.558-  52 2.71  53 2.73  47 2.76  10 3.50  13 3.51  15 3.54  18 3.55  11 3.55
                            17 3.55  34 3.65
  17  0.999  0.611  0.558-  53 2.71  54 2.73  48 2.77  14 3.50  11 3.51  13 3.54  12 3.55  18 3.55
                            16 3.55  35 3.65
  18  0.000  0.945  0.558-  54 2.71  52 2.73  46 2.76  15 3.50  12 3.50  10 3.53  16 3.55  14 3.55
                            17 3.55  36 3.64
  19  0.111  0.222  0.442-  41 2.70  38 2.73  37 2.79  22 3.50  25 3.50  23 3.54  27 3.55  21 3.55
                            20 3.55   1 3.65
  20  0.111  0.555  0.442-  42 2.70  39 2.72  38 2.79  23 3.50  26 3.50  25 3.54  24 3.54  19 3.55
                            21 3.55   2 3.66
  21  0.112  0.889  0.442-  40 2.69  37 2.73  39 2.79  24 3.49  27 3.51  22 3.53  19 3.55  20 3.55
                            26 3.55   3 3.65
  22  0.444  0.222  0.442-  44 2.71  41 2.72  40 2.79  19 3.50  25 3.50  21 3.53  26 3.54  24 3.55
                            23 3.55   4 3.65
  23  0.445  0.556  0.442-  45 2.70  42 2.73  41 2.79  26 3.50  20 3.50  27 3.54  19 3.54  22 3.55
                            24 3.55   5 3.64
  24  0.444  0.889  0.442-  43 2.70  40 2.72  42 2.79  21 3.49  27 3.51  25 3.54  20 3.54  22 3.55
                            23 3.55   6 3.66
  25  0.778  0.222  0.442-  38 2.70  44 2.73  43 2.79  22 3.50  19 3.50  20 3.54  24 3.54  26 3.55
                            27 3.55   7 3.65
  26  0.777  0.555  0.441-  39 2.70  45 2.73  44 2.79  23 3.50  20 3.50  22 3.54  25 3.55  27 3.55
                            21 3.55   8 3.64
  27  0.778  0.889  0.441-  37 2.70  43 2.72  45 2.78  24 3.51  21 3.51  23 3.54  19 3.55  26 3.55
                            25 3.55   9 3.64
  28  0.334  0.278  0.680-  50 2.71  47 2.73  46 2.80  31 3.50  34 3.51  32 3.53  29 3.54  36 3.55
                            30 3.55  10 3.65
  29  0.333  0.611  0.679-  51 2.70  48 2.73  47 2.79  32 3.49  35 3.50  33 3.54  34 3.54  28 3.54
                            30 3.55  11 3.65
  30  0.334  0.945  0.679-  49 2.69  46 2.72  48 2.79  33 3.50  36 3.51  31 3.54  35 3.54  29 3.55
                            28 3.55  12 3.65
  31  0.667  0.278  0.679-  53 2.70  50 2.73  49 2.79  34 3.50  28 3.50  30 3.54  32 3.55  35 3.55
                            33 3.55  13 3.65
  32  0.666  0.611  0.679-  54 2.71  51 2.71  50 2.79  29 3.49  35 3.51  28 3.53  36 3.54  33 3.55
                            31 3.55  14 3.65
  33  0.666  0.944  0.679-  52 2.69  49 2.72  51 2.78  30 3.50  36 3.50  29 3.54  32 3.55  34 3.55
                            31 3.55  15 3.65
  34  1.000  0.278  0.679-  47 2.70  53 2.72  52 2.80  31 3.50  28 3.51  29 3.54  35 3.54  33 3.55
                            36 3.56  16 3.65
  35  0.001  0.612  0.679-  48 2.70  54 2.72  53 2.80  29 3.50  32 3.51  30 3.54  36 3.54  34 3.54
                            31 3.55  17 3.65
  36  1.000  0.944  0.679-  46 2.69  52 2.72  54 2.79  33 3.50  30 3.51  35 3.54  32 3.54  28 3.55
                            34 3.56  18 3.64
  37  0.001  0.000  0.381-  27 2.70   1 2.71  21 2.73   3 2.73   9 2.76  19 2.79
  38  0.000  0.333  0.381-  25 2.70   2 2.71  19 2.73   1 2.74   7 2.76  20 2.79
  39  0.000  0.667  0.381-  26 2.70   3 2.71  20 2.72   2 2.74   8 2.76  21 2.79
  40  0.333  0.999  0.381-  21 2.69   4 2.72  24 2.72   6 2.74   3 2.76  22 2.79
  41  0.333  0.333  0.381-  19 2.70   5 2.70  22 2.72   4 2.74   1 2.76  23 2.79
  42  0.333  0.667  0.381-  20 2.70   6 2.71  23 2.73   5 2.73   2 2.77  24 2.79
  43  0.667  1.000  0.381-  24 2.70   7 2.71  27 2.72   9 2.73   6 2.76  25 2.79
  44  0.667  0.334  0.381-   8 2.70  22 2.71  25 2.73   7 2.73   4 2.76  26 2.79
  45  0.667  0.667  0.381-  23 2.70   9 2.71  26 2.73   8 2.73   5 2.76  27 2.78
  46  0.222  0.055  0.619-  36 2.69  10 2.70  30 2.72  12 2.74  18 2.76  28 2.80
  47  0.222  0.389  0.619-  34 2.70  11 2.71  28 2.73  10 2.73  16 2.76  29 2.79
  48  0.223  0.723  0.619-  35 2.70  12 2.70  29 2.73  11 2.73  17 2.77  30 2.79
  49  0.556  0.056  0.619-  30 2.69  13 2.71  33 2.72  15 2.74  12 2.76  31 2.79
  50  0.556  0.389  0.619-  14 2.70  28 2.71  31 2.73  13 2.73  10 2.76  32 2.79
  51  0.556  0.722  0.619-  29 2.70  15 2.71  32 2.71  14 2.74  11 2.77  33 2.78
  52  0.888  0.055  0.619-  33 2.69  16 2.71  36 2.72  18 2.73  15 2.75  34 2.80
  53  0.889  0.389  0.619-  31 2.70  17 2.71  34 2.72  16 2.73  13 2.77  35 2.80
  54  0.889  0.722  0.619-  32 2.71  18 2.71  35 2.72  17 2.73  14 2.76  36 2.79
 

IMPORTANT INFORMATION: All symmetrisations will be switched off!
NOSYMM: (Re-)initialisation of all symmetry stuff for point group C_1.


----------------------------------------------------------------------------------------

                                     Primitive cell                                     

  volume of cell :    2932.3718

  direct lattice vectors                    reciprocal lattice vectors
    10.506085760  0.000000000  0.000000000     0.095182928  0.054245786 -0.002655869
    -5.271741865  9.250116211  0.000000000     0.000000000  0.108106750 -0.003191508
     0.334265264  0.890787423 30.173861779     0.000000000  0.000000000  0.033141267

  length of vectors
    10.506085760 10.646873353 30.188858378     0.109587630  0.108153849  0.033141267

  position of ions in fractional coordinates (direct lattice)
     0.111651392  0.222929656  0.320600799
     0.110463447  0.554898622  0.320525027
     0.111110238  0.888887676  0.320713859
     0.444405799  0.222393250  0.320649715
     0.443872870  0.554851536  0.320899378
     0.444418620  0.888999031  0.320695864
     0.777795277  0.222233969  0.320702347
     0.777581369  0.556024097  0.320775664
     0.777873864  0.888975057  0.320706530
     0.332425843  0.276941285  0.558554703
     0.333814840  0.611696467  0.558415007
     0.333512349  0.944182079  0.558385496
     0.665940905  0.277299172  0.558390958
     0.666292029  0.610872012  0.558556855
     0.667358602  0.944897912  0.558470008
     0.000031937  0.277781035  0.558442738
     0.999274968  0.611005141  0.558424025
     0.000164239  0.944703219  0.558459315
     0.111228587  0.222208172  0.441639381
     0.111042145  0.555361814  0.441638887
     0.111968921  0.889399738  0.441706799
     0.444160446  0.221964124  0.441626251
     0.444509551  0.555580571  0.441595286
     0.444388008  0.888956597  0.441829933
     0.777721159  0.222238080  0.441564035
     0.777367347  0.555093379  0.441443894
     0.777839294  0.888553670  0.441433347
     0.333629647  0.278445908  0.679548404
     0.333371802  0.610935262  0.679372534
     0.333983427  0.944817523  0.679186674
     0.666649756  0.277828972  0.679315798
     0.665841126  0.610843399  0.679325025
     0.666370893  0.944076364  0.679327496
     0.999649007  0.278276885  0.679367066
     0.000869869  0.611822056  0.679390446
     0.999640895  0.943984102  0.679056360
     0.000652053  0.000135566  0.381112326
     0.000000183  0.333332712  0.381115374
     0.000110683  0.666690336  0.381160968
     0.332882550  0.999075652  0.381289592
     0.333395164  0.333367201  0.381119757
     0.333327830  0.666722074  0.381086149
     0.666912556  0.999506000  0.381208162
     0.667289924  0.333530091  0.380868499
     0.666542410  0.666761279  0.381027899
     0.222273256  0.055331475  0.618813024
     0.222423355  0.388625782  0.618746486
     0.222736805  0.722614797  0.618690202
     0.555702552  0.055518638  0.618961699
     0.555834788  0.389223672  0.618597450
     0.556056783  0.722431478  0.619046118
     0.888021051  0.054729520  0.618726706
     0.889034173  0.388624010  0.618741950
     0.889184242  0.721685009  0.618730789

  ion indices of the primitive-cell ions
   primitive index   ion index
                 1           1
                 2           2
                 3           3
                 4           4
                 5           5
                 6           6
                 7           7
                 8           8
                 9           9
                10          10
                11          11
                12          12
                13          13
                14          14
                15          15
                16          16
                17          17
                18          18
                19          19
                20          20
                21          21
                22          22
                23          23
                24          24
                25          25
                26          26
                27          27
                28          28
                29          29
                30          30
                31          31
                32          32
                33          33
                34          34
                35          35
                36          36
                37          37
                38          38
                39          39
                40          40
                41          41
                42          42
                43          43
                44          44
                45          45
                46          46
                47          47
                48          48
                49          49
                50          50
                51          51
                52          52
                53          53
                54          54

----------------------------------------------------------------------------------------

 
 

Automatic generation of k-mesh.
 generate k-points for:    3    3    1
Space group operators:
 irot       det(A)        alpha          n_x          n_y          n_z        tau_x        tau_y        tau_z
    1     1.000000     0.000001     1.000000     0.000000     0.000000     0.000000     0.000000     0.000000
 
 Subroutine IBZKPT returns following result:
 ===========================================
 
 Found      5 irreducible k-points:
 
 Following reciprocal coordinates:
            Coordinates               Weight
  0.000000  0.000000  0.000000      1.000000
  0.333333  0.000000 -0.000000      2.000000
  0.000000  0.333333  0.000000      2.000000
  0.333333  0.333333  0.000000      2.000000
 -0.333333  0.333333 -0.000000      2.000000
 
 Following cartesian coordinates:
            Coordinates               Weight
  0.000000  0.000000  0.000000      1.000000
  0.031728  0.018082 -0.000885      2.000000
  0.000000  0.036036 -0.001064      2.000000
  0.031728  0.054118 -0.001949      2.000000
 -0.031728  0.017954 -0.000179      2.000000
 


--------------------------------------------------------------------------------------------------------




 Dimension of arrays:
   k-points           NKPTS =      5   k-points in BZ     NKDIM =      5   number of bands    NBANDS=    200
   number of dos      NEDOS =    301   number of ions     NIONS =     54
   non local maximal  LDIM  =      6   non local SUM 2l+1 LMDIM =     18
   total plane-waves  NPLWV = ******
   max r-space proj   IRMAX =      1   max aug-charges    IRDMAX=  35508
   dimension x,y,z NGX =    80 NGY =   84 NGZ =  240
   dimension x,y,z NGXF=   160 NGYF=  168 NGZF=  480
   support grid    NGXF=   160 NGYF=  168 NGZF=  480
   ions per type =              36  18
   NGX,Y,Z   is equivalent  to a cutoff of  12.66, 13.12, 13.22 a.u.
   NGXF,Y,Z  is equivalent  to a cutoff of  25.32, 26.23, 26.43 a.u.

 SYSTEM =  dpgen_md                                
 POSCAR =  Te Mo                                   

 Startparameter for this run:
   NWRITE =      2    write-flag & timer
   PREC   = a         normal or accurate (medium, high low for compatibility)
   ISTART =      0    job   : 0-new  1-cont  2-samecut
   ICHARG =      2    charge: 1-file 2-atom 10-const
   ISPIN  =      1    spin polarized calculation?
   LNONCOLLINEAR =      F non collinear calculations
   LSORBIT =      F    spin-orbit coupling
   INIWAV =      1    electr: 0-lowe 1-rand  2-diag
   LASPH  =      F    aspherical Exc in radial PAW
   METAGGA=      F    non-selfconsistent MetaGGA calc.

 Electronic Relaxation 1
   ENCUT  =  550.0 eV  40.42 Ry    6.36 a.u.  20.09 20.36 57.73*2*pi/ulx,y,z
   ENINI  =  550.0     initial cutoff
   ENAUG  =  368.8 eV  augmentation charge cutoff
   NELM   =    100;   NELMIN=  6; NELMDL= -5     # of ELM steps 
   EDIFF  = 0.1E-05   stopping-criterion for ELM
   LREAL  =      F    real-space projection
   NLSPLINE    = F    spline interpolate recip. space projectors
   LCOMPAT=      F    compatible to vasp.4.4
   GGA_COMPAT  = T    GGA compatible to vasp.4.4-vasp.4.6
   LMAXPAW     = -100 max onsite density
   LMAXMIX     =    2 max onsite mixed and CHGCAR
   VOSKOWN=      0    Vosko Wilk Nusair interpolation
   ROPT   =    0.00000   0.00000
 Ionic relaxation
   EDIFFG = 0.1E-04   stopping-criterion for IOM
   NSW    =     10    number of steps for IOM
   NBLOCK =      1;   KBLOCK =      1    inner block; outer block 
   IBRION =      0    ionic relax: 0-MD 1-quasi-New 2-CG
   NFREE  =      0    steps in history (QN), initial steepest desc. (CG)
   ISIF   =      2    stress and relaxation
   IWAVPR =     11    prediction:  0-non 1-charg 2-wave 3-comb
   ISYM   =      0    0-nonsym 1-usesym 2-fastsym
   LCORR  =      T    Harris-Foulkes like correction to forces

   POTIM  = 2.0000    time-step for ionic-motion
   TEIN   =  100.0    initial temperature
   TEBEG  =  100.0;   TEEND  = 100.0 temperature during run
   SMASS  =   0.04    Nose mass-parameter (am)
   estimated Nose-frequenzy (Omega)   =  0.79E+14 period in steps = 0.40E+02 mass=   0.327E-28a.u.
   SCALEE = 1.0000    scale energy and forces
   NPACO  =    256;   APACO  = 16.0  distance and # of slots for P.C.
   PSTRESS=    0.0 pullay stress

  Mass of Ions in am
   POMASS = 127.60 95.94
  Ionic Valenz
   ZVAL   =   6.00  6.00
  Atomic Wigner-Seitz radii
   RWIGS  =  -1.00 -1.00
  virtual crystal weights 
   VCA    =   1.00  1.00
   NELECT =     324.0000    total number of electrons
   NUPDOWN=      -1.0000    fix difference up-down

 DOS related values:
   EMIN   =  10.00;   EMAX   =-10.00  energy-range for DOS
   EFERMI =   0.00
   ISMEAR =     0;   SIGMA  =   0.10  broadening in eV -4-tet -1-fermi 0-gaus

 Electronic relaxation 2 (details)
   IALGO  =     68    algorithm
   LDIAG  =      T    sub-space diagonalisation (order eigenvalues)
   LSUBROT=      F    optimize rotation matrix (better conditioning)
   TURBO    =      0    0=normal 1=particle mesh
   IRESTART =      0    0=no restart 2=restart with 2 vectors
   NREBOOT  =      0    no. of reboots
   NMIN     =      0    reboot dimension
   EREF     =   0.00    reference energy to select bands
   IMIX   =      4    mixing-type and parameters
     AMIX     =   0.40;   BMIX     =  1.00
     AMIX_MAG =   1.60;   BMIX_MAG =  1.00
     AMIN     =   0.10
     WC   =   100.;   INIMIX=   1;  MIXPRE=   1;  MAXMIX= -45

 Intra band minimization:
   WEIMIN = 0.0010     energy-eigenvalue tresh-hold
   EBREAK =  0.13E-08  absolut break condition
   DEPER  =   0.30     relativ break condition  

   TIME   =   0.40     timestep for ELM

  volume/ion in A,a.u.               =      54.30       366.46
  Fermi-wavevector in a.u.,A,eV,Ry     =   0.785567  1.484507  8.396376  0.617116
  Thomas-Fermi vector in A             =   1.889930
 
 Write flags
   LWAVE        =      F    write WAVECAR
   LDOWNSAMPLE  =      F    k-point downsampling of WAVECAR
   LCHARG       =      F    write CHGCAR
   LVTOT        =      F    write LOCPOT, total local potential
   LVHAR        =      F    write LOCPOT, Hartree potential only
   LELF         =      F    write electronic localiz. function (ELF)
   LORBIT       =      0    0 simple, 1 ext, 2 COOP (PROOUT), +10 PAW based schemes


 Dipole corrections
   LMONO  =      F    monopole corrections only (constant potential shift)
   LDIPOL =      F    correct potential (dipole corrections)
   IDIPOL =      0    1-x, 2-y, 3-z, 4-all directions 
   EPSILON=  1.0000000 bulk dielectric constant

 Exchange correlation treatment:
   GGA     =    --    GGA type
   LEXCH   =     8    internal setting for exchange type
   VOSKOWN=      0    Vosko Wilk Nusair interpolation
   LHFCALC =     F    Hartree Fock is set to
   LHFONE  =     F    Hartree Fock one center treatment
   AEXX    =    0.0000 exact exchange contribution

 Linear response parameters
   LEPSILON=     F    determine dielectric tensor
   LRPA    =     F    only Hartree local field effects (RPA)
   LNABLA  =     F    use nabla operator in PAW spheres
   LVEL    =     F    velocity operator in full k-point grid
   LINTERFAST=   F  fast interpolation
   KINTER  =     0    interpolate to denser k-point grid
   CSHIFT  =0.1000    complex shift for real part using Kramers Kronig
   OMEGAMAX=  -1.0    maximum frequency
   DEG_THRESHOLD= 0.2000000E-02 threshold for treating states as degnerate
   RTIME   =   -0.100 relaxation time in fs
  (WPLASMAI=    0.000 imaginary part of plasma frequency in eV, 0.658/RTIME)
   DFIELD  = 0.0000000 0.0000000 0.0000000 field for delta impulse in time
 
 Orbital magnetization related:
   ORBITALMAG=     F  switch on orbital magnetization
   LCHIMAG   =     F  perturbation theory with respect to B field
   DQ        =  0.001000  dq finite difference perturbation B field
   LLRAUG    =     F  two centre corrections for induced B field



--------------------------------------------------------------------------------------------------------


 molecular dynamics for ions
   using nose mass (canonical ensemble)
 charge density and potential will be updated during run
 non-spin polarized calculation
 RMM-DIIS sequential band-by-band and
  variant of blocked Davidson during initial phase
 perform sub-space diagonalisation
    before iterative eigenvector-optimisation
 modified Broyden-mixing scheme, WC =      100.0
 initial mixing is a Kerker type mixing with AMIX =  0.4000 and BMIX =      1.0000
 Hartree-type preconditioning will be used
 using additional bands           38
 reciprocal scheme for non local part
 use partial core corrections
 calculate Harris-corrections to forces 
   (improved forces if not selfconsistent)
 use gradient corrections 
 use of overlap-Matrix (Vanderbilt PP)
 Gauss-broadening in eV      SIGMA  =   0.10


--------------------------------------------------------------------------------------------------------


  energy-cutoff  :      550.00
  volume of cell :     2932.37
      direct lattice vectors                 reciprocal lattice vectors
    10.506085760  0.000000000  0.000000000     0.095182928  0.054245786 -0.002655869
    -5.271741865  9.250116211  0.000000000     0.000000000  0.108106750 -0.003191508
     0.334265264  0.890787423 30.173861779     0.000000000  0.000000000  0.033141267

  length of vectors
    10.506085760 10.646873353 30.188858378     0.109587630  0.108153849  0.033141267


 
 k-points in units of 2pi/SCALE and weight: read from INCAR                         
   0.00000000  0.00000000  0.00000000       0.111
   0.03172764  0.01808193 -0.00088529       0.222
   0.00000000  0.03603558 -0.00106384       0.222
   0.03172764  0.05411751 -0.00194913       0.222
  -0.03172764  0.01795365 -0.00017855       0.222
 
 k-points in reciprocal lattice and weights: read from INCAR                         
   0.00000000  0.00000000  0.00000000       0.111
   0.33333333  0.00000000 -0.00000000       0.222
   0.00000000  0.33333333  0.00000000       0.222
   0.33333333  0.33333333  0.00000000       0.222
  -0.33333333  0.33333333 -0.00000000       0.222
 
 position of ions in fractional coordinates (direct lattice) 
   0.11165139  0.22292966  0.32060080
   0.11046345  0.55489862  0.32052503
   0.11111024  0.88888768  0.32071386
   0.44440580  0.22239325  0.32064971
   0.44387287  0.55485154  0.32089938
   0.44441862  0.88899903  0.32069586
   0.77779528  0.22223397  0.32070235
   0.77758137  0.55602410  0.32077566
   0.77787386  0.88897506  0.32070653
   0.33242584  0.27694129  0.55855470
   0.33381484  0.61169647  0.55841501
   0.33351235  0.94418208  0.55838550
   0.66594091  0.27729917  0.55839096
   0.66629203  0.61087201  0.55855686
   0.66735860  0.94489791  0.55847001
   0.00003194  0.27778104  0.55844274
   0.99927497  0.61100514  0.55842403
   0.00016424  0.94470322  0.55845932
   0.11122859  0.22220817  0.44163938
   0.11104215  0.55536181  0.44163889
   0.11196892  0.88939974  0.44170680
   0.44416045  0.22196412  0.44162625
   0.44450955  0.55558057  0.44159529
   0.44438801  0.88895660  0.44182993
   0.77772116  0.22223808  0.44156403
   0.77736735  0.55509338  0.44144389
   0.77783929  0.88855367  0.44143335
   0.33362965  0.27844591  0.67954840
   0.33337180  0.61093526  0.67937253
   0.33398343  0.94481752  0.67918667
   0.66664976  0.27782897  0.67931580
   0.66584113  0.61084340  0.67932503
   0.66637089  0.94407636  0.67932750
   0.99964901  0.27827689  0.67936707
   0.00086987  0.61182206  0.67939045
   0.99964089  0.94398410  0.67905636
   0.00065205  0.00013557  0.38111233
   0.00000018  0.33333271  0.38111537
   0.00011068  0.66669034  0.38116097
   0.33288255  0.99907565  0.38128959
   0.33339516  0.33336720  0.38111976
   0.33332783  0.66672207  0.38108615
   0.66691256  0.99950600  0.38120816
   0.66728992  0.33353009  0.38086850
   0.66654241  0.66676128  0.38102790
   0.22227326  0.05533148  0.61881302
   0.22242336  0.38862578  0.61874649
   0.22273680  0.72261480  0.61869020
   0.55570255  0.05551864  0.61896170
   0.55583479  0.38922367  0.61859745
   0.55605678  0.72243148  0.61904612
   0.88802105  0.05472952  0.61872671
   0.88903417  0.38862401  0.61874195
   0.88918424  0.72168501  0.61873079
 
 position of ions in cartesian coordinates  (Angst):
   0.10495721  2.34771239  9.67376419
  -1.65760346  5.41839640  9.67147787
  -3.41144918  8.50800217  9.67717564
   3.60374769  2.34279414  9.67524017
   1.84559788  5.41829432  9.68277346
   0.08972421  8.50901619  9.67663266
   7.10722342  2.34136765  9.67682830
   5.34534520  5.42903044  9.67904054
   3.59316355  8.50880393  9.67695452
   2.21923689  3.05929258 16.85375242
   0.46904020  6.15569247 16.84953722
  -1.28692598  9.23119673 16.84864679
   5.72123331  3.06245721 16.84881157
   3.96646779  6.14819252 16.85381735
   2.21674596  9.23789355 16.85119682
  -1.27738637  3.06696062 16.85037398
   7.46406888  6.14930566 16.84980935
  -4.79183245  9.23608310 16.85087419
   0.14477766  2.44885822 13.32596563
  -1.61348128  5.53056768 13.32595074
  -3.36468351  8.62051780 13.32799989
   3.64387049  2.44658905 13.32556945
   1.88878807  5.53255238 13.32463512
   0.13011721  8.61652838 13.33171534
   7.14682293  2.44906776 13.32369215
   5.38833837  5.52791093 13.32006705
   3.63537658  8.61244798 13.31974879
   2.26439616  3.18099018 20.50459960
   0.50883039  6.25639868 20.49929295
  -1.24494705  9.34468283 20.49368483
   5.76630856  3.17507625 20.49758101
   4.00225001  6.25550661 20.49785941
   2.25109844  9.33795247 20.49793397
   9.26248310  3.17926517 20.49912795
  -2.98913240  6.26461759 20.49983342
   5.75285741  9.33685751 20.48975274
   0.13352847  0.34074407 11.49963065
  -1.62984846  3.42285910 11.49972262
  -3.38604764  6.50649648 11.50109836
  -1.64212446  9.58121385 11.50497944
   1.87264745  3.42318204 11.49985487
   0.11456796  6.50672341 11.49884080
   1.86492753  9.58512209 11.50252239
   5.37963173  3.42446497 11.49227344
   3.61512276  6.50703417 11.49708315
   2.25037633  1.06305344 18.67197867
   0.49488950  4.14600523 18.66997095
  -1.26254006  7.23539230 18.66827264
   5.75247613  1.06491715 18.67646474
   3.99453686  4.15140302 18.66547395
   2.24043360  7.23401362 18.67901201
   9.24792427  1.05740839 18.66937411
   7.49836775  4.14598480 18.66983408
   5.74412904  7.22682781 18.66949731
 


--------------------------------------------------------------------------------------------------------


 k-point   1 :   0.0000 0.0000 0.0000  plane waves:   85861
 k-point   2 :   0.3333 0.0000-0.0000  plane waves:   85895
 k-point   3 :   0.0000 0.3333 0.0000  plane waves:   85782
 k-point   4 :   0.3333 0.3333 0.0000  plane waves:   85867
 k-point   5 :  -0.3333 0.3333-0.0000  plane waves:   85931

 maximum and minimum number of plane-waves per node :     85931    85782

 maximum number of plane-waves:     85931
 maximum index in each direction: 
   IXMAX=   20   IYMAX=   20   IZMAX=   57
   IXMIN=  -20   IYMIN=  -20   IZMIN=  -57


 serial   3D FFT for wavefunctions
 parallel 3D FFT for charge:
    minimum data exchange during FFTs selected (reduces bandwidth)


 total amount of memory used by VASP MPI-rank0   363712. kBytes
=======================================================================

   base      :      30000. kBytes
   nonl-proj :     198051. kBytes
   fftplans  :      17372. kBytes
   grid      :      82746. kBytes
   one-center:        839. kBytes
   wavefun   :      34704. kBytes
 
     INWAV:  cpu time    0.0000: real time    0.0000
 Broyden mixing: mesh for mixing (old mesh)
   NGX = 41   NGY = 41   NGZ =115
  (NGX  =160   NGY  =168   NGZ  =480)
  gives a total of 193315 points

 initial charge density was supplied:
 charge density of overlapping atoms calculated
 number of electron     324.0000000 magnetization 
 keeping initial charge density in first step


--------------------------------------------------------------------------------------------------------


 Maximum index for augmentation-charges         1196 (set IRDMAX)


--------------------------------------------------------------------------------------------------------


 First call to EWALD:  gamma=   0.124
 Maximum number of real-space cells 4x 4x 2
 Maximum number of reciprocal cells 2x 2x 5

    FEWALD:  cpu time    0.0021: real time    0.0021


--------------------------------------- Iteration      1(   1)  ---------------------------------------


    POTLOK:  cpu time    0.3067: real time    0.3081
    SETDIJ:  cpu time    0.0119: real time    0.0121
     EDDAV:  cpu time   49.5302: real time   49.6281
       DOS:  cpu time    0.0010: real time    0.0010
    --------------------------------------------
      LOOP:  cpu time   49.8497: real time   49.9493

 eigenvalue-minimisations  :  2000
 total energy-change (2. order) : 0.2112259E+04  (-0.1149844E+05)
 number of electron     324.0000000 magnetization 
 augmentation part      324.0000000 magnetization 

 Free energy of the ion-electron system (eV)
  ---------------------------------------------------
  alpha Z        PSCENC =       244.73915304
  Ewald energy   TEWEN  =     62682.00080342
  -Hartree energ DENC   =    -74357.27960342
  -exchange      EXHF   =         0.00000000
  -V(xc)+E(xc)   XCENC  =     -2101.43238255
  PAW double counting   =      7476.04436201    -4809.59211051
  entropy T*S    EENTRO =        -0.13496381
  eigenvalues    EBANDS =      1024.83129794
  atomic energy  EATOM  =     11953.08265402
  Solvation  Ediel_sol  =         0.00000000
  ---------------------------------------------------
  free energy    TOTEN  =      2112.25921015 eV

  energy without entropy =     2112.39417396  energy(sigma->0) =     2112.32669205


--------------------------------------------------------------------------------------------------------




--------------------------------------- Iteration      1(   2)  ---------------------------------------


     EDDAV:  cpu time   69.4582: real time   69.5763
       DOS:  cpu time    0.0005: real time    0.0005
    --------------------------------------------
      LOOP:  cpu time   69.4587: real time   69.5768

 eigenvalue-minimisations  :  3040
 total energy-change (2. order) :-0.2208033E+04  (-0.2135176E+04)
 number of electron     324.0000000 magnetization 
 augmentation part      324.0000000 magnetization 

 Free energy of the ion-electron system (eV)
  ---------------------------------------------------
  alpha Z        PSCENC =       244.73915304
  Ewald energy   TEWEN  =     62682.00080342
  -Hartree energ DENC   =    -74357.27960342
  -exchange      EXHF   =         0.00000000
  -V(xc)+E(xc)   XCENC  =     -2101.43238255
  PAW double counting   =      7476.04436201    -4809.59211051
  entropy T*S    EENTRO =        -0.01363669
  eigenvalues    EBANDS =     -1183.32321950
  atomic energy  EATOM  =     11953.08265402
  Solvation  Ediel_sol  =         0.00000000
  ---------------------------------------------------
  free energy    TOTEN  =       -95.77398017 eV

  energy without entropy =      -95.76034348  energy(sigma->0) =      -95.76716183


--------------------------------------------------------------------------------------------------------




--------------------------------------- Iteration      1(   3)  ---------------------------------------


     EDDAV:  cpu time   58.6654: real time   58.7726
       DOS:  cpu time    0.0004: real time    0.0004
    --------------------------------------------
      LOOP:  cpu time   58.6657: real time   58.7730

 eigenvalue-minimisations  :  2480
 total energy-change (2. order) :-0.2286251E+03  (-0.2252484E+03)
 number of electron     324.0000000 magnetization 
 augmentation part      324.0000000 magnetization 

 Free energy of the ion-electron system (eV)
  ---------------------------------------------------
  alpha Z        PSCENC =       244.73915304
  Ewald energy   TEWEN  =     62682.00080342
  -Hartree energ DENC   =    -74357.27960342
  -exchange      EXHF   =         0.00000000
  -V(xc)+E(xc)   XCENC  =     -2101.43238255
  PAW double counting   =      7476.04436201    -4809.59211051
  entropy T*S    EENTRO =        -0.00000000
  eigenvalues    EBANDS =     -1411.96197998
  atomic energy  EATOM  =     11953.08265402
  Solvation  Ediel_sol  =         0.00000000
  ---------------------------------------------------
  free energy    TOTEN  =      -324.39910397 eV

  energy without entropy =     -324.39910397  energy(sigma->0) =     -324.39910397


--------------------------------------------------------------------------------------------------------




--------------------------------------- Iteration      1(   4)  ---------------------------------------


     EDDAV:  cpu time   70.9235: real time   71.0549
       DOS:  cpu time    0.0004: real time    0.0004
    --------------------------------------------
      LOOP:  cpu time   70.9239: real time   71.0553

 eigenvalue-minimisations  :  3120
 total energy-change (2. order) :-0.1183046E+02  (-0.1175355E+02)
 number of electron     324.0000000 magnetization 
 augmentation part      324.0000000 magnetization 

 Free energy of the ion-electron system (eV)
  ---------------------------------------------------
  alpha Z        PSCENC =       244.73915304
  Ewald energy   TEWEN  =     62682.00080342
  -Hartree energ DENC   =    -74357.27960342
  -exchange      EXHF   =         0.00000000
  -V(xc)+E(xc)   XCENC  =     -2101.43238255
  PAW double counting   =      7476.04436201    -4809.59211051
  entropy T*S    EENTRO =        -0.00000000
  eigenvalues    EBANDS =     -1423.79244415
  atomic energy  EATOM  =     11953.08265402
  Solvation  Ediel_sol  =         0.00000000
  ---------------------------------------------------
  free energy    TOTEN  =      -336.22956814 eV

  energy without entropy =     -336.22956814  energy(sigma->0) =     -336.22956814


--------------------------------------------------------------------------------------------------------




--------------------------------------- Iteration      1(   5)  ---------------------------------------


     EDDAV:  cpu time   67.7619: real time   67.9001
       DOS:  cpu time    0.0004: real time    0.0004
    CHARGE:  cpu time    1.1511: real time    1.1523
    MIXING:  cpu time    0.0075: real time    0.0078
    --------------------------------------------
      LOOP:  cpu time   68.9209: real time   69.0606

 eigenvalue-minimisations  :  2960
 total energy-change (2. order) :-0.3265316E+00  (-0.3258308E+00)
 number of electron     324.0000003 magnetization 
 augmentation part      -25.6829834 magnetization 

 Broyden mixing:
  rms(total) = 0.19313E+01    rms(broyden)= 0.19312E+01
  rms(prec ) = 0.20440E+01
  weight for this iteration     100.00

 Free energy of the ion-electron system (eV)
  ---------------------------------------------------
  alpha Z        PSCENC =       244.73915304
  Ewald energy   TEWEN  =     62682.00080342
  -Hartree energ DENC   =    -74357.27960342
  -exchange      EXHF   =         0.00000000
  -V(xc)+E(xc)   XCENC  =     -2101.43238255
  PAW double counting   =      7476.04436201    -4809.59211051
  entropy T*S    EENTRO =        -0.00000000
  eigenvalues    EBANDS =     -1424.11897578
  atomic energy  EATOM  =     11953.08265402
  Solvation  Ediel_sol  =         0.00000000
  ---------------------------------------------------
  free energy    TOTEN  =      -336.55609976 eV

  energy without entropy =     -336.55609976  energy(sigma->0) =     -336.55609976


--------------------------------------------------------------------------------------------------------




--------------------------------------- Iteration      1(   6)  ---------------------------------------


    POTLOK:  cpu time    0.2693: real time    0.2695
    SETDIJ:  cpu time    0.0105: real time    0.0114
    EDDIAG:  cpu time    2.5057: real time    2.5098
  RMM-DIIS:  cpu time   42.6803: real time   42.7718
    ORTHCH:  cpu time    0.2159: real time    0.2163
       DOS:  cpu time    0.0004: real time    0.0004
    CHARGE:  cpu time    1.1501: real time    1.1538
    MIXING:  cpu time    0.0070: real time    0.0070
    --------------------------------------------
      LOOP:  cpu time   46.8391: real time   46.9401

 eigenvalue-minimisations  :  2144
 total energy-change (2. order) : 0.8961325E+01  (-0.5871344E+01)
 number of electron     324.0000003 magnetization 
 augmentation part      -19.8271413 magnetization 

 Broyden mixing:
  rms(total) = 0.71595E+00    rms(broyden)= 0.71595E+00
  rms(prec ) = 0.83373E+00
  weight for this iteration     100.00

 eigenvalues of (default mixing * dielectric matrix)
  average eigenvalue GAMMA=   1.0208
  1.0208

 Free energy of the ion-electron system (eV)
  ---------------------------------------------------
  alpha Z        PSCENC =       244.73915304
  Ewald energy   TEWEN  =     62682.00080342
  -Hartree energ DENC   =    -74331.33099825
  -exchange      EXHF   =         0.00000000
  -V(xc)+E(xc)   XCENC  =     -2094.93217039
  PAW double counting   =      7659.80181888    -5004.51755762
  entropy T*S    EENTRO =        -0.00000000
  eigenvalues    EBANDS =     -1436.43847784
  atomic energy  EATOM  =     11953.08265402
  Solvation  Ediel_sol  =         0.00000000
  ---------------------------------------------------
  free energy    TOTEN  =      -327.59477472 eV

  energy without entropy =     -327.59477472  energy(sigma->0) =     -327.59477472


--------------------------------------------------------------------------------------------------------




--------------------------------------- Iteration      1(   7)  ---------------------------------------


    POTLOK:  cpu time    0.2671: real time    0.2673
    SETDIJ:  cpu time    0.0105: real time    0.0105
    EDDIAG:  cpu time    2.5061: real time    2.5112
  RMM-DIIS:  cpu time   39.9006: real time   39.9679
    ORTHCH:  cpu time    0.2120: real time    0.2124
       DOS:  cpu time    0.0004: real time    0.0004
    CHARGE:  cpu time    1.1484: real time    1.1496
    MIXING:  cpu time    0.0072: real time    0.0072
    --------------------------------------------
      LOOP:  cpu time   44.0524: real time   44.1266

 eigenvalue-minimisations  :  2017
 total energy-change (2. order) : 0.3388889E+01  (-0.1112137E+01)
 number of electron     324.0000003 magnetization 
 augmentation part      -21.7690494 magnetization 

 Broyden mixing:
  rms(total) = 0.47577E+00    rms(broyden)= 0.47576E+00
  rms(prec ) = 0.50409E+00
  weight for this iteration     100.00

 eigenvalues of (default mixing * dielectric matrix)
  average eigenvalue GAMMA=   1.4714
  0.7268  2.2160

 Free energy of the ion-electron system (eV)
  ---------------------------------------------------
  alpha Z        PSCENC =       244.73915304
  Ewald energy   TEWEN  =     62682.00080342
  -Hartree energ DENC   =    -74419.16986616
  -exchange      EXHF   =         0.00000000
  -V(xc)+E(xc)   XCENC  =     -2093.79342069
  PAW double counting   =      7938.21292737    -5287.62924960
  entropy T*S    EENTRO =        -0.00000000
  eigenvalues    EBANDS =     -1341.64888747
  atomic energy  EATOM  =     11953.08265402
  Solvation  Ediel_sol  =         0.00000000
  ---------------------------------------------------
  free energy    TOTEN  =      -324.20588606 eV

  energy without entropy =     -324.20588606  energy(sigma->0) =     -324.20588606


--------------------------------------------------------------------------------------------------------




--------------------------------------- Iteration      1(   8)  ---------------------------------------


    POTLOK:  cpu time    0.2717: real time    0.2721
    SETDIJ:  cpu time    0.0106: real time    0.0106
    EDDIAG:  cpu time    2.5134: real time    2.5184
  RMM-DIIS:  cpu time   40.3860: real time   40.4541
    ORTHCH:  cpu time    0.2143: real time    0.2145
       DOS:  cpu time    0.0004: real time    0.0004
    CHARGE:  cpu time    1.1496: real time    1.1535
    MIXING:  cpu time    0.0071: real time    0.0071
    --------------------------------------------
      LOOP:  cpu time   44.5531: real time   44.6307

 eigenvalue-minimisations  :  2026
 total energy-change (2. order) : 0.4380930E+00  (-0.8213109E+00)
 number of electron     324.0000003 magnetization 
 augmentation part      -21.6473259 magnetization 

 Broyden mixing:
  rms(total) = 0.14169E+00    rms(broyden)= 0.14169E+00
  rms(prec ) = 0.16542E+00
  weight for this iteration     100.00

 eigenvalues of (default mixing * dielectric matrix)
  average eigenvalue GAMMA=   1.2707
  2.1221  0.8451  0.8451

 Free energy of the ion-electron system (eV)
  ---------------------------------------------------
  alpha Z        PSCENC =       244.73915304
  Ewald energy   TEWEN  =     62682.00080342
  -Hartree energ DENC   =    -74480.19327844
  -exchange      EXHF   =         0.00000000
  -V(xc)+E(xc)   XCENC  =     -2089.92731299
  PAW double counting   =      8242.43778322    -5598.17451160
  entropy T*S    EENTRO =        -0.00000000
  eigenvalues    EBANDS =     -1277.73308368
  atomic energy  EATOM  =     11953.08265402
  Solvation  Ediel_sol  =         0.00000000
  ---------------------------------------------------
  free energy    TOTEN  =      -323.76779302 eV

  energy without entropy =     -323.76779302  energy(sigma->0) =     -323.76779302


--------------------------------------------------------------------------------------------------------




--------------------------------------- Iteration      1(   9)  ---------------------------------------


    POTLOK:  cpu time    0.2697: real time    0.2700
    SETDIJ:  cpu time    0.0107: real time    0.0107
    EDDIAG:  cpu time    2.5046: real time    2.5103
  RMM-DIIS:  cpu time   44.4757: real time   44.5727
    ORTHCH:  cpu time    0.2127: real time    0.2140
       DOS:  cpu time    0.0004: real time    0.0004
    CHARGE:  cpu time    1.1449: real time    1.1461
    MIXING:  cpu time    0.0073: real time    0.0073
    --------------------------------------------
      LOOP:  cpu time   48.6261: real time   48.7316

 eigenvalue-minimisations  :  2207
 total energy-change (2. order) :-0.9772187E-02  (-0.1453395E+00)
 number of electron     324.0000003 magnetization 
 augmentation part      -21.1586662 magnetization 

 Broyden mixing:
  rms(total) = 0.99312E-01    rms(broyden)= 0.99312E-01
  rms(prec ) = 0.10998E+00
  weight for this iteration     100.00

 eigenvalues of (default mixing * dielectric matrix)
  average eigenvalue GAMMA=   1.1410
  2.0241  1.3312  0.7315  0.4769

 Free energy of the ion-electron system (eV)
  ---------------------------------------------------
  alpha Z        PSCENC =       244.73915304
  Ewald energy   TEWEN  =     62682.00080342
  -Hartree energ DENC   =    -74475.02697835
  -exchange      EXHF   =         0.00000000
  -V(xc)+E(xc)   XCENC  =     -2089.61179886
  PAW double counting   =      8235.43521771    -5591.24562405
  entropy T*S    EENTRO =        -0.00000000
  eigenvalues    EBANDS =     -1283.15099215
  atomic energy  EATOM  =     11953.08265402
  Solvation  Ediel_sol  =         0.00000000
  ---------------------------------------------------
  free energy    TOTEN  =      -323.77756521 eV

  energy without entropy =     -323.77756521  energy(sigma->0) =     -323.77756521


--------------------------------------------------------------------------------------------------------




--------------------------------------- Iteration      1(  10)  ---------------------------------------


    POTLOK:  cpu time    0.2699: real time    0.2701
    SETDIJ:  cpu time    0.0116: real time    0.0116
    EDDIAG:  cpu time    2.5067: real time    2.5125
  RMM-DIIS:  cpu time   48.4358: real time   48.5234
    ORTHCH:  cpu time    0.2130: real time    0.2133
       DOS:  cpu time    0.0005: real time    0.0005
    CHARGE:  cpu time    1.1461: real time    1.1471
    MIXING:  cpu time    0.0076: real time    0.0076
    --------------------------------------------
      LOOP:  cpu time   52.5911: real time   52.6861

 eigenvalue-minimisations  :  2415
 total energy-change (2. order) :-0.9592185E-02  (-0.4099417E-01)
 number of electron     324.0000003 magnetization 
 augmentation part      -21.0019704 magnetization 

 Broyden mixing:
  rms(total) = 0.76517E-01    rms(broyden)= 0.76517E-01
  rms(prec ) = 0.85349E-01
  weight for this iteration     100.00

 eigenvalues of (default mixing * dielectric matrix)
  average eigenvalue GAMMA=   1.2804
  2.3696  1.8045  0.9218  0.9218  0.3846

 Free energy of the ion-electron system (eV)
  ---------------------------------------------------
  alpha Z        PSCENC =       244.73915304
  Ewald energy   TEWEN  =     62682.00080342
  -Hartree energ DENC   =    -74477.56847476
  -exchange      EXHF   =         0.00000000
  -V(xc)+E(xc)   XCENC  =     -2089.43901087
  PAW double counting   =      8248.22941050    -5604.06073777
  entropy T*S    EENTRO =        -0.00000000
  eigenvalues    EBANDS =     -1280.77095498
  atomic energy  EATOM  =     11953.08265402
  Solvation  Ediel_sol  =         0.00000000
  ---------------------------------------------------
  free energy    TOTEN  =      -323.78715740 eV

  energy without entropy =     -323.78715740  energy(sigma->0) =     -323.78715740


--------------------------------------------------------------------------------------------------------




--------------------------------------- Iteration      1(  11)  ---------------------------------------


    POTLOK:  cpu time    0.2703: real time    0.2719
    SETDIJ:  cpu time    0.0107: real time    0.0107
    EDDIAG:  cpu time    2.5265: real time    2.5294
  RMM-DIIS:  cpu time   42.2759: real time   42.3353
    ORTHCH:  cpu time    0.2372: real time    0.2374
       DOS:  cpu time    0.0004: real time    0.0004
    CHARGE:  cpu time    1.1442: real time    1.1454
    MIXING:  cpu time    0.0082: real time    0.0082
    --------------------------------------------
      LOOP:  cpu time   46.4735: real time   46.5387

 eigenvalue-minimisations  :  2126
 total energy-change (2. order) : 0.1227591E-01  (-0.2072271E-01)
 number of electron     324.0000003 magnetization 
 augmentation part      -21.3348585 magnetization 

 Broyden mixing:
  rms(total) = 0.40343E-01    rms(broyden)= 0.40342E-01
  rms(prec ) = 0.45816E-01
  weight for this iteration     100.00

 eigenvalues of (default mixing * dielectric matrix)
  average eigenvalue GAMMA=   1.2218
  2.5303  1.6420  1.3389  0.7208  0.7208  0.3779

 Free energy of the ion-electron system (eV)
  ---------------------------------------------------
  alpha Z        PSCENC =       244.73915304
  Ewald energy   TEWEN  =     62682.00080342
  -Hartree energ DENC   =    -74496.47579388
  -exchange      EXHF   =         0.00000000
  -V(xc)+E(xc)   XCENC  =     -2089.16860612
  PAW double counting   =      8300.89914177    -5656.95942589
  entropy T*S    EENTRO =        -0.00000000
  eigenvalues    EBANDS =     -1261.89280786
  atomic energy  EATOM  =     11953.08265402
  Solvation  Ediel_sol  =         0.00000000
  ---------------------------------------------------
  free energy    TOTEN  =      -323.77488149 eV

  energy without entropy =     -323.77488149  energy(sigma->0) =     -323.77488149


--------------------------------------------------------------------------------------------------------




--------------------------------------- Iteration      1(  12)  ---------------------------------------


    POTLOK:  cpu time    0.2708: real time    0.2711
    SETDIJ:  cpu time    0.0110: real time    0.0110
    EDDIAG:  cpu time    2.5117: real time    2.5144
  RMM-DIIS:  cpu time   47.9792: real time   48.0682
    ORTHCH:  cpu time    0.2173: real time    0.2175
       DOS:  cpu time    0.0004: real time    0.0004
    CHARGE:  cpu time    1.1529: real time    1.1542
    MIXING:  cpu time    0.0076: real time    0.0076
    --------------------------------------------
      LOOP:  cpu time   52.1510: real time   52.2444

 eigenvalue-minimisations  :  2354
 total energy-change (2. order) : 0.1927752E-02  (-0.3958286E-02)
 number of electron     324.0000003 magnetization 
 augmentation part      -21.3072139 magnetization 

 Broyden mixing:
  rms(total) = 0.28320E-01    rms(broyden)= 0.28320E-01
  rms(prec ) = 0.32596E-01
  weight for this iteration     100.00

 eigenvalues of (default mixing * dielectric matrix)
  average eigenvalue GAMMA=   1.1897
  2.5257  1.7117  1.7117  0.8082  0.8082  0.3958  0.3665

 Free energy of the ion-electron system (eV)
  ---------------------------------------------------
  alpha Z        PSCENC =       244.73915304
  Ewald energy   TEWEN  =     62682.00080342
  -Hartree energ DENC   =    -74499.73163283
  -exchange      EXHF   =         0.00000000
  -V(xc)+E(xc)   XCENC  =     -2089.05484836
  PAW double counting   =      8303.66102711    -5659.75473430
  entropy T*S    EENTRO =        -0.00000000
  eigenvalues    EBANDS =     -1258.71537584
  atomic energy  EATOM  =     11953.08265402
  Solvation  Ediel_sol  =         0.00000000
  ---------------------------------------------------
  free energy    TOTEN  =      -323.77295374 eV

  energy without entropy =     -323.77295374  energy(sigma->0) =     -323.77295374


--------------------------------------------------------------------------------------------------------




--------------------------------------- Iteration      1(  13)  ---------------------------------------


    POTLOK:  cpu time    0.2705: real time    0.2708
    SETDIJ:  cpu time    0.0102: real time    0.0102
    EDDIAG:  cpu time    2.5086: real time    2.5158
  RMM-DIIS:  cpu time   47.1718: real time   47.2651
    ORTHCH:  cpu time    0.2121: real time    0.2123
       DOS:  cpu time    0.0004: real time    0.0004
    CHARGE:  cpu time    1.1481: real time    1.1492
    MIXING:  cpu time    0.0077: real time    0.0077
    --------------------------------------------
      LOOP:  cpu time   51.3294: real time   51.4315

 eigenvalue-minimisations  :  2377
 total energy-change (2. order) : 0.1855974E-02  (-0.2388409E-02)
 number of electron     324.0000003 magnetization 
 augmentation part      -21.2041135 magnetization 

 Broyden mixing:
  rms(total) = 0.94805E-02    rms(broyden)= 0.94804E-02
  rms(prec ) = 0.12494E-01
  weight for this iteration     100.00

 eigenvalues of (default mixing * dielectric matrix)
  average eigenvalue GAMMA=   1.3471
  2.7069  2.7069  1.7477  1.2266  0.8107  0.8107  0.3994  0.3680

 Free energy of the ion-electron system (eV)
  ---------------------------------------------------
  alpha Z        PSCENC =       244.73915304
  Ewald energy   TEWEN  =     62682.00080342
  -Hartree energ DENC   =    -74501.71889630
  -exchange      EXHF   =         0.00000000
  -V(xc)+E(xc)   XCENC  =     -2088.97549225
  PAW double counting   =      8299.64474448    -5655.72786659
  entropy T*S    EENTRO =        -0.00000000
  eigenvalues    EBANDS =     -1256.81619759
  atomic energy  EATOM  =     11953.08265402
  Solvation  Ediel_sol  =         0.00000000
  ---------------------------------------------------
  free energy    TOTEN  =      -323.77109776 eV

  energy without entropy =     -323.77109776  energy(sigma->0) =     -323.77109776


--------------------------------------------------------------------------------------------------------




--------------------------------------- Iteration      1(  14)  ---------------------------------------


    POTLOK:  cpu time    0.2731: real time    0.2734
    SETDIJ:  cpu time    0.0109: real time    0.0109
    EDDIAG:  cpu time    2.5082: real time    2.5109
  RMM-DIIS:  cpu time   44.9781: real time   45.0534
    ORTHCH:  cpu time    0.2127: real time    0.2130
       DOS:  cpu time    0.0005: real time    0.0005
    CHARGE:  cpu time    1.1492: real time    1.1505
    MIXING:  cpu time    0.0084: real time    0.0084
    --------------------------------------------
      LOOP:  cpu time   49.1412: real time   49.2211

 eigenvalue-minimisations  :  2250
 total energy-change (2. order) :-0.4970555E-03  (-0.6251488E-03)
 number of electron     324.0000003 magnetization 
 augmentation part      -21.2143590 magnetization 

 Broyden mixing:
  rms(total) = 0.55754E-02    rms(broyden)= 0.55754E-02
  rms(prec ) = 0.70980E-02
  weight for this iteration     100.00

 eigenvalues of (default mixing * dielectric matrix)
  average eigenvalue GAMMA=   1.3215
  3.2201  2.5747  1.5324  1.5324  0.8037  0.8037  0.6567  0.4017  0.3682

 Free energy of the ion-electron system (eV)
  ---------------------------------------------------
  alpha Z        PSCENC =       244.73915304
  Ewald energy   TEWEN  =     62682.00080342
  -Hartree energ DENC   =    -74511.99147815
  -exchange      EXHF   =         0.00000000
  -V(xc)+E(xc)   XCENC  =     -2088.93238662
  PAW double counting   =      8296.74382683    -5652.71599981
  entropy T*S    EENTRO =        -0.00000000
  eigenvalues    EBANDS =     -1246.69816755
  atomic energy  EATOM  =     11953.08265402
  Solvation  Ediel_sol  =         0.00000000
  ---------------------------------------------------
  free energy    TOTEN  =      -323.77159482 eV

  energy without entropy =     -323.77159482  energy(sigma->0) =     -323.77159482


--------------------------------------------------------------------------------------------------------




--------------------------------------- Iteration      1(  15)  ---------------------------------------


    POTLOK:  cpu time    0.2708: real time    0.2729
    SETDIJ:  cpu time    0.0106: real time    0.0106
    EDDIAG:  cpu time    2.5057: real time    2.5084
  RMM-DIIS:  cpu time   54.4544: real time   54.5539
    ORTHCH:  cpu time    0.2123: real time    0.2125
       DOS:  cpu time    0.0004: real time    0.0004
    CHARGE:  cpu time    1.1455: real time    1.1465
    MIXING:  cpu time    0.0096: real time    0.0096
    --------------------------------------------
      LOOP:  cpu time   58.6093: real time   58.7150

 eigenvalue-minimisations  :  2729
 total energy-change (2. order) :-0.6817029E-03  (-0.2375558E-03)
 number of electron     324.0000003 magnetization 
 augmentation part      -21.2111926 magnetization 

 Broyden mixing:
  rms(total) = 0.48312E-02    rms(broyden)= 0.48312E-02
  rms(prec ) = 0.59840E-02
  weight for this iteration     100.00

 eigenvalues of (default mixing * dielectric matrix)
  average eigenvalue GAMMA=   1.3003
  3.4581  2.4762  1.7119  1.7119  0.8852  0.8104  0.8104  0.4027  0.3725  0.3641

 Free energy of the ion-electron system (eV)
  ---------------------------------------------------
  alpha Z        PSCENC =       244.73915304
  Ewald energy   TEWEN  =     62682.00080342
  -Hartree energ DENC   =    -74514.04168047
  -exchange      EXHF   =         0.00000000
  -V(xc)+E(xc)   XCENC  =     -2088.91823614
  PAW double counting   =      8296.92625120    -5652.89906076
  entropy T*S    EENTRO =        -0.00000000
  eigenvalues    EBANDS =     -1244.66216083
  atomic energy  EATOM  =     11953.08265402
  Solvation  Ediel_sol  =         0.00000000
  ---------------------------------------------------
  free energy    TOTEN  =      -323.77227652 eV

  energy without entropy =     -323.77227652  energy(sigma->0) =     -323.77227652


--------------------------------------------------------------------------------------------------------




--------------------------------------- Iteration      1(  16)  ---------------------------------------


    POTLOK:  cpu time    0.2730: real time    0.2734
    SETDIJ:  cpu time    0.0109: real time    0.0109
    EDDIAG:  cpu time    2.5321: real time    2.5370
  RMM-DIIS:  cpu time   48.2265: real time   48.3066
    ORTHCH:  cpu time    0.2139: real time    0.2141
       DOS:  cpu time    0.0005: real time    0.0005
    CHARGE:  cpu time    1.1488: real time    1.1499
    MIXING:  cpu time    0.0081: real time    0.0081
    --------------------------------------------
      LOOP:  cpu time   52.4136: real time   52.5003

 eigenvalue-minimisations  :  2417
 total energy-change (2. order) :-0.7633752E-03  (-0.4341480E-04)
 number of electron     324.0000003 magnetization 
 augmentation part      -21.2125096 magnetization 

 Broyden mixing:
  rms(total) = 0.31431E-02    rms(broyden)= 0.31431E-02
  rms(prec ) = 0.41927E-02
  weight for this iteration     100.00

 eigenvalues of (default mixing * dielectric matrix)
  average eigenvalue GAMMA=   1.3969
  4.1647  2.5311  1.9497  1.9497  1.0139  1.0139  0.8100  0.8100  0.4017  0.3688
  0.3525

 Free energy of the ion-electron system (eV)
  ---------------------------------------------------
  alpha Z        PSCENC =       244.73915304
  Ewald energy   TEWEN  =     62682.00080342
  -Hartree energ DENC   =    -74515.50015890
  -exchange      EXHF   =         0.00000000
  -V(xc)+E(xc)   XCENC  =     -2088.90885945
  PAW double counting   =      8296.96792985    -5652.95183707
  entropy T*S    EENTRO =        -0.00000000
  eigenvalues    EBANDS =     -1243.20272481
  atomic energy  EATOM  =     11953.08265402
  Solvation  Ediel_sol  =         0.00000000
  ---------------------------------------------------
  free energy    TOTEN  =      -323.77303990 eV

  energy without entropy =     -323.77303990  energy(sigma->0) =     -323.77303990


--------------------------------------------------------------------------------------------------------




--------------------------------------- Iteration      1(  17)  ---------------------------------------


    POTLOK:  cpu time    0.2732: real time    0.2735
    SETDIJ:  cpu time    0.0105: real time    0.0106
    EDDIAG:  cpu time    2.5046: real time    2.5075
  RMM-DIIS:  cpu time   42.4339: real time   42.5076
    ORTHCH:  cpu time    0.2282: real time    0.2293
       DOS:  cpu time    0.0005: real time    0.0005
    CHARGE:  cpu time    1.1572: real time    1.1582
    MIXING:  cpu time    0.0084: real time    0.0084
    --------------------------------------------
      LOOP:  cpu time   46.6164: real time   46.6955

 eigenvalue-minimisations  :  2101
 total energy-change (2. order) :-0.1765559E-02  (-0.4958576E-04)
 number of electron     324.0000003 magnetization 
 augmentation part      -21.2183296 magnetization 

 Broyden mixing:
  rms(total) = 0.22053E-02    rms(broyden)= 0.22053E-02
  rms(prec ) = 0.26924E-02
  weight for this iteration     100.00

 eigenvalues of (default mixing * dielectric matrix)
  average eigenvalue GAMMA=   1.4001
  4.6692  2.6683  2.1912  1.4882  1.4882  1.0255  0.8131  0.8131  0.5264  0.4017
  0.3687  0.3480

 Free energy of the ion-electron system (eV)
  ---------------------------------------------------
  alpha Z        PSCENC =       244.73915304
  Ewald energy   TEWEN  =     62682.00080342
  -Hartree energ DENC   =    -74519.43239914
  -exchange      EXHF   =         0.00000000
  -V(xc)+E(xc)   XCENC  =     -2088.89499727
  PAW double counting   =      8295.74309179    -5651.73277825
  entropy T*S    EENTRO =        -0.00000000
  eigenvalues    EBANDS =     -1239.28033307
  atomic energy  EATOM  =     11953.08265402
  Solvation  Ediel_sol  =         0.00000000
  ---------------------------------------------------
  free energy    TOTEN  =      -323.77480546 eV

  energy without entropy =     -323.77480546  energy(sigma->0) =     -323.77480546


--------------------------------------------------------------------------------------------------------




--------------------------------------- Iteration      1(  18)  ---------------------------------------


    POTLOK:  cpu time    0.2749: real time    0.2751
    SETDIJ:  cpu time    0.0111: real time    0.0111
    EDDIAG:  cpu time    2.5036: real time    2.5086
  RMM-DIIS:  cpu time   45.3653: real time   45.4417
    ORTHCH:  cpu time    0.2439: real time    0.2444
       DOS:  cpu time    0.0004: real time    0.0004
    CHARGE:  cpu time    1.1464: real time    1.1479
    MIXING:  cpu time    0.0082: real time    0.0082
    --------------------------------------------
      LOOP:  cpu time   49.5538: real time   49.6374

 eigenvalue-minimisations  :  2259
 total energy-change (2. order) :-0.5681422E-03  (-0.1624060E-04)
 number of electron     324.0000003 magnetization 
 augmentation part      -21.2178927 magnetization 

 Broyden mixing:
  rms(total) = 0.15872E-02    rms(broyden)= 0.15872E-02
  rms(prec ) = 0.19605E-02
  weight for this iteration     100.00

 eigenvalues of (default mixing * dielectric matrix)
  average eigenvalue GAMMA=   1.4299
  4.9504  2.8288  2.3367  1.7562  1.7562  0.9012  0.9012  0.8181  0.8181  0.4060
  0.3994  0.3687  0.3477

 Free energy of the ion-electron system (eV)
  ---------------------------------------------------
  alpha Z        PSCENC =       244.73915304
  Ewald energy   TEWEN  =     62682.00080342
  -Hartree energ DENC   =    -74520.49749273
  -exchange      EXHF   =         0.00000000
  -V(xc)+E(xc)   XCENC  =     -2088.89038817
  PAW double counting   =      8295.51441016    -5651.50396676
  entropy T*S    EENTRO =        -0.00000000
  eigenvalues    EBANDS =     -1238.22054658
  atomic energy  EATOM  =     11953.08265402
  Solvation  Ediel_sol  =         0.00000000
  ---------------------------------------------------
  free energy    TOTEN  =      -323.77537360 eV

  energy without entropy =     -323.77537360  energy(sigma->0) =     -323.77537360


--------------------------------------------------------------------------------------------------------




--------------------------------------- Iteration      1(  19)  ---------------------------------------


    POTLOK:  cpu time    0.2744: real time    0.2759
    SETDIJ:  cpu time    0.0106: real time    0.0106
    EDDIAG:  cpu time    2.5065: real time    2.5092
  RMM-DIIS:  cpu time   45.8550: real time   45.9378
    ORTHCH:  cpu time    0.2123: real time    0.2125
       DOS:  cpu time    0.0004: real time    0.0004
    CHARGE:  cpu time    1.1513: real time    1.1524
    MIXING:  cpu time    0.0087: real time    0.0087
    --------------------------------------------
      LOOP:  cpu time   50.0192: real time   50.1075

 eigenvalue-minimisations  :  2261
 total energy-change (2. order) :-0.5378823E-03  (-0.8023213E-05)
 number of electron     324.0000003 magnetization 
 augmentation part      -21.2130886 magnetization 

 Broyden mixing:
  rms(total) = 0.95899E-03    rms(broyden)= 0.95899E-03
  rms(prec ) = 0.11569E-02
  weight for this iteration     100.00

 eigenvalues of (default mixing * dielectric matrix)
  average eigenvalue GAMMA=   1.5039
  5.8512  3.0509  2.4962  1.8616  1.8616  1.0247  1.0247  0.8078  0.8078  0.7578
  0.4024  0.3924  0.3686  0.3473

 Free energy of the ion-electron system (eV)
  ---------------------------------------------------
  alpha Z        PSCENC =       244.73915304
  Ewald energy   TEWEN  =     62682.00080342
  -Hartree energ DENC   =    -74521.11738982
  -exchange      EXHF   =         0.00000000
  -V(xc)+E(xc)   XCENC  =     -2088.88691033
  PAW double counting   =      8295.76370853    -5651.75268403
  entropy T*S    EENTRO =        -0.00000000
  eigenvalues    EBANDS =     -1237.60524632
  atomic energy  EATOM  =     11953.08265402
  Solvation  Ediel_sol  =         0.00000000
  ---------------------------------------------------
  free energy    TOTEN  =      -323.77591148 eV

  energy without entropy =     -323.77591148  energy(sigma->0) =     -323.77591148


--------------------------------------------------------------------------------------------------------




--------------------------------------- Iteration      1(  20)  ---------------------------------------


    POTLOK:  cpu time    0.2732: real time    0.2754
    SETDIJ:  cpu time    0.0104: real time    0.0104
    EDDIAG:  cpu time    2.5043: real time    2.5071
  RMM-DIIS:  cpu time   42.3156: real time   42.3977
    ORTHCH:  cpu time    0.2237: real time    0.2239
       DOS:  cpu time    0.0004: real time    0.0004
    CHARGE:  cpu time    1.1425: real time    1.1455
    MIXING:  cpu time    0.0086: real time    0.0086
    --------------------------------------------
      LOOP:  cpu time   46.4788: real time   46.5691

 eigenvalue-minimisations  :  2099
 total energy-change (2. order) :-0.4695852E-03  (-0.4908044E-05)
 number of electron     324.0000003 magnetization 
 augmentation part      -21.2129317 magnetization 

 Broyden mixing:
  rms(total) = 0.53949E-03    rms(broyden)= 0.53949E-03
  rms(prec ) = 0.64516E-03
  weight for this iteration     100.00

 eigenvalues of (default mixing * dielectric matrix)
  average eigenvalue GAMMA=   1.5383
  6.7497  3.1695  2.5024  1.8213  1.8213  1.1880  1.1880  0.8856  0.8092  0.8092
  0.6190  0.4016  0.3938  0.3686  0.3470

 Free energy of the ion-electron system (eV)
  ---------------------------------------------------
  alpha Z        PSCENC =       244.73915304
  Ewald energy   TEWEN  =     62682.00080342
  -Hartree energ DENC   =    -74521.73906984
  -exchange      EXHF   =         0.00000000
  -V(xc)+E(xc)   XCENC  =     -2088.88717854
  PAW double counting   =      8296.26801682    -5652.25617172
  entropy T*S    EENTRO =        -0.00000000
  eigenvalues    EBANDS =     -1236.98458828
  atomic energy  EATOM  =     11953.08265402
  Solvation  Ediel_sol  =         0.00000000
  ---------------------------------------------------
  free energy    TOTEN  =      -323.77638107 eV

  energy without entropy =     -323.77638107  energy(sigma->0) =     -323.77638107


--------------------------------------------------------------------------------------------------------




--------------------------------------- Iteration      1(  21)  ---------------------------------------


    POTLOK:  cpu time    0.2734: real time    0.2736
    SETDIJ:  cpu time    0.0104: real time    0.0104
    EDDIAG:  cpu time    2.5091: real time    2.5139
  RMM-DIIS:  cpu time   41.2865: real time   41.3745
    ORTHCH:  cpu time    0.2121: real time    0.2123
       DOS:  cpu time    0.0004: real time    0.0004
    CHARGE:  cpu time    1.1506: real time    1.1527
    MIXING:  cpu time    0.0087: real time    0.0087
    --------------------------------------------
      LOOP:  cpu time   45.4512: real time   45.5465

 eigenvalue-minimisations  :  2026
 total energy-change (2. order) :-0.1255509E-03  (-0.1511007E-05)
 number of electron     324.0000003 magnetization 
 augmentation part      -21.2142090 magnetization 

 Broyden mixing:
  rms(total) = 0.38782E-03    rms(broyden)= 0.38782E-03
  rms(prec ) = 0.46619E-03
  weight for this iteration     100.00

 eigenvalues of (default mixing * dielectric matrix)
  average eigenvalue GAMMA=   1.5216
  7.1621  3.2299  2.4785  1.8020  1.8020  1.6535  0.9971  0.9971  0.8096  0.8096
  0.6936  0.3472  0.3686  0.4038  0.4038  0.3870

 Free energy of the ion-electron system (eV)
  ---------------------------------------------------
  alpha Z        PSCENC =       244.73915304
  Ewald energy   TEWEN  =     62682.00080342
  -Hartree energ DENC   =    -74521.95992148
  -exchange      EXHF   =         0.00000000
  -V(xc)+E(xc)   XCENC  =     -2088.88844194
  PAW double counting   =      8296.32140539    -5652.30898538
  entropy T*S    EENTRO =        -0.00000000
  eigenvalues    EBANDS =     -1236.76317369
  atomic energy  EATOM  =     11953.08265402
  Solvation  Ediel_sol  =         0.00000000
  ---------------------------------------------------
  free energy    TOTEN  =      -323.77650662 eV

  energy without entropy =     -323.77650662  energy(sigma->0) =     -323.77650662


--------------------------------------------------------------------------------------------------------




--------------------------------------- Iteration      1(  22)  ---------------------------------------


    POTLOK:  cpu time    0.2768: real time    0.2771
    SETDIJ:  cpu time    0.0106: real time    0.0107
    EDDIAG:  cpu time    2.5057: real time    2.5104
  RMM-DIIS:  cpu time   30.6180: real time   30.6765
    ORTHCH:  cpu time    0.2131: real time    0.2133
       DOS:  cpu time    0.0004: real time    0.0004
    CHARGE:  cpu time    1.1508: real time    1.1520
    MIXING:  cpu time    0.0092: real time    0.0093
    --------------------------------------------
      LOOP:  cpu time   34.7848: real time   34.8497

 eigenvalue-minimisations  :  1455
 total energy-change (2. order) :-0.6242342E-04  (-0.4462709E-06)
 number of electron     324.0000003 magnetization 
 augmentation part      -21.2145644 magnetization 

 Broyden mixing:
  rms(total) = 0.24932E-03    rms(broyden)= 0.24932E-03
  rms(prec ) = 0.30554E-03
  weight for this iteration     100.00

 eigenvalues of (default mixing * dielectric matrix)
  average eigenvalue GAMMA=   1.6016
  7.3159  3.7068  2.5341  2.5341  1.8658  1.8658  1.0892  1.0757  1.0757  0.8078
  0.8078  0.6678  0.4017  0.3960  0.3471  0.3687  0.3676

[...]
  0.000   0.000   0.000   0.000  -0.000   0.011  -0.000   0.000
  0.000  -0.000   0.000   0.000  -0.000  -0.000   0.011   0.000
  0.000  -0.000  -0.000  -0.000   0.000   0.000   0.000   0.011
  0.000   0.000   0.001   0.000  -0.000  -0.000  -0.000  -0.000
  0.000  -0.000   0.014  -0.000   0.000   0.000   0.000  -0.000
 -0.009  -0.000  -0.000   0.018  -0.000  -0.000   0.000   0.000
 -0.000   0.000   0.000   0.001   0.014  -0.000  -0.000   0.000
  0.001  -0.000  -0.000  -0.000   0.001  -0.000   0.000  -0.000
 total augmentation occupancy for first ion, spin component:           1
  1.936   0.196  -0.004  -0.200  -0.003   0.004  -0.037  -0.005   0.000  -0.001   0.007   0.001  -0.001
  0.196   1.315   0.008   0.925   0.026  -0.013  -0.364  -0.019   0.003   0.001  -0.021   0.003   0.003
 -0.004   0.008   1.343  -0.009   0.001  -0.470   0.000  -0.004   0.004   0.116  -0.001   0.001   0.041
 -0.200   0.925  -0.009   1.490   0.008   0.000  -0.535  -0.007   0.001  -0.000   0.039   0.003  -0.003
 -0.003   0.026   0.001   0.008   1.326  -0.004  -0.007  -0.462   0.043   0.001  -0.001   0.113   0.002
  0.004  -0.013  -0.470   0.000  -0.004   0.288   0.000   0.003  -0.003  -0.038   0.001  -0.000  -0.007
 -0.037  -0.364   0.000  -0.535  -0.007   0.000   0.280   0.003   0.000   0.000  -0.044  -0.002  -0.000
 -0.005  -0.019  -0.004  -0.007  -0.462   0.003   0.003   0.294  -0.008   0.000   0.001  -0.036  -0.001
  0.000   0.003   0.004   0.001   0.043  -0.003   0.000  -0.008   0.019   0.000  -0.001  -0.001  -0.000
 -0.001   0.001   0.116  -0.000   0.001  -0.038   0.000   0.000   0.000   0.017  -0.000   0.000  -0.000
  0.007  -0.021  -0.001   0.039  -0.001   0.001  -0.044   0.001  -0.001  -0.000   0.019   0.000  -0.000
  0.001   0.003   0.001   0.003   0.113  -0.000  -0.002  -0.036  -0.001   0.000   0.000   0.017   0.000
 -0.001   0.003   0.041  -0.003   0.002  -0.007  -0.000  -0.001  -0.000  -0.000  -0.000   0.000   0.020


------------------------ aborting loop because EDIFF is reached ----------------------------------------


    CHARGE:  cpu time    1.1551: real time    1.1563
    FORLOC:  cpu time    0.0768: real time    0.0768
    FORNL :  cpu time   14.3095: real time   14.3298
    STRESS:  cpu time   72.6497: real time   72.7749
    FORCOR:  cpu time    0.3041: real time    0.3044
    FORHAR:  cpu time    0.1461: real time    0.1464
    MIXING:  cpu time    0.0089: real time    0.0089
    OFIELD:  cpu time    0.0000: real time    0.0000

  Number of pair interactions contributing to vdW energy:  268952
  Edisp (eV):  -19.35215
    FORVDW:  cpu time    0.0411: real time    0.0412

  FORCE on cell =-STRESS in cart. coord.  units (eV):
  Direction    XX          YY          ZZ          XY          YZ          ZX
  --------------------------------------------------------------------------------------
  Alpha Z   244.73915   244.73915   244.73915
  Ewald   71901.66429 71830.28916-80992.79586   -13.92211   -52.08255   -29.03847
  Hartree 74210.35778 74188.96902-73823.08004    -3.30635    -4.07126    -5.19909
  E(xc)   -1353.53587 -1352.73238 -1371.66608     0.11690     2.41833     0.68616
  Local  ************************149758.34505    16.67889    55.98450    32.88979
  n-local  3548.38614  3549.68027  3731.00153    -1.69501   -17.60906    -4.30838
  augment  -759.82756  -761.22181  -800.44284     0.23698     3.04830     0.49492
  Kinetic  3292.98955  3278.07606  3255.38375     1.37739    -7.79922    -5.39589
  Fock        0.00000     0.00000     0.00000     0.00000     0.00000     0.00000
  vdW       -12.38285   -12.84681    -9.35409    -0.14099     1.31925    -0.51592
  -------------------------------------------------------------------------------------
  Total       3.06765   -13.58345    -7.86944    -0.65430   -18.79170   -10.38689
  in kB       1.67609    -7.42167    -4.29967    -0.35749   -10.26733    -5.67514
  external pressure =       -3.35 kB  Pullay stress =        0.00 kB

  kinetic pressure (ideal gas correction) =      0.20 kB
  total pressure  =     -3.14 kB
  Total+kin.     1.846      -7.210      -4.070      -0.356     -10.205      -5.650

 VOLUME and BASIS-vectors are now :
 -----------------------------------------------------------------------------
  energy-cutoff  :      550.00
  volume of cell :     2932.37
      direct lattice vectors                 reciprocal lattice vectors
    10.506085760  0.000000000  0.000000000     0.095182928  0.054245786 -0.002655869
    -5.271741865  9.250116211  0.000000000     0.000000000  0.108106750 -0.003191508
     0.334265264  0.890787423 30.173861779     0.000000000  0.000000000  0.033141267

  length of vectors
    10.506085760 10.646873353 30.188858378     0.109587630  0.108153849  0.033141267


 FORCES acting on ions
    electron-ion (+dipol)            ewald-force                    non-local-force                 convergence-correction
 -----------------------------------------------------------------------------------------------
   0.366E+01 0.197E+01 0.837E+03   -.373E+01 -.207E+01 -.842E+03   -.142E+00 0.215E+00 0.552E+01   -.663E-03 -.499E-03 0.165E-02
   -.137E+01 0.189E+01 0.833E+03   0.136E+01 -.197E+01 -.838E+03   0.290E+00 0.987E-01 0.546E+01   -.721E-03 -.164E-02 -.262E-03
   0.268E+01 -.140E+01 0.836E+03   -.276E+01 0.135E+01 -.841E+03   0.184E-01 0.446E+00 0.545E+01   -.124E-02 0.692E-03 0.385E-03
   -.109E+01 0.381E+00 0.834E+03   0.108E+01 -.480E+00 -.840E+03   0.140E+00 0.344E+00 0.535E+01   -.911E-03 -.564E-04 -.426E-03
   -.891E+00 -.240E+01 0.838E+03   0.797E+00 0.237E+01 -.843E+03   0.287E+00 0.485E+00 0.556E+01   0.126E-02 -.540E-03 -.271E-03
   -.189E+01 0.477E+00 0.834E+03   0.181E+01 -.523E+00 -.840E+03   0.360E+00 0.187E+00 0.533E+01   0.555E-03 0.117E-02 -.849E-03
   -.154E+01 -.259E+00 0.837E+03   0.159E+01 0.172E+00 -.842E+03   0.562E-01 0.425E+00 0.563E+01   0.161E-02 -.279E-03 0.468E-03
   0.741E+00 -.156E+01 0.838E+03   -.751E+00 0.149E+01 -.843E+03   0.421E-01 0.499E+00 0.542E+01   -.638E-03 0.103E-02 -.197E-03
   -.312E+01 -.190E+01 0.835E+03   0.310E+01 0.182E+01 -.840E+03   0.440E+00 0.558E+00 0.552E+01   0.691E-03 0.251E-03 0.149E-02
   0.238E+00 -.648E-01 -.112E+03   -.347E+00 -.491E-01 0.107E+03   0.249E+00 0.557E+00 0.546E+01   0.713E-03 0.186E-03 0.422E-03
   -.510E+00 0.154E+01 -.111E+03   0.466E+00 -.159E+01 0.106E+03   0.135E+00 0.970E-01 0.542E+01   0.431E-03 -.187E-03 -.250E-03
   0.629E+00 -.185E+01 -.111E+03   -.744E+00 0.181E+01 0.106E+03   0.235E+00 0.498E+00 0.576E+01   -.354E-03 0.405E-03 -.189E-03
   -.810E+00 -.224E+00 -.113E+03   0.731E+00 0.873E-01 0.108E+03   0.286E+00 0.546E+00 0.529E+01   -.225E-03 0.907E-03 0.842E-03
   0.121E+00 -.239E+01 -.112E+03   -.212E+00 0.227E+01 0.107E+03   0.939E-01 0.719E+00 0.524E+01   0.195E-03 -.709E-03 0.743E-03
   -.169E+01 -.201E+01 -.111E+03   0.166E+01 0.199E+01 0.106E+03   0.162E+00 0.364E+00 0.552E+01   0.468E-03 0.224E-04 -.807E-04
   0.676E-01 0.231E+01 -.114E+03   -.175E+00 -.237E+01 0.109E+03   0.211E+00 0.783E-01 0.547E+01   -.463E-03 -.603E-04 0.805E-04
   0.852E+00 -.712E+00 -.113E+03   -.934E+00 0.641E+00 0.108E+03   0.189E+00 0.437E+00 0.548E+01   -.597E-03 -.693E-03 0.301E-03
   -.114E+00 -.220E+01 -.114E+03   -.874E-02 0.213E+01 0.109E+03   0.288E+00 0.554E+00 0.563E+01   -.125E-03 0.329E-05 0.119E-03
   -.842E+00 0.317E+01 0.110E+03   0.924E+00 -.315E+01 -.105E+03   0.624E-01 -.409E+00 -.544E+01   -.838E-03 -.547E-03 -.140E-02
   0.238E+01 -.427E+00 0.113E+03   -.232E+01 0.537E+00 -.108E+03   -.289E+00 -.348E+00 -.551E+01   -.782E-03 -.178E-02 0.578E-03
   -.632E+00 0.243E+01 0.112E+03   0.701E+00 -.239E+01 -.107E+03   -.279E-01 -.432E+00 -.564E+01   -.136E-02 0.689E-03 -.367E-03
   -.336E+01 0.270E+01 0.115E+03   0.345E+01 -.266E+01 -.110E+03   0.134E+00 -.415E+00 -.561E+01   -.969E-03 -.158E-04 0.488E-03
   -.189E+01 0.556E+00 0.114E+03   0.197E+01 -.509E+00 -.109E+03   -.698E-01 -.242E+00 -.533E+01   0.140E-02 -.542E-03 0.329E-03
   -.574E-01 -.149E+01 0.114E+03   0.123E+00 0.159E+01 -.108E+03   -.121E+00 -.200E+00 -.546E+01   0.601E-03 0.103E-02 0.803E-03
   0.391E+01 0.383E+01 0.112E+03   -.392E+01 -.381E+01 -.106E+03   -.245E+00 -.548E+00 -.541E+01   0.171E-02 -.129E-03 -.327E-03
   0.139E+00 0.239E+01 0.113E+03   -.368E-01 -.236E+01 -.108E+03   -.149E+00 -.421E+00 -.544E+01   -.696E-03 0.971E-03 0.184E-03
   0.122E+00 0.136E+01 0.114E+03   -.889E-01 -.134E+01 -.109E+03   -.261E-01 -.270E+00 -.542E+01   0.767E-03 0.291E-03 -.144E-02
   -.258E+00 0.140E+01 -.838E+03   0.293E+00 -.125E+01 0.843E+03   -.215E-01 -.481E+00 -.540E+01   0.779E-03 0.197E-03 -.832E-03
   0.485E+00 0.297E+01 -.839E+03   -.445E+00 -.283E+01 0.844E+03   -.176E+00 -.662E+00 -.546E+01   0.418E-03 -.125E-03 0.207E-04
   -.179E+00 0.222E+01 -.836E+03   0.192E+00 -.201E+01 0.842E+03   0.297E-01 -.750E+00 -.508E+01   -.327E-03 0.420E-03 -.463E-04
   -.780E+00 0.114E+01 -.835E+03   0.871E+00 -.102E+01 0.841E+03   -.175E+00 -.483E+00 -.551E+01   -.266E-03 0.811E-03 -.128E-02
   0.484E+00 0.129E+01 -.835E+03   -.434E+00 -.122E+01 0.840E+03   -.274E+00 -.341E+00 -.546E+01   0.159E-03 -.676E-03 -.118E-02
   0.464E-01 0.200E+00 -.836E+03   -.272E-01 -.337E-01 0.841E+03   -.129E+00 -.472E+00 -.529E+01   0.404E-03 -.384E-04 -.361E-03
   0.253E+01 0.190E+01 -.836E+03   -.256E+01 -.173E+01 0.842E+03   -.216E+00 -.644E+00 -.536E+01   -.439E-03 -.758E-04 -.503E-03
   0.119E+01 0.431E+01 -.837E+03   -.115E+01 -.420E+01 0.842E+03   -.194E+00 -.797E+00 -.529E+01   -.566E-03 -.540E-03 -.502E-03
   -.873E+00 0.116E+01 -.837E+03   0.827E+00 -.105E+01 0.842E+03   0.236E+00 -.462E+00 -.535E+01   -.106E-03 0.749E-05 -.453E-03
   0.137E+01 0.368E+00 0.475E+03   -.138E+01 -.345E+00 -.475E+03   -.198E+00 -.159E+00 -.190E+00   -.899E-03 0.359E-03 0.359E-04
   0.502E+00 0.595E-01 0.472E+03   -.457E+00 -.453E-01 -.472E+03   0.747E-01 0.115E+00 -.538E+00   0.507E-03 -.148E-02 -.150E-04
   0.473E+00 -.234E+01 0.475E+03   -.522E+00 0.238E+01 -.475E+03   0.149E+00 0.959E-01 0.287E+00   -.104E-02 0.175E-03 0.529E-04
   0.322E-01 -.207E+01 0.474E+03   -.104E+00 0.209E+01 -.474E+03   -.132E+00 0.519E-01 0.335E+00   -.103E-02 0.669E-03 0.287E-04
   -.109E+01 -.650E+00 0.476E+03   0.103E+01 0.629E+00 -.476E+03   0.287E-01 0.638E-01 0.151E+00   -.805E-03 -.763E-03 0.630E-04
   -.403E+00 -.171E+01 0.475E+03   0.428E+00 0.170E+01 -.475E+03   -.661E-01 0.590E-01 -.950E-01   0.495E-03 -.642E-03 0.196E-04
   0.159E+00 -.319E+01 0.472E+03   -.192E+00 0.329E+01 -.472E+03   -.125E+00 -.325E-01 -.335E-01   0.185E-02 0.429E-03 -.427E-04
   -.522E+00 0.835E+00 0.477E+03   0.570E+00 -.870E+00 -.477E+03   -.246E-01 -.113E+00 0.261E+00   0.349E-03 0.117E-03 0.932E-04
   -.192E+00 -.112E+01 0.476E+03   0.186E+00 0.108E+01 -.476E+03   -.518E-01 -.281E+00 -.823E-01   0.652E-03 0.858E-03 0.431E-04
   0.261E+01 -.215E+00 -.479E+03   -.271E+01 0.231E+00 0.479E+03   -.494E+00 -.122E+00 -.526E+00   -.116E-03 0.461E-03 -.220E-03
   -.312E+00 -.215E+01 -.474E+03   0.369E+00 0.229E+01 0.474E+03   -.674E-01 0.259E+00 -.162E-01   0.313E-03 -.243E-03 -.127E-03
   0.348E+00 -.155E+01 -.477E+03   -.284E+00 0.162E+01 0.477E+03   -.821E-01 0.302E+00 -.267E+00   -.379E-03 -.189E-03 -.127E-03
   -.685E+00 -.171E+01 -.474E+03   0.693E+00 0.170E+01 0.474E+03   -.793E-01 -.437E-01 -.981E-01   0.183E-04 0.900E-03 -.800E-04
   -.355E-01 0.539E-01 -.471E+03   -.402E-01 -.169E+00 0.472E+03   -.364E-01 -.207E+00 0.348E+00   0.348E-03 0.177E-03 -.105E-03
   -.191E+01 -.110E+01 -.470E+03   0.195E+01 0.109E+01 0.470E+03   0.217E+00 0.882E-01 0.221E+00   0.804E-03 -.405E-03 -.269E-04
   0.201E+00 -.290E+01 -.476E+03   -.255E+00 0.300E+01 0.476E+03   -.642E-01 0.298E+00 -.381E+00   -.265E-04 0.575E-04 -.209E-03
   0.579E+00 -.103E+01 -.475E+03   -.576E+00 0.105E+01 0.475E+03   -.206E+00 0.251E+00 0.184E+00   -.763E-03 -.489E-04 -.172E-03
   0.290E-02 -.163E+01 -.474E+03   -.934E-02 0.165E+01 0.474E+03   -.700E-01 -.681E-02 -.667E-01   -.420E-03 -.633E-03 -.148E-03
 -----------------------------------------------------------------------------------------------
   -.467E+00 0.647E+00 -.528E+00   0.691E-13 -.200E-14 -.455E-12   0.463E+00 -.654E+00 0.534E+00   -.260E-03 -.250E-03 -.324E-02
 
 
 POSITION                                       TOTAL-FORCE (eV/Angst)
 -----------------------------------------------------------------------------------
      0.12481      2.36724      9.67204        -0.201792      0.111101      0.272306
     -1.67626      5.44655      9.70303         0.263110      0.007528      0.105023
     -3.39651      8.50770      9.67568        -0.058608      0.380612      0.149019
      3.60794      2.34524      9.69019         0.122477      0.232717     -0.004560
      1.83411      5.41127      9.66118         0.186842      0.433937      0.249087
      0.08790      8.52053      9.69656         0.278256      0.133673     -0.012655
      7.12263      2.34475      9.65902         0.108291      0.322597      0.394662
      5.34442      5.42555      9.66235         0.027034      0.413832      0.135365
      3.56466      8.50849      9.68017         0.405631      0.463880      0.215337
      2.22181      3.03492     16.85576         0.108736      0.438025      0.082937
      0.45800      6.16380     16.84995         0.059815      0.052831      0.058131
     -1.29464      9.20230     16.83875         0.089675      0.447764      0.384520
      5.71826      3.05171     16.87432         0.168307      0.408964     -0.185818
      3.97740      6.13193     16.86689        -0.024172      0.597063     -0.215814
      2.21117      9.23301     16.84730         0.100376      0.350234      0.107568
     -1.26628      3.07600     16.86168         0.074298      0.031197      0.093791
      7.47022      6.13703     16.86164         0.074809      0.363136      0.049261
      5.71808      9.22073     16.85541         0.132148      0.481453      0.275616
      0.12538      2.45336     13.34082         0.166897     -0.395653     -0.113593
     -1.61299      5.52807     13.32340        -0.189670     -0.245302     -0.099499
     -3.37440      8.61878     13.34101         0.067919     -0.398898     -0.325322
      3.61734      2.44731     13.31231         0.245333     -0.386200     -0.225943
      1.88462      5.50022     13.30855         0.042642     -0.211690      0.003898
      0.13583      8.57931     13.31878        -0.022486     -0.126858     -0.088752
      7.13759      2.47264     13.33255        -0.218327     -0.523389     -0.073625
      5.37548      5.53818     13.31787        -0.019900     -0.388193     -0.113911
      3.63062      8.61015     13.31364         0.037077     -0.257316     -0.042983
      2.26888      3.18793     20.49850         0.016239     -0.324884     -0.079768
      0.51749      6.27115     20.51077        -0.127842     -0.508860     -0.194732
     -1.24324      9.35374     20.47572         0.048554     -0.526592      0.293446
      5.76883      3.18582     20.48452        -0.083931     -0.354000     -0.136679
      4.01153      6.25073     20.48058        -0.219588     -0.258683     -0.126483
      2.24201      9.32064     20.47924        -0.109971     -0.301921      0.046683
     -1.21476      3.18350     20.48774        -0.240707     -0.462657     -0.004940
     -2.99363      6.28718     20.48744        -0.146214     -0.658993      0.067053
      5.73348      9.33775     20.49553         0.184523     -0.338244      0.037980
      0.14968      0.36531     11.51337        -0.215669     -0.149313     -0.324300
      8.87318      3.42125     11.53990         0.122313      0.144004     -0.785465
      7.09809      6.51223     11.48693         0.126557      0.135864      0.360026
     -1.62904      9.57964     11.48710        -0.201390      0.080473      0.436378
      1.86272      3.42215     11.48789        -0.003462      0.054463      0.160293
      0.12363      6.49916     11.50608        -0.052914      0.064618     -0.201801
      7.13824      0.35661     11.50815        -0.152125      0.062846     -0.037611
      5.37777      3.44277     11.47783         0.010575     -0.156070      0.314340
      3.61405      6.52286     11.49779        -0.058850     -0.315378     -0.159025
      2.28599      1.07253     18.70880        -0.611648     -0.112093     -0.612304
      0.50899      4.13836     18.67158        -0.016485      0.389498     -0.075626
     -1.25630      7.21304     18.68857        -0.025455      0.383327     -0.316146
      5.75860      1.06442     18.67127        -0.061651     -0.052302     -0.118588
      3.99549      4.16148     18.64943        -0.089038     -0.319425      0.479029
      2.21791      7.22545     18.65021         0.273730      0.085870      0.250184
      9.26068      1.04497     18.69418        -0.104902      0.405614     -0.520776
      7.51746      4.13678     18.66296        -0.216038      0.272424      0.261348
      5.74642      7.23585     18.67486        -0.073613      0.015692     -0.083900
 -----------------------------------------------------------------------------------
    total drift:                               -0.004280     -0.007677      0.002662


--------------------------------------------------------------------------------------------------------



  FREE ENERGIE OF THE ION-ELECTRON SYSTEM (eV)
  ---------------------------------------------------
  free  energy   TOTEN  =      -342.96957990 eV

  energy  without entropy=     -342.96957990  energy(sigma->0) =     -342.96957990
 
 d Force =-0.2526053E-01[-0.271E-01,-0.234E-01]  d Energy =-0.2521203E-01-0.485E-04
 d Force =-0.8683116E+01[-0.868E+01,-0.868E+01]  d Ewald  =-0.8683117E+01 0.115E-05


--------------------------------------------------------------------------------------------------------


    POTLOK:  cpu time    0.2926: real time    0.2929


--------------------------------------------------------------------------------------------------------


           RANDOM_SEED =         234838186              324                0
   IONSTEP:  cpu time    0.0001: real time    0.0001

  ENERGY OF THE ELECTRON-ION-THERMOSTAT SYSTEM (eV)
  ---------------------------------------------------
% ion-electron   TOTEN  =      -342.969580  see above
  kinetic energy EKIN   =         0.552646
  kin. lattice  EKIN_LAT=         0.000000  (temperature   80.67 K)
  nose potential ES     =        -0.037313
  nose kinetic   EPS    =         0.005339
  ---------------------------------------------------
  total energy   ETOTAL =      -342.448908 eV

  maximum distance moved by ions :      0.53E-03


 mean value of Nose-termostat <S>:     0.962 mean value of <T> :    80.669
 mean temperature <T/S>/<1/S>  :    80.669

    WAVPRE:  cpu time    0.0992: real time    0.1030
    FEWALD:  cpu time    0.0029: real time    0.0029
    ORTHCH:  cpu time    8.1340: real time    8.1467
    POTLOK:  cpu time    0.2913: real time    0.2916
    EDDIAG:  cpu time    2.5140: real time    2.5189
     LOOP+:  cpu time  478.1590: real time  479.0498
    4ORBIT:  cpu time    0.0000: real time    0.0000

 total amount of memory used by VASP MPI-rank0   363712. kBytes
=======================================================================

   base      :      30000. kBytes
   nonl-proj :     198051. kBytes
   fftplans  :      17372. kBytes
   grid      :      82746. kBytes
   one-center:        839. kBytes
   wavefun   :      34704. kBytes
 
  
  
 General timing and accounting informations for this job:
 ========================================================
  
                  Total CPU time used (sec):     5820.604
                            User time (sec):     5806.904
                          System time (sec):       13.700
                         Elapsed time (sec):     5831.180
  
                   Maximum memory used (kb):      802048.
                   Average memory used (kb):           0.
  
                          Minor page faults:       378978
                          Major page faults:            0
                 Voluntary context switches:          607
