0.000000000000000000e+00 2.032270000000000021e+00 9.448180000000000689e+00 -1.760000000000000009e+00 5.080680000000000085e+00 9.448180000000000689e+00 -3.520000000000000018e+00 8.129089999999999705e+00 9.448180000000000689e+00 3.520000000000000018e+00 2.032270000000000021e+00 9.448180000000000689e+00 1.760000000000000009e+00 5.080680000000000085e+00 9.448180000000000689e+00 0.000000000000000000e+00 8.129089999999999705e+00 9.448180000000000689e+00 7.040000000000000036e+00 2.032270000000000021e+00 9.448180000000000689e+00 5.280000000000000249e+00 5.080680000000000085e+00 9.448180000000000689e+00 3.520000000000000018e+00 8.129089999999999705e+00 9.448180000000000689e+00 0.000000000000000000e+00 1.117750000000000021e+00 1.692485999999999891e+01 -1.760000000000000009e+00 4.166159999999999641e+00 1.692485999999999891e+01 -3.520000000000000018e+00 7.214570000000000149e+00 1.692485999999999891e+01 3.520000000000000018e+00 1.117750000000000021e+00 1.692485999999999891e+01 1.760000000000000009e+00 4.166159999999999641e+00 1.692485999999999891e+01 0.000000000000000000e+00 7.214570000000000149e+00 1.692485999999999891e+01 7.040000000000000036e+00 1.117750000000000021e+00 1.692485999999999891e+01 5.280000000000000249e+00 4.166159999999999641e+00 1.692485999999999891e+01 3.520000000000000018e+00 7.214570000000000149e+00 1.692485999999999891e+01 0.000000000000000000e+00 2.032270000000000021e+00 1.307524000000000086e+01 -1.760000000000000009e+00 5.080680000000000085e+00 1.307524000000000086e+01 -3.520000000000000018e+00 8.129089999999999705e+00 1.307524000000000086e+01 3.520000000000000018e+00 2.032270000000000021e+00 1.307524000000000086e+01 1.760000000000000009e+00 5.080680000000000085e+00 1.307524000000000086e+01 0.000000000000000000e+00 8.129089999999999705e+00 1.307524000000000086e+01 7.040000000000000036e+00 2.032270000000000021e+00 1.307524000000000086e+01 5.280000000000000249e+00 5.080680000000000085e+00 1.307524000000000086e+01 3.520000000000000018e+00 8.129089999999999705e+00 1.307524000000000086e+01 0.000000000000000000e+00 1.117750000000000021e+00 2.055190999999999946e+01 -1.760000000000000009e+00 4.166159999999999641e+00 2.055190999999999946e+01 -3.520000000000000018e+00 7.214570000000000149e+00 2.055190999999999946e+01 3.520000000000000018e+00 1.117750000000000021e+00 2.055190999999999946e+01 1.760000000000000009e+00 4.166159999999999641e+00 2.055190999999999946e+01 0.000000000000000000e+00 7.214570000000000149e+00 2.055190999999999946e+01 7.040000000000000036e+00 1.117750000000000021e+00 2.055190999999999946e+01 5.280000000000000249e+00 4.166159999999999641e+00 2.055190999999999946e+01 3.520000000000000018e+00 7.214570000000000149e+00 2.055190999999999946e+01 0.000000000000000000e+00 0.000000000000000000e+00 1.126116000000000028e+01 -1.760000000000000009e+00 3.048410000000000064e+00 1.126116000000000028e+01 -3.520000000000000018e+00 6.096820000000000128e+00 1.126116000000000028e+01 3.520000000000000018e+00 0.000000000000000000e+00 1.126116000000000028e+01 1.760000000000000009e+00 3.048410000000000064e+00 1.126116000000000028e+01 0.000000000000000000e+00 6.096820000000000128e+00 1.126116000000000028e+01 7.040000000000000036e+00 0.000000000000000000e+00 1.126116000000000028e+01 5.280000000000000249e+00 3.048410000000000064e+00 1.126116000000000028e+01 3.520000000000000018e+00 6.096820000000000128e+00 1.126116000000000028e+01 1.760000000000000009e+00 2.133890000000000065e+00 1.873870000000000147e+01 0.000000000000000000e+00 5.182299999999999685e+00 1.873870000000000147e+01 -1.760000000000000009e+00 8.230710000000000193e+00 1.873870000000000147e+01 5.280000000000000249e+00 2.133890000000000065e+00 1.873870000000000147e+01 3.520000000000000018e+00 5.182299999999999685e+00 1.873870000000000147e+01 1.760000000000000009e+00 8.230710000000000193e+00 1.873870000000000147e+01 8.800000000000000711e+00 2.133890000000000065e+00 1.873870000000000147e+01 7.040000000000000036e+00 5.182299999999999685e+00 1.873870000000000147e+01 5.280000000000000249e+00 8.230710000000000193e+00 1.873870000000000147e+01
-1.340000000000000045e-03 2.030370000000000008e+00 9.447480000000000544e+00 -1.759759999999999991e+00 5.077960000000000029e+00 9.448859999999999815e+00 -3.518740000000000201e+00 8.127019999999999911e+00 9.448309999999999320e+00 3.521599999999999842e+00 2.033129999999999882e+00 9.446719999999999118e+00 1.762790000000000079e+00 5.084069999999999645e+00 9.447630000000000194e+00 -2.170000000000000054e-03 8.131790000000000518e+00 9.448430000000000106e+00 7.039670000000000094e+00 2.035379999999999967e+00 9.448449999999999349e+00 5.280879999999999797e+00 5.080440000000000289e+00 9.446310000000000429e+00 3.519909999999999872e+00 8.127039999999999154e+00 9.446020000000000749e+00 -3.899999999999999929e-04 1.119099999999999984e+00 1.692353999999999914e+01 -1.761009999999999964e+00 4.167900000000000382e+00 1.692186999999999841e+01 -3.518219999999999903e+00 7.216330000000000133e+00 1.692436000000000007e+01 3.518569999999999975e+00 1.118009999999999948e+00 1.692676000000000158e+01 1.760289999999999910e+00 4.167419999999999902e+00 1.692369000000000057e+01 -1.800000000000000113e-04 7.213180000000000369e+00 1.692430999999999841e+01 7.040960000000000107e+00 1.118009999999999948e+00 1.692702999999999847e+01 5.279860000000000220e+00 4.166120000000000267e+00 1.692510000000000048e+01 3.520739999999999981e+00 7.213510000000000311e+00 1.692602000000000118e+01 1.830000000000000029e-03 2.034839999999999982e+00 1.307549000000000028e+01 -1.757989999999999942e+00 5.079579999999999984e+00 1.307432999999999979e+01 -3.518180000000000085e+00 8.129949999999999122e+00 1.307461999999999946e+01 3.516999999999999904e+00 2.032709999999999795e+00 1.307590000000000074e+01 1.758659999999999890e+00 5.078870000000000218e+00 1.307662999999999975e+01 1.600000000000000131e-04 8.126699999999999591e+00 1.307687999999999917e+01 7.038899999999999935e+00 2.029599999999999849e+00 1.307649999999999935e+01 5.280300000000000438e+00 5.080879999999999619e+00 1.307625999999999955e+01 3.519000000000000128e+00 8.128780000000000783e+00 1.307587000000000010e+01 2.200000000000000078e-04 1.119229999999999947e+00 2.055145999999999873e+01 -1.757800000000000029e+00 4.166730000000000267e+00 2.055705999999999989e+01 -3.517780000000000129e+00 7.213739999999999597e+00 2.055120000000000147e+01 3.519670000000000076e+00 1.118999999999999995e+00 2.054953000000000074e+01 1.756979999999999986e+00 4.164270000000000138e+00 2.055142000000000024e+01 1.899999999999999996e-03 7.212909999999999933e+00 2.055107999999999890e+01 7.039749999999999730e+00 1.118349999999999955e+00 2.055054000000000158e+01 5.276069999999999816e+00 4.168809999999999683e+00 2.055169000000000068e+01 3.519060000000000077e+00 7.215139999999999887e+00 2.055050999999999917e+01 5.276570000000000427e+00 9.141899999999999693e+00 1.125943000000000005e+01 8.797370000000000800e+00 3.046320000000000139e+00 1.126173999999999964e+01 -3.517069999999999919e+00 6.095710000000000406e+00 1.126153000000000048e+01 3.521949999999999914e+00 7.200000000000000453e-04 1.125955000000000084e+01 1.759940000000000060e+00 3.046559999999999935e+00 1.126313000000000031e+01 -5.699999999999999772e-04 6.097380000000000244e+00 1.126243000000000016e+01 7.044010000000000105e+00 2.500000000000000052e-04 1.126186000000000043e+01 5.279840000000000089e+00 3.047509999999999941e+00 1.125957999999999970e+01 3.519690000000000207e+00 6.096890000000000143e+00 1.125854999999999961e+01 1.761379999999999946e+00 2.130920000000000147e+00 1.873629999999999995e+01 -1.420000000000000038e-03 5.182280000000000442e+00 1.874153000000000091e+01 -1.762410000000000032e+00 8.230399999999999494e+00 1.873684000000000083e+01 5.280520000000000103e+00 2.136550000000000171e+00 1.874129999999999896e+01 3.518100000000000005e+00 5.184499999999999886e+00 1.874067000000000149e+01 1.759439999999999893e+00 8.231310000000000571e+00 1.873770000000000024e+01 8.800330000000000652e+00 2.136629999999999807e+00 1.873837999999999937e+01 7.040429999999999744e+00 5.181409999999999627e+00 1.874166999999999916e+01 5.280280000000000307e+00 8.229419999999999291e+00 1.874163000000000068e+01
-2.670000000000000064e-03 2.028469999999999995e+00 9.446799999999999642e+00 -1.759519999999999973e+00 5.075239999999999974e+00 9.449550000000000338e+00 -3.517479999999999940e+00 8.124950000000000117e+00 9.448460000000000747e+00 3.523200000000000109e+00 2.033990000000000187e+00 9.445259999999999323e+00 1.765570000000000084e+00 5.087439999999999962e+00 9.447089999999999321e+00 -4.329999999999999648e-03 8.134489999999999554e+00 9.448679999999999524e+00 7.039340000000000153e+00 2.038469999999999782e+00 9.448729999999999407e+00 5.281760000000000232e+00 5.080199999999999605e+00 9.444459999999999411e+00 3.519810000000000105e+00 8.125000000000000000e+00 9.443860000000000809e+00 -7.900000000000000121e-04 1.120419999999999972e+00 1.692221999999999937e+01 -1.762010000000000076e+00 4.169620000000000104e+00 1.691889000000000109e+01 -3.516439999999999788e+00 7.218060000000000365e+00 1.692385000000000161e+01 3.517149999999999999e+00 1.118249999999999966e+00 1.692864000000000146e+01 1.760569999999999968e+00 4.168660000000000032e+00 1.692252999999999830e+01 -3.600000000000000227e-04 7.211769999999999570e+00 1.692376000000000147e+01 7.041909999999999670e+00 1.118249999999999966e+00 1.692918999999999841e+01 5.279720000000000191e+00 4.166070000000000384e+00 1.692533999999999850e+01 3.521490000000000009e+00 7.212439999999999962e+00 1.692717000000000027e+01 3.660000000000000059e-03 2.037420000000000009e+00 1.307573000000000008e+01 -1.755989999999999940e+00 5.078490000000000393e+00 1.307343999999999973e+01 -3.516370000000000218e+00 8.130819999999999936e+00 1.307399999999999984e+01 3.514019999999999921e+00 2.033160000000000078e+00 1.307656000000000063e+01 1.757319999999999993e+00 5.077069999999999972e+00 1.307802000000000042e+01 3.200000000000000262e-04 8.124330000000000496e+00 1.307851999999999926e+01 7.037799999999999834e+00 2.026940000000000186e+00 1.307775999999999961e+01 5.280599999999999739e+00 5.081100000000000172e+00 1.307727000000000039e+01 3.518009999999999859e+00 8.128470000000000084e+00 1.307651000000000074e+01 4.400000000000000157e-04 1.120710000000000095e+00 2.055099999999999838e+01 -1.755619999999999958e+00 4.167300000000000004e+00 2.056221000000000032e+01 -3.515569999999999862e+00 7.212920000000000442e+00 2.055050999999999917e+01 3.519340000000000135e+00 1.120249999999999968e+00 2.054716000000000165e+01 1.753959999999999964e+00 4.162370000000000125e+00 2.055093000000000103e+01 3.789999999999999966e-03 7.211269999999999847e+00 2.055024999999999835e+01 7.039500000000000313e+00 1.118940000000000046e+00 2.054917000000000016e+01 5.272149999999999892e+00 4.171450000000000102e+00 2.055146999999999835e+01 3.518130000000000202e+00 7.215720000000000134e+00 2.054913000000000167e+01 5.273159999999999847e+00 9.138600000000000279e+00 1.125769999999999982e+01 8.794760000000000133e+00 3.044239999999999835e+00 1.126230999999999938e+01 -3.514159999999999950e+00 6.094599999999999795e+00 1.126188999999999929e+01 3.523890000000000189e+00 1.449999999999999900e-03 1.125796000000000063e+01 1.759870000000000045e+00 3.044729999999999936e+00 1.126506000000000007e+01 -1.139999999999999954e-03 6.097940000000000360e+00 1.126369000000000042e+01 7.048000000000000043e+00 5.100000000000000366e-04 1.126254999999999917e+01 5.279679999999999929e+00 3.046619999999999884e+00 1.125801000000000052e+01 3.519390000000000018e+00 6.096960000000000157e+00 1.125596999999999959e+01 1.762750000000000039e+00 2.127969999999999917e+00 1.873391000000000162e+01 -2.850000000000000103e-03 5.182249999999999801e+00 1.874434000000000111e+01 -1.764790000000000081e+00 8.230100000000000193e+00 1.873498999999999981e+01 5.281030000000000335e+00 2.139200000000000212e+00 1.874389000000000038e+01 3.516189999999999927e+00 5.186679999999999957e+00 1.874262999999999835e+01 1.758890000000000065e+00 8.231899999999999551e+00 1.873669999999999902e+01 8.800670000000000215e+00 2.139380000000000059e+00 1.873806000000000083e+01 7.040860000000000340e+00 5.180530000000000079e+00 1.874463000000000079e+01 5.280569999999999986e+00 8.228139999999999787e+00 1.874454000000000065e+01
-4.000000000000000083e-03 2.026569999999999983e+00 9.446130000000000138e+00 -1.759260000000000046e+00 5.072519999999999918e+00 9.450229999999999464e+00 -3.516230000000000189e+00 8.122889999999999944e+00 9.448600000000000776e+00 3.524779999999999802e+00 2.034850000000000048e+00 9.443799999999999528e+00 1.768329999999999957e+00 5.090790000000000148e+00 9.446550000000000225e+00 -6.470000000000000057e-03 8.137169999999999348e+00 9.448940000000000339e+00 7.039019999999999833e+00 2.041549999999999976e+00 9.448990000000000222e+00 5.282650000000000290e+00 5.079970000000000319e+00 9.442610000000000170e+00 3.519709999999999894e+00 8.122949999999999449e+00 9.441700000000000870e+00 -1.180000000000000059e-03 1.121699999999999919e+00 1.692090999999999923e+01 -1.763009999999999966e+00 4.171319999999999695e+00 1.691593999999999909e+01 -3.514689999999999870e+00 7.219750000000000334e+00 1.692334999999999923e+01 3.515750000000000153e+00 1.118470000000000075e+00 1.693049999999999855e+01 1.760850000000000026e+00 4.169880000000000031e+00 1.692138999999999882e+01 -5.500000000000000331e-04 7.210350000000000037e+00 1.692321000000000097e+01 7.042860000000000120e+00 1.118479999999999919e+00 1.693133999999999872e+01 5.279580000000000162e+00 4.166000000000000369e+00 1.692558999999999969e+01 3.522240000000000038e+00 7.211359999999999992e+00 1.692830999999999975e+01 5.470000000000000036e-03 2.039989999999999970e+00 1.307596999999999987e+01 -1.754000000000000004e+00 5.077429999999999666e+00 1.307254999999999967e+01 -3.514559999999999906e+00 8.131709999999999994e+00 1.307337000000000060e+01 3.511050000000000004e+00 2.033619999999999983e+00 1.307722000000000051e+01 1.755989999999999940e+00 5.075309999999999988e+00 1.307939000000000007e+01 4.899999999999999842e-04 8.121999999999999886e+00 1.308014999999999972e+01 7.036699999999999733e+00 2.024319999999999897e+00 1.307901999999999987e+01 5.280899999999999928e+00 5.081339999999999968e+00 1.307826000000000022e+01 3.517020000000000035e+00 8.128180000000000405e+00 1.307714999999999961e+01 6.700000000000000226e-04 1.122179999999999955e+00 2.055055000000000121e+01 -1.753440000000000110e+00 4.167860000000000120e+00 2.056734000000000151e+01 -3.513370000000000104e+00 7.212100000000000399e+00 2.054983000000000004e+01 3.519019999999999815e+00 1.121490000000000098e+00 2.054479999999999862e+01 1.750960000000000072e+00 4.160470000000000113e+00 2.055045000000000144e+01 5.669999999999999693e-03 7.209640000000000271e+00 2.054942000000000135e+01 7.039259999999999629e+00 1.119539999999999980e+00 2.054780999999999835e+01 5.268239999999999590e+00 4.174100000000000144e+00 2.055126999999999882e+01 3.517180000000000195e+00 7.216300000000000381e+00 2.054776999999999987e+01 5.269790000000000418e+00 9.135329999999999728e+00 1.125600999999999985e+01 8.792189999999999728e+00 3.042180000000000106e+00 1.126289000000000051e+01 -3.511270000000000113e+00 6.093499999999999694e+00 1.126224999999999987e+01 3.525809999999999889e+00 2.200000000000000133e-03 1.125638999999999967e+01 1.759810000000000096e+00 3.042940000000000200e+00 1.126693000000000033e+01 -1.690000000000000096e-03 6.098499999999999588e+00 1.126491000000000042e+01 7.051929999999999588e+00 7.500000000000000156e-04 1.126322000000000045e+01 5.279510000000000147e+00 3.045739999999999892e+00 1.125647999999999982e+01 3.519109999999999960e+00 6.097050000000000303e+00 1.125343999999999944e+01 1.764080000000000092e+00 2.125070000000000014e+00 1.873153999999999897e+01 -4.279999999999999950e-03 5.182190000000000296e+00 1.874709000000000003e+01 -1.767120000000000024e+00 8.229779999999999873e+00 1.873317000000000121e+01 5.281520000000000437e+00 2.141820000000000057e+00 1.874643000000000015e+01 3.514289999999999914e+00 5.188830000000000275e+00 1.874455000000000027e+01 1.758340000000000014e+00 8.232480000000000686e+00 1.873571000000000097e+01 8.801009999999999778e+00 2.142110000000000181e+00 1.873774999999999835e+01 7.041310000000000180e+00 5.179640000000000022e+00 1.874755000000000038e+01 5.280850000000000044e+00 8.226879999999999526e+00 1.874739999999999895e+01
-5.320000000000000076e-03 2.024669999999999970e+00 9.445470000000000255e+00 -1.758999999999999897e+00 5.069810000000000372e+00 9.450919999999999987e+00 -3.514979999999999993e+00 8.120829999999999771e+00 9.448750000000000426e+00 3.526349999999999874e+00 2.035699999999999843e+00 9.442349999999999355e+00 1.771060000000000079e+00 5.094100000000000072e+00 9.446030000000000371e+00 -8.569999999999999493e-03 8.139839999999999520e+00 9.449189999999999756e+00 7.038689999999999891e+00 2.044589999999999907e+00 9.449249999999999261e+00 5.283549999999999969e+00 5.079729999999999634e+00 9.440789999999999793e+00 3.519600000000000062e+00 8.120919999999999916e+00 9.439519999999999911e+00 -1.590000000000000050e-03 1.122949999999999893e+00 1.691961999999999833e+01 -1.764010000000000078e+00 4.173000000000000043e+00 1.691301999999999950e+01 -3.512960000000000083e+00 7.221390000000000420e+00 1.692286000000000001e+01 3.514390000000000125e+00 1.118679999999999897e+00 1.693233999999999995e+01 1.761120000000000019e+00 4.171070000000000277e+00 1.692028000000000176e+01 -7.399999999999999894e-04 7.208910000000000373e+00 1.692267000000000010e+01 7.043790000000000440e+00 1.118700000000000028e+00 1.693347999999999942e+01 5.279429999999999623e+00 4.165930000000000355e+00 1.692586999999999975e+01 3.522990000000000066e+00 7.210270000000000401e+00 1.692945999999999884e+01 7.239999999999999908e-03 2.042530000000000179e+00 1.307620000000000005e+01 -1.752019999999999911e+00 5.076369999999999827e+00 1.307168000000000063e+01 -3.512770000000000170e+00 8.132619999999999294e+00 1.307272999999999996e+01 3.508119999999999905e+00 2.034089999999999954e+00 1.307787000000000077e+01 1.754680000000000017e+00 5.073590000000000266e+00 1.308074000000000048e+01 6.599999999999999964e-04 8.119719999999999160e+00 1.308174999999999955e+01 7.035590000000000011e+00 2.021739999999999871e+00 1.308028000000000013e+01 5.281209999999999738e+00 5.081590000000000273e+00 1.307923000000000080e+01 3.516049999999999898e+00 8.127890000000000725e+00 1.307779000000000025e+01 8.899999999999999491e-04 1.123639999999999972e+00 2.055009000000000086e+01 -1.751290000000000013e+00 4.168420000000000236e+00 2.057245999999999952e+01 -3.511169999999999902e+00 7.211280000000000356e+00 2.054917000000000016e+01 3.518689999999999873e+00 1.122710000000000097e+00 2.054245999999999839e+01 1.747970000000000024e+00 4.158570000000000100e+00 2.054995999999999867e+01 7.530000000000000235e-03 7.208039999999999559e+00 2.054860000000000042e+01 7.039030000000000342e+00 1.120139999999999914e+00 2.054646999999999935e+01 5.264350000000000307e+00 4.176739999999999675e+00 2.055110000000000170e+01 3.516239999999999810e+00 7.216890000000000249e+00 2.054644000000000048e+01 5.266490000000000116e+00 9.132099999999999440e+00 1.125435000000000052e+01 8.789659999999999584e+00 3.040160000000000196e+00 1.126347999999999949e+01 -3.508430000000000160e+00 6.092399999999999594e+00 1.126261000000000045e+01 3.527699999999999836e+00 2.969999999999999984e-03 1.125487000000000037e+01 1.759749999999999925e+00 3.041189999999999838e+00 1.126871000000000045e+01 -2.210000000000000159e-03 6.099039999999999573e+00 1.126609000000000016e+01 7.055790000000000006e+00 9.899999999999999946e-04 1.126385999999999932e+01 5.279320000000000235e+00 3.044890000000000096e+00 1.125501000000000040e+01 3.518839999999999968e+00 6.097139999999999560e+00 1.125098000000000020e+01 1.765370000000000106e+00 2.122230000000000061e+00 1.872919999999999874e+01 -5.709999999999999798e-03 5.182100000000000151e+00 1.874977000000000160e+01 -1.769379999999999953e+00 8.229459999999999553e+00 1.873139000000000109e+01 5.281990000000000407e+00 2.144400000000000084e+00 1.874891999999999825e+01 3.512399999999999967e+00 5.190920000000000201e+00 1.874642000000000053e+01 1.757800000000000029e+00 8.233029999999999404e+00 1.873471999999999937e+01 8.801370000000000360e+00 2.144839999999999858e+00 1.873745999999999867e+01 7.041760000000000019e+00 5.178770000000000095e+00 1.875040999999999869e+01 5.281139999999999723e+00 8.225640000000000285e+00 1.875018000000000029e+01
-6.640000000000000069e-03 2.022780000000000022e+00 9.444839999999999236e+00 -1.758729999999999905e+00 5.067109999999999559e+00 9.451589999999999492e+00 -3.513739999999999863e+00 8.118779999999999220e+00 9.448900000000000077e+00 3.527890000000000192e+00 2.036550000000000082e+00 9.440899999999999181e+00 1.773740000000000094e+00 5.097369999999999735e+00 9.445529999999999760e+00 -1.061999999999999923e-02 8.142480000000000828e+00 9.449460000000000193e+00 7.038359999999999950e+00 2.047579999999999956e+00 9.449479999999999436e+00 5.284460000000000157e+00 5.079500000000000348e+00 9.438980000000000814e+00 3.519480000000000164e+00 8.118900000000000006e+00 9.437329999999999330e+00 -2.000000000000000042e-03 1.124139999999999917e+00 1.691835000000000022e+01 -1.765009999999999968e+00 4.174669999999999881e+00 1.691015000000000157e+01 -3.511280000000000179e+00 7.222979999999999734e+00 1.692239000000000004e+01 3.513069999999999915e+00 1.118859999999999966e+00 1.693413999999999930e+01 1.761370000000000102e+00 4.172229999999999883e+00 1.691920000000000002e+01 -9.300000000000000541e-04 7.207449999999999690e+00 1.692214999999999847e+01 7.044710000000000250e+00 1.118919999999999915e+00 1.693560000000000088e+01 5.279279999999999973e+00 4.165860000000000340e+00 1.692616999999999905e+01 3.523740000000000094e+00 7.209190000000000431e+00 1.693058999999999870e+01 8.989999999999999727e-03 2.045049999999999812e+00 1.307642000000000060e+01 -1.750059999999999949e+00 5.075330000000000119e+00 1.307083000000000084e+01 -3.510990000000000055e+00 8.133549999999999613e+00 1.307206000000000046e+01 3.505220000000000002e+00 2.034569999999999990e+00 1.307850999999999964e+01 1.753390000000000004e+00 5.071900000000000297e+00 1.308206999999999987e+01 8.499999999999999526e-04 8.117490000000000094e+00 1.308333000000000013e+01 7.034469999999999779e+00 2.019190000000000040e+00 1.308153000000000077e+01 5.281509999999999927e+00 5.081859999999999822e+00 1.308014999999999972e+01 3.515089999999999826e+00 8.127599999999999270e+00 1.307843000000000089e+01 1.110000000000000092e-03 1.125099999999999989e+00 2.054964000000000013e+01 -1.749160000000000048e+00 4.168969999999999843e+00 2.057754999999999868e+01 -3.508989999999999831e+00 7.210469999999999935e+00 2.054854999999999876e+01 3.518380000000000063e+00 1.123899999999999899e+00 2.054016000000000020e+01 1.745009999999999950e+00 4.156649999999999956e+00 2.054947999999999908e+01 9.360000000000000264e-03 7.206470000000000375e+00 2.054777999999999949e+01 7.038809999999999789e+00 1.120749999999999913e+00 2.054513999999999996e+01 5.260469999999999757e+00 4.179380000000000095e+00 2.055095999999999989e+01 3.515280000000000182e+00 7.217500000000000249e+00 2.054514999999999958e+01 5.263259999999999827e+00 9.128930000000000433e+00 1.125273999999999930e+01 8.787200000000000344e+00 3.038170000000000037e+00 1.126407999999999987e+01 -3.505640000000000089e+00 6.091300000000000381e+00 1.126296999999999926e+01 3.529549999999999965e+00 3.759999999999999887e-03 1.125341000000000058e+01 1.759700000000000042e+00 3.039509999999999934e+00 1.127037999999999940e+01 -2.710000000000000169e-03 6.099569999999999936e+00 1.126720000000000077e+01 7.059549999999999770e+00 1.209999999999999921e-03 1.126445999999999970e+01 5.279130000000000322e+00 3.044070000000000054e+00 1.125361999999999973e+01 3.518600000000000172e+00 6.097229999999999706e+00 1.124863000000000035e+01 1.766590000000000105e+00 2.119479999999999809e+00 1.872689000000000092e+01 -7.150000000000000105e-03 5.181960000000000122e+00 1.875234000000000023e+01 -1.771539999999999893e+00 8.229129999999999612e+00 1.872965999999999909e+01 5.282429999999999737e+00 2.146939999999999849e+00 1.875132999999999939e+01 3.510510000000000019e+00 5.192960000000000242e+00 1.874822999999999951e+01 1.757270000000000110e+00 8.233570000000000277e+00 1.873374000000000095e+01 8.801750000000000185e+00 2.147569999999999979e+00 1.873716999999999899e+01 7.042229999999999990e+00 5.177900000000000169e+00 1.875319999999999965e+01 5.281439999999999912e+00 8.224439999999999529e+00 1.875288000000000110e+01
-7.960000000000000062e-03 2.020890000000000075e+00 9.444240000000000634e+00 -1.758429999999999938e+00 5.064420000000000144e+00 9.452270000000000394e+00 -3.512509999999999799e+00 8.116730000000000445e+00 9.449059999999999349e+00 3.529399999999999871e+00 2.037399999999999878e+00 9.439460000000000406e+00 1.776359999999999939e+00 5.100590000000000401e+00 9.445040000000000546e+00 -1.260999999999999968e-02 8.145110000000000738e+00 9.449719999999999231e+00 7.038039999999999630e+00 2.050530000000000186e+00 9.449699999999999989e+00 5.285379999999999967e+00 5.079279999999999795e+00 9.437200000000000699e+00 3.519359999999999822e+00 8.116889999999999716e+00 9.435119999999999507e+00 -2.419999999999999842e-03 1.125289999999999901e+00 1.691711000000000098e+01 -1.766000000000000014e+00 4.176319999999999588e+00 1.690733000000000175e+01 -3.509640000000000093e+00 7.224510000000000431e+00 1.692192999999999969e+01 3.511810000000000098e+00 1.119029999999999969e+00 1.693590000000000018e+01 1.761609999999999898e+00 4.173370000000000246e+00 1.691816000000000031e+01 -1.139999999999999954e-03 7.205980000000000274e+00 1.692164000000000001e+01 7.045609999999999928e+00 1.119140000000000024e+00 1.693770999999999916e+01 5.279130000000000322e+00 4.165790000000000326e+00 1.692650000000000077e+01 3.524500000000000188e+00 7.208099999999999952e+00 1.693171999999999855e+01 1.068000000000000026e-02 2.047509999999999941e+00 1.307662000000000013e+01 -1.748110000000000053e+00 5.074300000000000033e+00 1.307000999999999991e+01 -3.509230000000000071e+00 8.134489999999999554e+00 1.307136999999999993e+01 3.502380000000000049e+00 2.035050000000000026e+00 1.307915000000000028e+01 1.752129999999999965e+00 5.070260000000000211e+00 1.308336000000000077e+01 1.049999999999999935e-03 8.115330000000000155e+00 1.308487000000000045e+01 7.033350000000000435e+00 2.016680000000000028e+00 1.308278999999999925e+01 5.281810000000000116e+00 5.082150000000000389e+00 1.308103999999999978e+01 3.514159999999999950e+00 8.127309999999999590e+00 1.307909000000000077e+01 1.340000000000000045e-03 1.126540000000000097e+00 2.054917000000000016e+01 -1.747069999999999901e+00 4.169509999999999827e+00 2.058260999999999896e+01 -3.506810000000000205e+00 7.209660000000000402e+00 2.054796999999999940e+01 3.518060000000000187e+00 1.125080000000000080e+00 2.053789000000000087e+01 1.742070000000000007e+00 4.154720000000000191e+00 2.054899999999999949e+01 1.115000000000000019e-02 7.204950000000000188e+00 2.054697000000000173e+01 7.038599999999999746e+00 1.121359999999999912e+00 2.054382999999999981e+01 5.256630000000000358e+00 4.182019999999999627e+00 2.055086999999999975e+01 3.514320000000000110e+00 7.218119999999999870e+00 2.054391000000000034e+01 5.260130000000000194e+00 9.125819999999999155e+00 1.125120000000000076e+01 8.784810000000000230e+00 3.036220000000000141e+00 1.126468999999999987e+01 -3.502920000000000034e+00 6.090209999999999901e+00 1.126333999999999946e+01 3.531350000000000211e+00 4.590000000000000330e-03 1.125202999999999953e+01 1.759640000000000093e+00 3.037910000000000110e+00 1.127189000000000085e+01 -3.160000000000000048e-03 6.100069999999999659e+00 1.126824000000000048e+01 7.063180000000000014e+00 1.399999999999999986e-03 1.126501000000000019e+01 5.278909999999999769e+00 3.043280000000000207e+00 1.125231999999999921e+01 3.518390000000000128e+00 6.097339999999999982e+00 1.124638999999999989e+01 1.767730000000000024e+00 2.116849999999999898e+00 1.872462000000000160e+01 -8.600000000000000006e-03 5.181779999999999831e+00 1.875478000000000023e+01 -1.773590000000000000e+00 8.228799999999999670e+00 1.872800000000000153e+01 5.282829999999999693e+00 2.149430000000000174e+00 1.875366000000000000e+01 3.508620000000000072e+00 5.194919999999999760e+00 1.874996000000000151e+01 1.756760000000000099e+00 8.234069999999999112e+00 1.873276999999999859e+01 8.802149999999999253e+00 2.150300000000000100e+00 1.873689999999999856e+01 7.042720000000000091e+00 5.177050000000000374e+00 1.875590000000000046e+01 5.281740000000000101e+00 8.223280000000000811e+00 1.875546999999999898e+01