-3.000000000000000076e-06 -2.291000000000000068e-03 1.900000000000000105e-05 -3.000000000000000076e-06 -2.294000000000000032e-03 2.300000000000000002e-05 0.000000000000000000e+00 -2.295999999999999864e-03 1.699999999999999987e-05 1.999999999999999909e-06 -2.292000000000000200e-03 1.800000000000000046e-05 0.000000000000000000e+00 -2.294000000000000032e-03 2.099999999999999884e-05 0.000000000000000000e+00 -2.291000000000000068e-03 2.099999999999999884e-05 0.000000000000000000e+00 -2.291000000000000068e-03 2.500000000000000120e-05 3.999999999999999819e-06 -2.292999999999999899e-03 2.300000000000000002e-05 -9.999999999999999547e-07 -2.291000000000000068e-03 2.099999999999999884e-05 -3.000000000000000076e-06 -6.457599999999999452e-02 -6.310000000000000504e-04 -1.999999999999999909e-06 -6.457899999999999752e-02 -6.279999999999999775e-04 -9.999999999999999547e-07 -6.458099999999999952e-02 -6.300000000000000261e-04 9.999999999999999547e-07 -6.457599999999999452e-02 -6.329999999999999906e-04 1.999999999999999909e-06 -6.457599999999999452e-02 -6.279999999999999775e-04 1.999999999999999909e-06 -6.457899999999999752e-02 -6.300000000000000261e-04 1.999999999999999909e-06 -6.457799999999999652e-02 -6.269999999999999532e-04 9.999999999999999547e-07 -6.457599999999999452e-02 -6.260000000000000373e-04 0.000000000000000000e+00 -6.457899999999999752e-02 -6.250000000000000130e-04 -1.999999999999999909e-06 6.659299999999999942e-02 5.280000000000000405e-04 -3.000000000000000076e-06 6.658999999999999642e-02 5.230000000000000274e-04 0.000000000000000000e+00 6.658799999999999442e-02 5.299999999999999807e-04 1.999999999999999909e-06 6.659299999999999942e-02 5.299999999999999807e-04 -9.999999999999999547e-07 6.659099999999999742e-02 5.249999999999999676e-04 3.000000000000000076e-06 6.659199999999999842e-02 5.259999999999999919e-04 9.999999999999999547e-07 6.659199999999999842e-02 5.209999999999999788e-04 3.000000000000000076e-06 6.658999999999999642e-02 5.230000000000000274e-04 -1.999999999999999909e-06 6.659199999999999842e-02 5.230000000000000274e-04 -3.000000000000000076e-06 7.479999999999999670e-04 -1.399999999999999877e-04 -9.999999999999999547e-07 7.450000000000000025e-04 -1.410000000000000120e-04 -9.999999999999999547e-07 7.439999999999999782e-04 -1.389999999999999905e-04 0.000000000000000000e+00 7.470000000000000511e-04 -1.369999999999999961e-04 9.999999999999999547e-07 7.460000000000000268e-04 -1.399999999999999877e-04 1.999999999999999909e-06 7.460000000000000268e-04 -1.399999999999999877e-04 3.000000000000000076e-06 7.489999999999999913e-04 -1.420000000000000092e-04 1.999999999999999909e-06 7.479999999999999670e-04 -1.430000000000000064e-04 0.000000000000000000e+00 7.470000000000000511e-04 -1.440000000000000036e-04 -6.999999999999999895e-06 1.618400000000000047e-02 -2.010000000000000068e-04 -7.999999999999999638e-06 1.618599999999999900e-02 -2.020000000000000040e-04 -9.999999999999999547e-07 1.617700000000000041e-02 -2.010000000000000068e-04 6.000000000000000152e-06 1.618400000000000047e-02 -2.030000000000000012e-04 -3.000000000000000076e-06 1.618999999999999953e-02 -2.010000000000000068e-04 -9.999999999999999547e-07 1.618299999999999947e-02 -2.010000000000000068e-04 1.999999999999999909e-06 1.618899999999999853e-02 -2.010000000000000068e-04 9.000000000000000228e-06 1.618700000000000000e-02 -2.020000000000000040e-04 0.000000000000000000e+00 1.618500000000000147e-02 -2.010000000000000068e-04 -9.999999999999999547e-07 -1.667000000000000079e-02 3.550000000000000096e-04 0.000000000000000000e+00 -1.667599999999999985e-02 3.530000000000000152e-04 9.999999999999999547e-07 -1.668000000000000038e-02 3.519999999999999908e-04 7.999999999999999638e-06 -1.666899999999999979e-02 3.530000000000000152e-04 1.999999999999999909e-06 -1.667400000000000132e-02 3.530000000000000152e-04 3.000000000000000076e-06 -1.667599999999999985e-02 3.539999999999999853e-04 -3.999999999999999819e-06 -1.667499999999999885e-02 3.559999999999999797e-04 -3.000000000000000076e-06 -1.667899999999999938e-02 3.530000000000000152e-04 -6.999999999999999895e-06 -1.667899999999999938e-02 3.550000000000000096e-04
6.237000000000000356e-03 3.674999999999999881e-03 2.123500000000000040e-02 1.199000000000000066e-02 8.007000000000000228e-03 -4.048999999999999648e-03 -7.499999999999999722e-03 6.616000000000000353e-03 3.958999999999999846e-03 -2.236300000000000093e-02 -4.976999999999999653e-03 5.366000000000000110e-03 -3.924699999999999717e-02 -4.236000000000000182e-02 1.564300000000000065e-02 4.114199999999999802e-02 -2.070299999999999918e-02 3.982000000000000296e-03 1.477000000000000014e-03 -3.949500000000000233e-02 -1.290600000000000080e-02 9.603999999999999690e-03 2.037999999999999881e-03 2.025599999999999970e-02 -7.822000000000000827e-03 9.121000000000000635e-03 -1.082800000000000082e-02 -6.302999999999999575e-03 -9.027300000000000602e-02 2.016099999999999837e-02 4.473000000000000413e-03 -6.358800000000000563e-02 4.118999999999999745e-02 -3.361700000000000105e-02 -9.560899999999999954e-02 1.225599999999999953e-02 3.821599999999999997e-02 -6.240799999999999820e-02 -3.046099999999999849e-02 -1.034400000000000076e-02 -7.190100000000000657e-02 3.131400000000000156e-02 -4.714999999999999573e-03 -5.930300000000000155e-02 1.080599999999999963e-02 -1.292500000000000072e-02 -5.093500000000000111e-02 -1.378399999999999938e-02 -3.008999999999999956e-03 -4.874400000000000260e-02 2.207699999999999940e-02 2.592000000000000120e-03 -4.814999999999999836e-02 -6.387999999999999581e-03 -3.193800000000000111e-02 1.805999999999999966e-02 -1.223999999999999914e-02 -1.530800000000000043e-02 6.054699999999999666e-02 1.811799999999999869e-02 -1.421599999999999947e-02 6.288399999999999546e-02 -1.582199999999999926e-02 3.645999999999999935e-02 5.474500000000000199e-02 -6.620000000000000016e-03 1.826099999999999945e-02 8.496499999999999886e-02 -2.478199999999999847e-02 9.934000000000000122e-03 9.733799999999999397e-02 -2.407700000000000118e-02 -4.956000000000000336e-03 8.394600000000000672e-02 -2.745000000000000044e-03 -5.140000000000000254e-04 6.391499999999999959e-02 -3.273600000000000121e-02 1.476099999999999982e-02 4.877100000000000185e-02 3.005999999999999991e-03 7.590000000000000175e-04 -8.906000000000000721e-03 -1.616999999999999948e-03 -2.432399999999999840e-02 -6.870000000000000238e-03 -2.462800000000000059e-02 -1.155400000000000003e-02 5.428999999999999798e-03 2.744600000000000165e-02 3.668999999999999952e-03 -1.926800000000000040e-02 2.574699999999999905e-02 2.132600000000000121e-02 -6.429999999999999952e-03 1.337000000000000081e-03 -2.605400000000000077e-02 3.204400000000000304e-02 4.120000000000000398e-03 9.747000000000000455e-03 3.844000000000000195e-03 1.548899999999999930e-02 2.108200000000000005e-02 -3.508999999999999966e-03 2.826800000000000146e-02 -4.904999999999999638e-03 1.019100000000000041e-02 3.570600000000000163e-02 5.302500000000000269e-02 4.992800000000000016e-02 3.456300000000000344e-02 4.219599999999999740e-02 3.624100000000000238e-02 6.533999999999999878e-03 -3.621300000000000213e-02 1.413700000000000026e-02 4.110000000000000155e-04 -2.691100000000000089e-02 2.806799999999999920e-02 3.893400000000000333e-02 2.128999999999999816e-03 5.376999999999999835e-02 -7.752599999999999769e-02 2.040700000000000153e-02 -6.899999999999999667e-05 -4.012600000000000194e-02 -6.703299999999999537e-02 5.810000000000000277e-04 -2.459499999999999881e-02 -9.766999999999999640e-03 2.984900000000000053e-02 5.009199999999999764e-02 1.613099999999999951e-02 1.608599999999999960e-02 6.508099999999999996e-02 -4.078799999999999787e-02 4.692899999999999849e-02 2.275800000000000045e-02 -2.688999999999999984e-03 -3.907700000000000062e-02 -6.776999999999999691e-02 6.335000000000000353e-02 -1.654600000000000168e-02 3.477299999999999836e-02 -2.043999999999999984e-02 -4.223099999999999771e-02 -4.891199999999999715e-02 4.568000000000000012e-03 -5.311500000000000249e-02 -4.312499999999999667e-02 7.322000000000000383e-03 -2.793999999999999956e-02 4.484000000000000138e-03 1.142100000000000060e-02 -1.595600000000000143e-02 8.845999999999999697e-03 1.056600000000000074e-02 -4.879999999999999789e-03 -4.882500000000000034e-02 2.677000000000000126e-03 1.145400000000000064e-02 -6.001100000000000184e-02
1.228100000000000025e-02 9.454000000000000598e-03 4.209100000000000341e-02 2.389000000000000151e-02 1.831100000000000089e-02 -8.148999999999999994e-03 -1.491100000000000064e-02 1.552000000000000081e-02 7.893999999999999975e-03 -4.448799999999999977e-02 -7.709999999999999840e-03 1.055299999999999988e-02 -7.851700000000000346e-02 -8.177299999999999847e-02 3.005400000000000085e-02 8.222599999999999354e-02 -3.927100000000000035e-02 7.205999999999999732e-03 2.919999999999999853e-03 -7.639600000000000557e-02 -2.611199999999999979e-02 1.896199999999999969e-02 6.330999999999999822e-03 4.036800000000000110e-02 -1.551899999999999981e-02 2.060199999999999879e-02 -2.154000000000000012e-02 -1.262699999999999934e-02 -1.152519999999999933e-01 4.027800000000000130e-02 8.791999999999999468e-03 -6.275699999999999334e-02 8.238900000000000390e-02 -6.720600000000000185e-02 -1.262320000000000109e-01 2.428100000000000050e-02 7.664700000000000679e-02 -6.044999999999999679e-02 -6.102099999999999885e-02 -2.052299999999999958e-02 -7.919800000000000451e-02 6.248000000000000081e-02 -9.336999999999999814e-03 -5.394999999999999796e-02 2.197199999999999848e-02 -2.568300000000000097e-02 -3.714400000000000340e-02 -2.714700000000000099e-02 -5.832000000000000378e-03 -3.308799999999999936e-02 4.421400000000000330e-02 5.132000000000000277e-03 -3.164299999999999752e-02 -1.230499999999999997e-02 -6.397100000000000009e-02 -2.982299999999999882e-02 -2.389499999999999957e-02 -3.057899999999999854e-02 5.441100000000000103e-02 3.573400000000000187e-02 -2.828400000000000011e-02 5.895999999999999852e-02 -3.182600000000000012e-02 7.270300000000000373e-02 4.278699999999999865e-02 -1.327899999999999914e-02 3.611000000000000321e-02 1.029840000000000061e-01 -4.966799999999999687e-02 1.958500000000000171e-02 1.276529999999999887e-01 -4.808699999999999780e-02 -9.771000000000000171e-03 1.011630000000000029e-01 -5.919999999999999915e-03 -8.800000000000000313e-04 6.119299999999999740e-02 -6.530800000000000494e-02 2.956100000000000047e-02 3.108199999999999852e-02 5.655999999999999570e-03 1.503999999999999912e-03 -1.865800000000000097e-02 -3.046999999999999795e-03 -4.846999999999999920e-02 -1.441100000000000020e-02 -4.895499999999999852e-02 -2.312399999999999872e-02 1.016300000000000016e-02 5.495900000000000091e-02 7.259999999999999960e-03 -3.921600000000000086e-02 5.184099999999999819e-02 4.268299999999999872e-02 -1.351600000000000024e-02 2.949999999999999931e-03 -5.162100000000000022e-02 6.312500000000000056e-02 8.890999999999999598e-03 1.954399999999999887e-02 6.871999999999999637e-03 3.112600000000000089e-02 4.231599999999999945e-02 -7.849000000000000074e-03 5.660400000000000154e-02 -9.861999999999999239e-03 1.974300000000000013e-02 7.163200000000000123e-02 1.057239999999999985e-01 8.293599999999999584e-02 6.838600000000000234e-02 8.408200000000000396e-02 5.623299999999999826e-02 1.340799999999999978e-02 -7.205699999999999605e-02 1.234200000000000054e-02 1.007000000000000083e-03 -5.387399999999999828e-02 3.996100000000000346e-02 7.790300000000000002e-02 4.334000000000000179e-03 9.090399999999999869e-02 -1.537519999999999998e-01 4.075800000000000256e-02 -1.603600000000000164e-02 -7.959600000000000009e-02 -1.333930000000000116e-01 -1.470600000000000032e-02 -4.900600000000000095e-02 -1.940199999999999911e-02 4.344400000000000345e-02 9.963700000000000334e-02 3.249599999999999711e-02 1.620900000000000118e-02 1.296080000000000010e-01 -8.195500000000000007e-02 1.101359999999999978e-01 4.556000000000000327e-02 -5.488999999999999956e-03 -6.110800000000000259e-02 -1.350880000000000136e-01 1.262570000000000081e-01 -1.635899999999999854e-02 6.891999999999999515e-02 -4.054499999999999771e-02 -6.738800000000000345e-02 -9.768799999999999706e-02 8.784000000000000141e-03 -8.930000000000000437e-02 -8.622100000000000597e-02 1.457899999999999995e-02 -3.925800000000000123e-02 8.625999999999999987e-03 2.270700000000000149e-02 -1.550099999999999915e-02 1.733200000000000018e-02 2.079399999999999998e-02 6.519999999999999754e-03 -9.717099999999999349e-02 5.366000000000000110e-03 3.890099999999999808e-02 -1.193980000000000041e-01
1.814899999999999847e-02 1.507099999999999933e-02 6.242000000000000326e-02 3.561799999999999689e-02 2.862900000000000167e-02 -1.231299999999999929e-02 -2.219899999999999998e-02 2.444699999999999998e-02 1.179999999999999973e-02 -6.628000000000000558e-02 -1.048499999999999953e-02 1.557099999999999977e-02 -1.175820000000000060e-01 -1.203930000000000000e-01 4.310499999999999748e-02 1.229930000000000051e-01 -5.796699999999999769e-02 9.622000000000000344e-03 4.321000000000000188e-03 -1.128649999999999931e-01 -3.943499999999999783e-02 2.796200000000000074e-02 1.054500000000000055e-02 6.033499999999999974e-02 -2.301100000000000020e-02 3.214399999999999896e-02 -3.189499999999999974e-02 -1.892100000000000032e-02 -1.393260000000000054e-01 5.960700000000000026e-02 1.296399999999999983e-02 -6.218400000000000316e-02 1.227400000000000019e-01 -1.005069999999999991e-01 -1.562600000000000100e-01 3.539400000000000185e-02 1.150550000000000045e-01 -5.872299999999999742e-02 -9.208900000000000419e-02 -3.050999999999999893e-02 -8.646099999999999619e-02 9.266000000000000625e-02 -1.379700000000000024e-02 -4.849599999999999744e-02 3.282899999999999707e-02 -3.821299999999999697e-02 -2.327800000000000008e-02 -4.063900000000000151e-02 -8.491000000000000283e-03 -1.771000000000000005e-02 6.561200000000000365e-02 7.540999999999999960e-03 -1.514199999999999921e-02 -1.841999999999999887e-02 -9.586899999999999589e-02 -7.682500000000000440e-02 -3.443000000000000227e-02 -4.575400000000000300e-02 4.826699999999999741e-02 5.328700000000000103e-02 -4.215800000000000103e-02 5.478199999999999736e-02 -4.727800000000000058e-02 1.085180000000000033e-01 3.085399999999999948e-02 -1.941100000000000117e-02 5.349299999999999888e-02 1.205620000000000025e-01 -7.404099999999999571e-02 2.887699999999999989e-02 1.573910000000000031e-01 -7.144599999999999562e-02 -1.435400000000000044e-02 1.181880000000000014e-01 -9.041999999999999690e-03 -1.092000000000000089e-03 5.842800000000000077e-02 -9.689399999999999402e-02 4.430499999999999716e-02 1.369199999999999931e-02 8.437000000000000055e-03 2.214999999999999955e-03 -2.848900000000000043e-02 -4.388999999999999672e-03 -7.237200000000000577e-02 -2.181200000000000153e-02 -7.319900000000000018e-02 -3.468000000000000249e-02 1.499200000000000012e-02 8.218899999999999817e-02 1.076900000000000079e-02 -5.897700000000000164e-02 7.798299999999999677e-02 6.399799999999999933e-02 -2.031300000000000119e-02 4.644999999999999823e-03 -7.656300000000000605e-02 9.377699999999999925e-02 1.408300000000000003e-02 2.929500000000000159e-02 9.820999999999999869e-03 4.662899999999999684e-02 6.367399999999999449e-02 -1.238900000000000071e-02 8.458200000000000440e-02 -1.479699999999999939e-02 2.928700000000000053e-02 1.073370000000000019e-01 1.577520000000000033e-01 1.151110000000000050e-01 1.010000000000000064e-01 1.253740000000000132e-01 7.600899999999999324e-02 2.034000000000000044e-02 -1.072980000000000045e-01 1.084700000000000074e-02 1.533000000000000074e-03 -8.073400000000000021e-02 5.168799999999999784e-02 1.163819999999999993e-01 6.590000000000000371e-03 1.273610000000000020e-01 -2.282780000000000087e-01 6.086300000000000043e-02 -3.155600000000000072e-02 -1.182789999999999953e-01 -1.986479999999999912e-01 -2.953499999999999875e-02 -7.322499999999999842e-02 -2.879200000000000162e-02 5.689999999999999919e-02 1.480360000000000009e-01 4.898099999999999676e-02 1.655699999999999880e-02 1.928559999999999997e-01 -1.231399999999999995e-01 1.724680000000000102e-01 6.861799999999999844e-02 -8.278000000000000635e-03 -8.253900000000000126e-02 -2.010409999999999975e-01 1.882759999999999989e-01 -1.607300000000000048e-02 1.025810000000000055e-01 -6.016699999999999826e-02 -9.200600000000000445e-02 -1.455569999999999919e-01 1.266800000000000044e-02 -1.249870000000000009e-01 -1.285070000000000101e-01 2.173900000000000138e-02 -5.057799999999999796e-02 1.281099999999999947e-02 3.369199999999999973e-02 -1.541999999999999968e-02 2.576799999999999924e-02 3.055199999999999930e-02 1.745899999999999883e-02 -1.442390000000000061e-01 8.066999999999999518e-03 6.552099999999999591e-02 -1.773210000000000064e-01
2.384100000000000108e-02 2.051599999999999951e-02 8.206600000000000006e-02 4.710199999999999804e-02 3.895499999999999657e-02 -1.654800000000000021e-02 -2.932399999999999937e-02 3.339999999999999913e-02 1.567400000000000043e-02 -8.760199999999999931e-02 -1.329100000000000073e-02 2.042700000000000071e-02 -1.561740000000000073e-01 -1.580419999999999880e-01 5.471299999999999775e-02 1.631589999999999985e-01 -7.673499999999999766e-02 1.120499999999999968e-02 5.642000000000000313e-03 -1.487279999999999991e-01 -5.267700000000000160e-02 3.648099999999999954e-02 1.463300000000000017e-02 8.015799999999999315e-02 -3.021000000000000074e-02 4.370600000000000179e-02 -4.164700000000000346e-02 -2.515099999999999975e-02 -1.623519999999999963e-01 7.806000000000000438e-02 1.695500000000000132e-02 -6.194299999999999806e-02 1.619740000000000069e-01 -1.332579999999999876e-01 -1.855209999999999915e-01 4.559699999999999864e-02 1.531569999999999876e-01 -5.723799999999999721e-02 -1.234600000000000003e-01 -4.029100000000000042e-02 -9.368799999999999351e-02 1.215790000000000065e-01 -1.802899999999999989e-02 -4.293999999999999900e-02 4.326300000000000284e-02 -5.042599999999999860e-02 -9.407999999999999696e-03 -5.422500000000000236e-02 -1.095899999999999999e-02 -2.680000000000000090e-03 8.608200000000000573e-02 9.768000000000000640e-03 1.283000000000000069e-03 -2.477299999999999988e-02 -1.273610000000000020e-01 -1.227189999999999948e-01 -4.385900000000000215e-02 -6.074100000000000332e-02 4.220800000000000246e-02 7.066799999999999471e-02 -5.579300000000000231e-02 5.031999999999999668e-02 -6.199099999999999749e-02 1.436659999999999882e-01 1.910600000000000145e-02 -2.501099999999999851e-02 7.035800000000000387e-02 1.376030000000000031e-01 -9.783200000000000229e-02 3.774600000000000177e-02 1.863849999999999951e-01 -9.410100000000000409e-02 -1.865500000000000144e-02 1.349360000000000004e-01 -1.215300000000000061e-02 -1.149999999999999981e-03 5.561399999999999677e-02 -1.272240000000000038e-01 5.888700000000000184e-02 -3.233999999999999896e-03 1.130300000000000055e-02 2.876000000000000084e-03 -3.838300000000000045e-02 -5.654000000000000171e-03 -9.595499999999999863e-02 -2.901099999999999859e-02 -9.740000000000000047e-02 -4.621600000000000014e-02 1.992800000000000127e-02 1.088719999999999966e-01 1.414400000000000032e-02 -7.840700000000000447e-02 1.040110000000000062e-01 8.516300000000000259e-02 -2.667399999999999979e-02 6.375999999999999723e-03 -1.007340000000000041e-01 1.237530000000000019e-01 1.961900000000000102e-02 3.893300000000000233e-02 1.270499999999999928e-02 6.184699999999999920e-02 8.514599999999999946e-02 -1.718799999999999842e-02 1.119040000000000035e-01 -1.960599999999999843e-02 3.872400000000000148e-02 1.425009999999999888e-01 2.086979999999999946e-01 1.462700000000000111e-01 1.321489999999999887e-01 1.657490000000000074e-01 9.537500000000000144e-02 2.725500000000000145e-02 -1.416709999999999914e-01 9.664000000000000715e-03 1.955999999999999839e-03 -1.072779999999999984e-01 6.309199999999999531e-02 1.540110000000000090e-01 8.883999999999999536e-03 1.628850000000000020e-01 -3.004470000000000196e-01 8.053799999999999848e-02 -4.646999999999999742e-02 -1.558180000000000121e-01 -2.623130000000000184e-01 -4.379399999999999959e-02 -9.703699999999999826e-02 -3.785000000000000170e-02 7.013700000000000490e-02 1.948380000000000112e-01 6.543499999999999317e-02 1.708900000000000002e-02 2.542650000000000188e-01 -1.639700000000000046e-01 2.333890000000000131e-01 9.176399999999999835e-02 -1.098299999999999971e-02 -1.031490000000000046e-01 -2.650100000000000233e-01 2.488759999999999861e-01 -1.567400000000000043e-02 1.354950000000000043e-01 -7.914400000000000601e-02 -1.159020000000000050e-01 -1.920769999999999977e-01 1.624400000000000149e-02 -1.598819999999999963e-01 -1.695450000000000013e-01 2.878000000000000003e-02 -6.182300000000000295e-02 1.706600000000000131e-02 4.423200000000000048e-02 -1.578600000000000142e-02 3.413000000000000062e-02 3.971800000000000330e-02 2.789300000000000113e-02 -1.896069999999999978e-01 1.076900000000000079e-02 9.116399999999999504e-02 -2.332780000000000131e-01
2.935000000000000109e-02 2.578300000000000036e-02 1.009199999999999958e-01 5.825799999999999729e-02 4.929100000000000148e-02 -2.084300000000000042e-02 -3.625500000000000250e-02 4.238900000000000307e-02 1.954799999999999940e-02 -1.083350000000000007e-01 -1.612299999999999844e-02 2.515299999999999828e-02 -1.940369999999999873e-01 -1.945759999999999990e-01 6.483700000000000574e-02 2.024579999999999991e-01 -9.552399999999999780e-02 1.196200000000000041e-02 6.871000000000000371e-03 -1.838339999999999974e-01 -6.564200000000000590e-02 4.442399999999999821e-02 1.856199999999999864e-02 9.984600000000000419e-02 -3.702099999999999835e-02 5.527100000000000068e-02 -5.051400000000000334e-02 -3.127100000000000019e-02 -1.842040000000000066e-01 9.554500000000000492e-02 2.075400000000000161e-02 -6.210100000000000342e-02 1.998610000000000109e-01 -1.652079999999999937e-01 -2.138559999999999905e-01 5.489900000000000335e-02 1.906750000000000111e-01 -5.600200000000000317e-02 -1.549449999999999994e-01 -4.985799999999999954e-02 -1.008779999999999955e-01 1.489910000000000123e-01 -2.198100000000000054e-02 -3.726000000000000145e-02 5.317299999999999804e-02 -6.225699999999999984e-02 4.398000000000000000e-03 -6.788900000000000490e-02 -1.323399999999999924e-02 1.193899999999999996e-02 1.054429999999999951e-01 1.175499999999999982e-02 1.756500000000000075e-02 -3.141999999999999654e-02 -1.581950000000000023e-01 -1.673149999999999915e-01 -5.223799999999999971e-02 -7.547099999999999642e-02 3.633700000000000124e-02 8.776799999999999879e-02 -6.916400000000000325e-02 4.553399999999999809e-02 -7.580499999999999738e-02 1.779189999999999938e-01 7.688999999999999654e-03 -3.009099999999999969e-02 8.664800000000000280e-02 1.540179999999999882e-01 -1.209900000000000003e-01 4.613799999999999846e-02 2.144840000000000080e-01 -1.160339999999999983e-01 -2.259900000000000103e-02 1.513329999999999953e-01 -1.531500000000000049e-02 -1.033999999999999980e-03 5.275699999999999834e-02 -1.560390000000000110e-01 7.321400000000000130e-02 -1.951599999999999863e-02 1.416899999999999930e-02 3.477000000000000056e-03 -4.834200000000000302e-02 -6.817000000000000143e-03 -1.191490000000000049e-01 -3.592999999999999666e-02 -1.216249999999999970e-01 -5.772299999999999653e-02 2.499399999999999886e-02 1.347569999999999879e-01 1.734399999999999831e-02 -9.738099999999999534e-02 1.297790000000000055e-01 1.060799999999999937e-01 -3.243000000000000049e-02 8.118000000000000216e-03 -1.240150000000000002e-01 1.528100000000000014e-01 2.542300000000000115e-02 4.837000000000000327e-02 1.553200000000000067e-02 7.664200000000000179e-02 1.067250000000000004e-01 -2.231899999999999856e-02 1.382710000000000050e-01 -2.418599999999999917e-02 4.793800000000000144e-02 1.768000000000000127e-01 2.581640000000000046e-01 1.762710000000000110e-01 1.615910000000000124e-01 2.049060000000000048e-01 1.141380000000000033e-01 3.405299999999999994e-02 -1.749269999999999992e-01 8.815999999999999184e-03 2.224999999999999981e-03 -1.333110000000000128e-01 7.402300000000000546e-02 1.904329999999999912e-01 1.119000000000000029e-02 1.972289999999999877e-01 -3.696619999999999906e-01 9.959999999999999409e-02 -6.063899999999999846e-02 -1.918850000000000000e-01 -3.239099999999999757e-01 -5.737899999999999945e-02 -1.202420000000000017e-01 -4.649099999999999761e-02 8.306800000000000295e-02 2.396179999999999977e-01 8.171100000000000585e-02 1.777899999999999966e-02 3.132889999999999842e-01 -2.040430000000000021e-01 2.923870000000000080e-01 1.148470000000000046e-01 -1.352300000000000030e-02 -1.227189999999999948e-01 -3.264110000000000067e-01 3.075700000000000101e-01 -1.514199999999999921e-02 1.674360000000000015e-01 -9.732200000000000573e-02 -1.389140000000000097e-01 -2.368169999999999997e-01 1.954099999999999934e-02 -1.936990000000000101e-01 -2.088959999999999984e-01 3.567900000000000238e-02 -7.291300000000000558e-02 2.143499999999999919e-02 5.418099999999999999e-02 -1.667599999999999985e-02 4.239600000000000313e-02 4.817500000000000254e-02 3.777900000000000008e-02 -2.328550000000000064e-01 1.345299999999999968e-02 1.156729999999999980e-01 -2.867890000000000161e-01
3.467599999999999849e-02 3.087499999999999967e-02 1.188820000000000016e-01 6.902099999999999902e-02 5.963899999999999757e-02 -2.518700000000000105e-02 -4.296300000000000119e-02 5.142800000000000149e-02 2.343200000000000144e-02 -1.283660000000000079e-01 -1.896300000000000069e-02 2.978499999999999898e-02 -2.309180000000000121e-01 -2.298540000000000028e-01 7.347299999999999665e-02 2.406359999999999888e-01 -1.142770000000000036e-01 1.192000000000000004e-02 7.983000000000000512e-03 -2.180380000000000096e-01 -7.812600000000000100e-02 5.168799999999999784e-02 2.229799999999999838e-02 1.194319999999999965e-01 -4.335699999999999971e-02 6.680400000000000227e-02 -5.824700000000000016e-02 -3.724800000000000333e-02 -2.047799999999999898e-01 1.119990000000000013e-01 2.433400000000000146e-02 -6.271500000000000685e-02 2.362019999999999953e-01 -1.961199999999999888e-01 -2.411179999999999990e-01 6.334299999999999653e-02 2.273380000000000123e-01 -5.500800000000000134e-02 -1.863200000000000134e-01 -5.920700000000000268e-02 -1.080220000000000069e-01 1.746749999999999969e-01 -2.559399999999999870e-02 -3.144799999999999679e-02 6.247099999999999875e-02 -7.363500000000000600e-02 1.807900000000000132e-02 -8.158999999999999586e-02 -1.530399999999999990e-02 2.609600000000000114e-02 1.235379999999999950e-01 1.345200000000000042e-02 3.364500000000000129e-02 -3.840500000000000164e-02 -1.881180000000000074e-01 -2.104379999999999862e-01 -5.964900000000000063e-02 -8.986500000000000044e-02 3.075200000000000156e-02 1.044839999999999935e-01 -8.224499999999999866e-02 4.039800000000000335e-02 -8.856600000000000583e-02 2.110619999999999996e-01 -3.245000000000000055e-03 -3.467800000000000049e-02 1.023249999999999993e-01 1.697299999999999920e-01 -1.434850000000000014e-01 5.400200000000000139e-02 2.415450000000000097e-01 -1.372309999999999919e-01 -2.612799999999999845e-02 1.673109999999999875e-01 -1.858100000000000029e-02 -7.450000000000000025e-04 4.985499999999999654e-02 -1.831280000000000130e-01 8.719799999999999773e-02 -3.500600000000000239e-02 1.696200000000000138e-02 3.995000000000000287e-03 -5.836299999999999821e-02 -7.881000000000000852e-03 -1.418949999999999934e-01 -4.251599999999999824e-02 -1.459360000000000102e-01 -6.920099999999999862e-02 3.020199999999999968e-02 1.595949999999999869e-01 2.033300000000000038e-02 -1.157730000000000009e-01 1.551279999999999881e-01 1.266519999999999868e-01 -3.743599999999999706e-02 9.837999999999999523e-03 -1.462960000000000094e-01 1.807249999999999968e-01 3.139700000000000130e-02 5.753300000000000081e-02 1.831199999999999842e-02 9.087800000000000045e-02 1.283970000000000111e-01 -2.784000000000000016e-02 1.634079999999999977e-01 -2.843499999999999847e-02 5.682600000000000151e-02 2.099229999999999985e-01 3.057909999999999795e-01 2.049930000000000085e-01 1.891190000000000093e-01 2.425579999999999958e-01 1.321259999999999935e-01 4.065400000000000263e-02 -2.068290000000000128e-01 8.302999999999999617e-03 2.295999999999999864e-03 -1.586319999999999952e-01 8.433400000000000618e-02 2.253169999999999895e-01 1.348000000000000066e-02 2.301729999999999887e-01 -4.353540000000000187e-01 1.178880000000000067e-01 -7.394299999999999484e-02 -2.261710000000000109e-01 -3.830169999999999964e-01 -7.020400000000000251e-02 -1.426360000000000128e-01 -5.464100000000000207e-02 9.562299999999999967e-02 2.819840000000000124e-01 9.765799999999999481e-02 1.858299999999999882e-02 3.694200000000000261e-01 -2.429679999999999895e-01 3.489749999999999797e-01 1.376799999999999968e-01 -1.582300000000000026e-02 -1.410619999999999929e-01 -3.846879999999999744e-01 3.638910000000000200e-01 -1.446000000000000063e-02 1.981799999999999951e-01 -1.145639999999999992e-01 -1.609009999999999885e-01 -2.793749999999999845e-01 2.259699999999999903e-02 -2.261739999999999862e-01 -2.461490000000000067e-01 4.241500000000000131e-02 -8.376200000000000312e-02 2.594199999999999978e-02 6.341099999999999515e-02 -1.815599999999999853e-02 5.053699999999999859e-02 5.580999999999999850e-02 4.709100000000000091e-02 -2.736060000000000159e-01 1.610100000000000073e-02 1.389330000000000009e-01 -3.374059999999999837e-01