-1.898709972754247972e-03 0.000000000000000000e+00 0.000000000000000000e+00 0.000000000000000000e+00 6.791956816823767618e-01 -3.209036849380137113e+00 0.000000000000000000e+00 -3.209036849380137113e+00 -3.262887880797871176e-01
-2.853489844767812672e-02 1.513543092566957925e-02 6.213302348936759062e-02 1.513543092566957925e-02 5.599747783455314432e-01 -3.139905723419761152e+00 6.213302348936759062e-02 -3.139905723419761152e+00 -5.187818134128249214e-01
-4.321825557031098303e-02 3.003578347376005542e-02 1.238320561278199172e-01 3.003578347376005542e-02 4.541895084349376055e-01 -3.074770929878229087e+00 1.238320561278199172e-01 -3.074770929878229087e+00 -6.934088820498514050e-01
-4.636468923944658815e-02 4.457447697942115705e-02 1.850428490589925701e-01 4.457447697942115705e-02 3.622196139451461239e-01 -3.013668634659785184e+00 1.850428490589925701e-01 -3.013668634659785184e+00 -8.507486484587534203e-01
-3.886026410903694467e-02 5.876959439477434655e-02 2.456388216180352690e-01 5.876959439477434655e-02 2.835768551688773176e-01 -2.956707335477158249e+00 2.456388216180352690e-01 -2.956707335477158249e+00 -9.914882648201468474e-01
-2.197078682758486778e-02 7.249455505496933683e-02 3.055476419964622270e-01 7.249455505496933683e-02 2.175921628776368300e-01 -2.903977447090954289e+00 3.055476419964622270e-01 -2.903977447090954289e+00 -1.116857371878291705e+00
2.712442818220354556e-03 8.573127600788467417e-02 3.646788954336658839e-01 8.573127600788467417e-02 1.632348088005009246e-01 -2.855623633118146376e+00 3.646788954336658839e-01 -2.855623633118146376e+00 -1.228483435324119855e+00
3.345346142471770229e-02 9.851592315776326603e-02 4.230144989775250219e-01 9.851592315776326603e-02 1.192028203847238510e-01 -2.811790557175705363e+00 4.230144989775250219e-01 -2.811790557175705363e+00 -1.328554492364329542e+00
6.819081245005971514e-02 1.107942476482407373e-01 4.804821208195536042e-01 1.107942476482407373e-01 8.392298079573776159e-02 -2.772604799928481523e+00 4.804821208195536042e-01 -2.772604799928481523e+00 -1.419511741535318894e+00
1.049896200172491800e-01 1.226204983356814771e-01 5.371360098161160890e-01 1.226204983356814771e-01 5.582207319897489889e-02 -2.738192942041326461e+00 5.371360098161160890e-01 -2.738192942041326461e+00 -1.504067625655308049e+00
-1.239817924380143843e+01 -4.041030720250960995e-01 -2.198325857753405277e+00 -4.041030720250960995e-01 -1.389263282779237585e+01 1.284931250326114593e+01 -2.198325857753405277e+00 1.284931250326114593e+01 -9.019265195182645911e+00
-1.222634170862613168e+01 -5.094477513432629223e-01 -2.125988687865703497e+00 -5.094477513432629223e-01 -1.380270758077496573e+01 1.275837644721329411e+01 -2.125988687865703497e+00 1.275837644721329411e+01 -8.690366315022508559e+00
-1.203050205356430702e+01 -6.124951374104228297e-01 -2.051152062920906793e+00 -6.124951374104228297e-01 -1.369467966293962391e+01 1.263623395964376428e+01 -2.051152062920906793e+00 1.263623395964376428e+01 -8.322284801173198687e+00
-1.181139541245628344e+01 -7.127673932303666415e-01 -1.973411659306837374e+00 -7.127673932303666415e-01 -1.356937609985670967e+01 1.248288504055255999e+01 -1.973411659306837374e+00 1.248288504055255999e+01 -7.917391460269755932e+00
-1.157078610651883821e+01 -8.096764117308365982e-01 -1.892510180179382884e+00 -8.096764117308365982e-01 -1.342826715920686809e+01 1.229855023009177550e+01 -1.892510180179382884e+00 1.229855023009177550e+01 -7.478976016247622205e+00
-1.131062224042882214e+01 -9.027075992236069935e-01 -1.808098436964389988e+00 -9.027075992236069935e-01 -1.327306202716885153e+01 1.208350520345153534e+01 -1.808098436964389988e+00 1.208350520345153534e+01 -7.010456841464296929e+00
-1.103318272909123543e+01 -9.913463620204523430e-01 -1.719735349357665255e+00 -9.913463620204523430e-01 -1.310565367338148590e+01 1.183782347401586499e+01 -1.719735349357665255e+00 1.183782347401586499e+01 -6.515380956699332593e+00
-1.074133459448333561e+01 -1.075151619817179771e+00 -1.627090107131063723e+00 -1.075151619817179771e+00 -1.292819236432771390e+01 1.156176233862888303e+01 -1.627090107131063723e+00 1.156176233862888303e+01 -5.997515922884380402e+00
-1.043776107512229601e+01 -1.153755805693627678e+00 -1.529592981558336229e+00 -1.153755805693627678e+00 -1.274284674483648772e+01 1.125528504059857049e+01 -1.529592981558336229e+00 1.125528504059857049e+01 -5.462301730437825853e+00
-1.012532919298537415e+01 -1.226754596037618938e+00 -1.426784513989280967e+00 -1.226754596037618938e+00 -1.255182221642877138e+01 1.091826293150287341e+01 -1.426784513989280967e+00 1.091826293150287341e+01 -4.912752428104988134e+00
2.117358704204956865e+01 -1.202962857160492582e+01 -2.059658285126934274e+01 -1.202962857160492582e+01 1.981744823960675461e+01 1.715948847024337809e+01 -2.059658285126934274e+01 1.715948847024337809e+01 5.118815622972670809e+01
2.114116476813319068e+01 -1.201522452026004117e+01 -2.040087372489639606e+01 -1.201522452026004117e+01 1.992778572914144419e+01 1.704988785057042477e+01 -2.040087372489639606e+01 1.704988785057042477e+01 5.125766762001712351e+01
2.102587972381255810e+01 -1.197631077375218034e+01 -2.014239030411176046e+01 -1.197631077375218034e+01 1.997047154756057452e+01 1.686716166938044381e+01 -2.014239030411176046e+01 1.686716166938044381e+01 5.111627632916642483e+01
2.082622308032317093e+01 -1.191404527043549777e+01 -1.982313266425443388e+01 -1.191404527043549777e+01 1.994141782158355980e+01 1.661229241982241689e+01 -1.982313266425443388e+01 1.661229241982241689e+01 5.075728035033691299e+01
2.054487914930420800e+01 -1.182962103770518780e+01 -1.944550440463531160e+01 -1.182962103770518780e+01 1.984036138340263733e+01 1.628649067381205384e+01 -1.944550440463531160e+01 1.628649067381205384e+01 5.018510090269900559e+01
2.018395327321776733e+01 -1.172479252761299939e+01 -1.901254072730393219e+01 -1.172479252761299939e+01 1.966619692822520804e+01 1.589170387312680077e+01 -1.901254072730393219e+01 1.589170387312680077e+01 4.940287845542533773e+01
1.974570869521061312e+01 -1.160157736001845130e+01 -1.852782071444586620e+01 -1.160157736001845130e+01 1.941766125057400671e+01 1.543045842872117568e+01 -1.852782071444586620e+01 1.543045842872117568e+01 4.841406927905786262e+01
1.923284727144244144e+01 -1.146236158971192154e+01 -1.799536206125962678e+01 -1.146236158971192154e+01 1.909419292579247340e+01 1.490591235428833627e+01 -1.799536206125962678e+01 1.490591235428833627e+01 4.722405954139544804e+01
1.864752697793691283e+01 -1.130991725093518419e+01 -1.741988424376442168e+01 -1.130991725093518419e+01 1.869454629292386727e+01 1.432218861214989758e+01 -1.741988424376442168e+01 1.432218861214989758e+01 4.583972669448098003e+01
1.799639718797015675e+01 -1.114692865532741450e+01 -1.680593129277429654e+01 -1.114692865532741450e+01 1.822154601977150179e+01 1.368332244202489179e+01 -1.680593129277429654e+01 1.368332244202489179e+01 4.426957983076545133e+01
-2.749887792275628229e+01 5.656862423784352778e+00 -8.361506158833678981e+00 5.656862423784352778e+00 1.605308745963590056e+01 -8.744479960913992045e+00 -8.361506158833678981e+00 -8.744479960913992045e+00 -1.541453528215360969e+01
-2.747001432407240529e+01 5.657375228837111969e+00 -8.377183341875175770e+00 5.657375228837111969e+00 1.601259417493409032e+01 -8.709096412273602539e+00 -8.377183341875175770e+00 -8.709096412273602539e+00 -1.541638504323677772e+01
-2.739111560381216037e+01 5.654646373377786084e+00 -8.383208801245096708e+00 5.654646373377786084e+00 1.597655130551158109e+01 -8.666698423090116066e+00 -8.383208801245096708e+00 -8.666698423090116066e+00 -1.535633190866543529e+01
-2.726216344750937992e+01 5.648657542940203946e+00 -8.379417706747913641e+00 5.648657542940203946e+00 1.594545334195496977e+01 -8.617249364431186720e+00 -8.379417706747913641e+00 -8.617249364431186720e+00 -1.523598755146254113e+01
-2.708423840866808519e+01 5.639317165193517667e+00 -8.365608599255752509e+00 5.639317165193517667e+00 1.591898893833935880e+01 -8.560657663965969277e+00 -8.365608599255752509e+00 -8.560657663965969277e+00 -1.505626769493659012e+01
-2.685876901564954622e+01 5.626588611205386670e+00 -8.341506761776066980e+00 5.626588611205386670e+00 1.589657203174730959e+01 -8.496758491498932031e+00 -8.341506761776066980e+00 -8.496758491498932031e+00 -1.481867412531352812e+01
-2.658753177167223924e+01 5.610380308644959513e+00 -8.306727590519288995e+00 5.610380308644959513e+00 1.587739678566734902e+01 -8.425368702368375651e+00 -8.306727590519288995e+00 -8.425368702368375651e+00 -1.452498334581183492e+01
-2.627261452587955048e+01 5.590637314113727996e+00 -8.260959739560524540e+00 5.590637314113727996e+00 1.586056579125714272e+01 -8.346158636183242052e+00 -8.260959739560524540e+00 -8.346158636183242052e+00 -1.417717331877786968e+01
-2.591621501421186480e+01 5.567414571010202096e+00 -8.203617145982338599e+00 5.567414571010202096e+00 1.584498018054649293e+01 -8.258871890417147199e+00 -8.203617145982338599e+00 -8.258871890417147199e+00 -1.377784469840777071e+01
-2.552062254494044069e+01 5.540602192537360970e+00 -8.134150375799627852e+00 5.540602192537360970e+00 1.582959602896371543e+01 -8.163068917882016606e+00 -8.134150375799627852e+00 -8.163068917882016606e+00 -1.332936005083746345e+01
1.344398885515240494e+01 1.256230673675135989e+01 4.346498211117456600e-01 1.256230673675135989e+01 2.682638556586991907e+00 1.549156294387459987e+01 4.346498211117456600e-01 1.549156294387459987e+01 4.227793674405010194e+01
1.362853400657445491e+01 1.259103906293921504e+01 3.105048228833570678e-01 1.259103906293921504e+01 2.320255428339062842e+00 1.528924466931838744e+01 3.105048228833570678e-01 1.528924466931838744e+01 4.205252586305931572e+01
1.374091921061697974e+01 1.259534446413888098e+01 1.799373046835657797e-01 1.259534446413888098e+01 1.909747877590734166e+00 1.503504808939760551e+01 1.799373046835657797e-01 1.503504808939760551e+01 4.166116133582686132e+01
1.377940095770325080e+01 1.257531189492060086e+01 4.316075748095022507e-02 1.257531189492060086e+01 1.455367932799526809e+00 1.473044984997825324e+01 4.316075748095022507e-02 1.473044984997825324e+01 4.110297140756436107e+01
1.374113270158555800e+01 1.253163520093225358e+01 -9.961132775591109711e-02 1.253163520093225358e+01 9.603535403222147604e-01 1.437722904246515299e+01 -9.961132775591109711e-02 1.437722904246515299e+01 4.038003761521547119e+01
1.362387278709382699e+01 1.246532846427458452e+01 -2.478452236055719571e-01 1.246532846427458452e+01 4.280493919998608621e-01 1.397725371283336138e+01 -2.478452236055719571e-01 1.397725371283336138e+01 3.949447707755191317e+01
1.342571758642489499e+01 1.237772600350121266e+01 -4.008648753342005100e-01 1.237772600350121266e+01 -1.386623840917254880e-01 1.353262318894057259e+01 -4.008648753342005100e-01 1.353262318894057259e+01 3.844922529539165623e+01
1.314410520795582649e+01 1.227064249184505584e+01 -5.578341099815310455e-01 1.227064249184505584e+01 -7.377002510089040177e-01 1.304561470778495291e+01 -5.578341099815310455e-01 1.304561470778495291e+01 3.724773370606004619e+01
1.278122393411454816e+01 1.214575027522664108e+01 -7.177210545327675772e-01 1.214575027522664108e+01 -1.364064961904128515e+00 1.251822085173990473e+01 -7.177210545327675772e-01 1.251822085173990473e+01 3.589445003806912382e+01
1.233650445565151799e+01 1.200534438155819217e+01 -8.793870904888246853e-01 1.200534438155819217e+01 -2.015674979833758762e+00 1.195295013968622300e+01 -8.793870904888246853e-01 1.195295013968622300e+01 3.439602809327294608e+01
-1.958588405496401563e+01 4.985485593144037608e+00 1.319745128644607490e+01 4.985485593144037608e+00 2.752603155882525954e+01 2.303654634250113187e+00 1.319745128644607490e+01 2.303654634250113187e+00 -6.302962857453590750e+00
-1.935683699114048295e+01 5.050953447154395981e+00 1.323832348259618819e+01 5.050953447154395981e+00 2.773017551906529121e+01 2.326080087005042429e+00 1.323832348259618819e+01 2.326080087005042429e+00 -5.738836125369308760e+00
-1.908854538499582887e+01 5.113563864442755680e+00 1.326085744560638169e+01 5.113563864442755680e+00 2.792198548029011462e+01 2.332717297618799979e+00 1.326085744560638169e+01 2.332717297618799979e+00 -5.153043512316958008e+00
-1.878238369976341104e+01 5.172629613392432546e+00 1.326451062420033189e+01 5.172629613392432546e+00 2.810023165960671321e+01 2.324217327622979834e+00 1.326451062420033189e+01 2.324217327622979834e+00 -4.551082871230004656e+00
-1.844052214054854844e+01 5.227445377344198896e+00 1.324865004188898254e+01 5.227445377344198896e+00 2.826315980788829307e+01 2.301195068464088500e+00 1.324865004188898254e+01 2.301195068464088500e+00 -3.936191424723877841e+00
-1.806491389194602704e+01 5.277378179809004699e+00 1.321255229697056421e+01 5.277378179809004699e+00 2.840935929181639708e+01 2.264428176971531315e+00 1.321255229697056421e+01 2.264428176971531315e+00 -3.312727668051755003e+00
-1.765807277486949900e+01 5.321722704127624048e+00 1.315549398774330392e+01 5.321722704127624048e+00 2.853722054260458307e+01 2.214567714676901833e+00 1.315549398774330392e+01 2.214567714676901833e+00 -2.684019249041785127e+00
-1.722256686536026393e+01 5.359918313981180127e+00 1.307662511720762133e+01 5.359918313981180127e+00 2.864513399146640893e+01 2.152373253367061867e+00 1.307662511720762133e+01 2.152373253367061867e+00 -2.053755516373005907e+00
-1.676121743005522902e+01 5.391350117923169982e+00 1.297509568836393257e+01 5.391350117923169982e+00 2.873161666491323984e+01 2.078459684488516590e+00 1.297509568836393257e+01 2.078459684488516590e+00 -1.425426883256466271e+00
-1.627680956550620905e+01 5.415529819804896228e+00 1.284996527899993524e+01 5.415529819804896228e+00 2.879525792962662578e+01 1.993387644360139710e+00 1.284996527899993524e+01 1.993387644360139710e+00 -8.027588684562920740e-01
2.330890282115576539e+01 -5.187383738558079216e+00 1.950330963793688355e+01 -5.187383738558079216e+00 3.110171411181526224e+01 -1.602712797616721474e+01 1.950330963793688355e+01 -1.602712797616721474e+01 -1.617245970520461595e+00
2.320860644380694993e+01 -5.005688170647424329e+00 1.952508555504747889e+01 -5.005688170647424329e+00 3.098213200739039763e+01 -1.579635270537711733e+01 1.952508555504747889e+01 -1.579635270537711733e+01 -1.921508338712993424e+00
2.312252710885394436e+01 -4.819506728490141612e+00 1.951245799565244354e+01 -4.819506728490141612e+00 3.087213978373685919e+01 -1.554198244248664551e+01 1.951245799565244354e+01 -1.554198244248664551e+01 -2.211465359898562522e+00
2.305078844275235994e+01 -4.629934389264541927e+00 1.946570953450747155e+01 -4.629934389264541927e+00 3.077217896391043084e+01 -1.526518280836303632e+01 1.946570953450747155e+01 -1.526518280836303632e+01 -2.484962401565009138e+00
2.299278997414635128e+01 -4.438278061215704895e+00 1.938505210267932455e+01 -4.438278061215704895e+00 3.068210826053325491e+01 -1.496736667678475285e+01 1.938505210267932455e+01 -1.496736667678475285e+01 -2.741946480945641529e+00
2.294756035231323210e+01 -4.245809330744251042e+00 1.927069763123477841e+01 -4.245809330744251042e+00 3.060141550686065415e+01 -1.464987627784133828e+01 1.927069763123477841e+01 -1.464987627784133828e+01 -2.982753155562844150e+00
2.291381032993013633e+01 -4.053711479639645177e+00 1.912266378109606180e+01 -4.053711479639645177e+00 3.052921765678106780e+01 -1.431398319793341045e+01 1.912266378109606180e+01 -1.431398319793341045e+01 -3.208565707206082251e+00
2.289010937229637932e+01 -3.863132467846888574e+00 1.894089756949648518e+01 -3.863132467846888574e+00 3.046449037680511651e+01 -1.396090604069489771e+01 1.894089756949648518e+01 -1.396090604069489771e+01 -3.421026601642822129e+00
2.287509758840018392e+01 -3.675149611622062107e+00 1.872529303090265884e+01 -3.675149611622062107e+00 3.040626231621011399e+01 -1.359172212238187960e+01 1.872529303090265884e+01 -1.359172212238187960e+01 -3.621654678184914378e+00
2.286665566757385193e+01 -3.490769583532322251e+00 1.847551460779219923e+01 -3.490769583532322251e+00 3.035283802646189244e+01 -1.320731448910589734e+01 1.847551460779219923e+01 -1.320731448910589734e+01 -3.813187379778135266e+00
-1.583023805699279229e+01 -1.147701256003821157e+01 -1.071857169666558462e+01 -1.147701256003821157e+01 1.386621636655054601e+01 1.214183115295501914e+01 -1.071857169666558462e+01 1.214183115295501914e+01 -2.575025288913043653e+01
-1.568862638078332772e+01 -1.156148268268947277e+01 -1.084270112646993667e+01 -1.156148268268947277e+01 1.395673311779124504e+01 1.216733294603917948e+01 -1.084270112646993667e+01 1.216733294603917948e+01 -2.542274848625591233e+01
-1.549201047894606198e+01 -1.163846302370426677e+01 -1.095247209684437806e+01 -1.163846302370426677e+01 1.407324489163850778e+01 1.216525042138904134e+01 -1.095247209684437806e+01 1.216525042138904134e+01 -2.499908259427321155e+01
-1.524258248269166849e+01 -1.170709499835841605e+01 -1.104658759682259905e+01 -1.170709499835841605e+01 1.421511231648921836e+01 1.213638736044851463e+01 -1.104658759682259905e+01 1.213638736044851463e+01 -2.448237900015753254e+01
-1.494279027187206665e+01 -1.176644695088738324e+01 -1.112376888319837143e+01 -1.176644695088738324e+01 1.438122105897795322e+01 1.208121872497991411e+01 -1.112376888319837143e+01 1.208121872497991411e+01 -2.387795362209476124e+01
-1.459541054602077814e+01 -1.181558722552663276e+01 -1.118259107068475977e+01 -1.181558722552663276e+01 1.457027410813839730e+01 1.200027428002581864e+01 -1.118259107068475977e+01 1.200027428002581864e+01 -2.318966095746366562e+01
-1.420303732707042776e+01 -1.185371204083225294e+01 -1.122177541607553763e+01 -1.185371204083225294e+01 1.478137634372619047e+01 1.189412032614898607e+01 -1.122177541607553763e+01 1.189412032614898607e+01 -2.242204967852639186e+01
-1.377000007416209648e+01 -1.187970706343881311e+01 -1.123973262424296671e+01 -1.187970706343881311e+01 1.501144051428630455e+01 1.176268379230906191e+01 -1.123973262424296671e+01 1.176268379230906191e+01 -2.157996074170650758e+01
-1.329927643219028077e+01 -1.189278677966249376e+01 -1.123498300661984040e+01 -1.189278677966249376e+01 1.525913307333224900e+01 1.160623869490737547e+01 -1.123498300661984040e+01 1.160623869490737547e+01 -2.066947731111363140e+01
-1.279408152693063450e+01 -1.189223874685982807e+01 -1.120608341015913823e+01 -1.189223874685982807e+01 1.552257244157485694e+01 1.142465715962330819e+01 -1.120608341015913823e+01 1.142465715962330819e+01 -1.969558648525204347e+01
2.026361034755586488e+01 1.287089920229979256e+01 -2.733633767279956217e+00 1.287089920229979256e+01 3.989279374570887882e+00 1.355440594669532928e+01 -2.733633767279956217e+00 1.355440594669532928e+01 5.680101547223007863e+00
2.024630909425910019e+01 1.302800459122392773e+01 -2.728182442635830984e+00 1.302800459122392773e+01 4.125026294807384808e+00 1.357494224838746177e+01 -2.728182442635830984e+00 1.357494224838746177e+01 5.814222006664044429e+00
2.021921332979846753e+01 1.316737977015799110e+01 -2.725537209693763341e+00 1.316737977015799110e+01 4.268583801501201869e+00 1.355848103528176019e+01 -2.725537209693763341e+00 1.355848103528176019e+01 5.926286942790816248e+00
2.018142939439623262e+01 1.328807745973758969e+01 -2.726377249884825993e+00 1.328807745973758969e+01 4.418504165812424667e+00 1.350496868779155868e+01 -2.726377249884825993e+00 1.350496868779155868e+01 6.015134597892282109e+00
2.013184914992802277e+01 1.338907888781612243e+01 -2.731077900315661555e+00 1.338907888781612243e+01 4.572731970252283951e+00 1.341431583993908916e+01 -2.731077900315661555e+00 1.341431583993908916e+01 6.077780148310836239e+00
2.006914997992280902e+01 1.346950826781141330e+01 -2.739960878506252584e+00 1.346950826781141330e+01 4.728925826203139948e+00 1.328646887213768402e+01 -2.739960878506252584e+00 1.328646887213768402e+01 6.111113658019996286e+00
1.999206288749620697e+01 1.352859705231461973e+01 -2.753026184456599079e+00 1.352859705231461973e+01 4.884726471851796425e+00 1.312139203799623743e+01 -2.753026184456599079e+00 1.312139203799623743e+01 6.112293288926593071e+00
1.989897928504832336e+01 1.356571967948133484e+01 -2.770130832602264004e+00 1.356571967948133484e+01 5.037470801060631054e+00 1.291903171792808536e+01 -2.770130832602264004e+00 1.291903171792808536e+01 6.077708655528617498e+00
1.978823696539258492e+01 1.358033995344492340e+01 -2.790935232227712781e+00 1.358033995344492340e+01 5.184352722127587576e+00 1.267919130678212625e+01 -2.790935232227712781e+00 1.267919130678212625e+01 6.003981723866267828e+00
1.965808435536465026e+01 1.357206466390318589e+01 -2.814921060661863983e+00 1.357206466390318589e+01 5.322315918612843255e+00 1.240162057982059984e+01 -2.814921060661863983e+00 1.240162057982059984e+01 5.886822927006460482e+00
4.548740986284258980e+01 1.050837540900654865e+01 6.740347798308611083e+00 1.050837540900654865e+01 4.370046071192491866e+01 -8.966957855264595878e+00 6.740347798308611083e+00 -8.966957855264595878e+00 5.861265863577451540e+01
4.546895644133817882e+01 1.047203399116916600e+01 6.877968858218966197e+00 1.047203399116916600e+01 4.375799700664341430e+01 -8.996599841525167562e+00 6.877968858218966197e+00 -8.996599841525167562e+00 5.866303287832138125e+01
4.535599134572201763e+01 1.041980926624302484e+01 6.994275102575477909e+00 1.041980926624302484e+01 4.373594542495708026e+01 -9.032924125266445614e+00 6.994275102575477909e+00 -9.032924125266445614e+00 5.848936168020742343e+01
4.514666409361484511e+01 1.035231806168788538e+01 7.089146592705412253e+00 1.035231806168788538e+01 4.363123896366322896e+01 -9.075622292758554366e+00 7.089146592705412253e+00 -9.075622292758554366e+00 5.808825249040395988e+01
4.484234541270501495e+01 1.027019433905960533e+01 7.162309183071101870e+00 1.027019433905960533e+01 4.344386048866576999e+01 -9.124231723406671435e+00 7.162309183071101870e+00 -9.124231723406671435e+00 5.746258383705652761e+01
4.444438889658475489e+01 1.017434620545172130e+01 7.213814275960857891e+00 1.017434620545172130e+01 4.317360439081142687e+01 -9.178084187462728138e+00 7.213814275960857891e+00 -9.178084187462728138e+00 5.661487443229248839e+01
4.395335997042552378e+01 1.006599018168764204e+01 7.243798944143517993e+00 1.006599018168764204e+01 4.281925414927681572e+01 -9.236271577833191415e+00 7.243798944143517993e+00 -9.236271577833191415e+00 5.554724890402876269e+01
4.337282252621702128e+01 9.946394190879091823e+00 7.252708674117794629e+00 9.946394190879091823e+00 4.238207768717364132e+01 -9.297817251040113362e+00 7.252708674117794629e+00 -9.297817251040113362e+00 5.426364809436936554e+01
4.270481552139568038e+01 9.817203106252090805e+00 7.241023220574608565e+00 9.817203106252090805e+00 4.186200646811748527e+01 -9.361504686260081698e+00 7.241023220574608565e+00 -9.361504686260081698e+00 5.276926363443392631e+01
4.195295425023952163e+01 9.680164605609283157e+00 7.209256606397094203e+00 9.680164605609283157e+00 4.126030841522008075e+01 -9.426203033150208910e+00 7.209256606397094203e+00 -9.426203033150208910e+00 5.107016099424339473e+01
-2.768199374033407167e+01 -3.272992366584201562e+00 -2.153177349276221175e+00 -3.272992366584201562e+00 -4.155136835136821638e+00 -2.918279897736475448e+00 -2.153177349276221175e+00 -2.918279897736475448e+00 -3.801613741151894743e+01
-2.763200282813203046e+01 -3.294196690310049469e+00 -2.208966463934411095e+00 -3.294196690310049469e+00 -4.088457506891123749e+00 -2.848069612866841460e+00 -2.208966463934411095e+00 -2.848069612866841460e+00 -3.784852847577537460e+01
-2.752378829959950579e+01 -3.312427576878898439e+00 -2.261633469577752464e+00 -3.312427576878898439e+00 -3.977827060668536863e+00 -2.777747824103819596e+00 -2.261633469577752464e+00 -2.777747824103819596e+00 -3.754007153870121272e+01
-2.735735015473649767e+01 -3.327685026290748471e+00 -2.311289870099632271e+00 -3.327685026290748471e+00 -3.823617176113686345e+00 -2.707574707198647790e+00 -2.311289870099632271e+00 -2.707574707198647790e+00 -3.709282942232412950e+01
-2.713343175283225861e+01 -3.339931870581137385e+00 -2.357991417446744897e+00 -3.339931870581137385e+00 -3.626924308178215650e+00 -2.637810437902563532e+00 -2.357991417446744897e+00 -2.637810437902563532e+00 -3.650910654044080417e+01
-2.685292512503388096e+01 -3.349149525767833424e+00 -2.401756695601321212e+00 -3.349149525767833424e+00 -3.389086503582773968e+00 -2.568696607984572555e+00 -2.401756695601321212e+00 -2.568696607984572555e+00 -3.579206217003054036e+01
-2.651714973407979059e+01 -3.355337991850837476e+00 -2.442641456510054709e+00 -3.355337991850837476e+00 -3.111887824621560661e+00 -2.500604897089299783e+00 -2.442641456510054709e+00 -2.500604897089299783e+00 -3.494507859585942811e+01
-2.612649584359684241e+01 -3.358553020776842146e+00 -2.480738620084101953e+00 -3.358553020776842146e+00 -2.796276054388368237e+00 -2.433721145039057898e+00 -2.480738620084101953e+00 -2.433721145039057898e+00 -3.397304340525428756e+01
-2.568310061154162582e+01 -3.358738860599154830e+00 -2.516011018359000317e+00 -3.358738860599154830e+00 -2.445261798004659592e+00 -2.368398447496240511e+00 -2.516011018359000317e+00 -2.368398447496240511e+00 -3.287935746696343386e+01
-2.518913836383520177e+01 -3.355988431228930757e+00 -2.548607323192599416e+00 -3.355988431228930757e+00 -2.061391061036113914e+00 -2.304878396229853799e+00 -2.548607323192599416e+00 -2.304878396229853799e+00 -3.167080393450127218e+01
-1.256656712356767081e+01 7.795250428625215555e+00 -6.843428550182117931e+00 7.795250428625215555e+00 -2.139189794107155151e+01 1.121944459804836391e+01 -6.843428550182117931e+00 1.121944459804836391e+01 2.362848810156950918e+01
-1.254310421187955171e+01 7.756432304061640082e+00 -6.886273071447241101e+00 7.756432304061640082e+00 -2.140416014920808863e+01 1.117652686957048580e+01 -6.886273071447241101e+00 1.117652686957048580e+01 2.364538066591282828e+01
-1.254905229791593158e+01 7.707090642664470970e+00 -6.917459344081060557e+00 7.707090642664470970e+00 -2.143155794858181551e+01 1.109385762456639846e+01 -6.917459344081060557e+00 1.109385762456639846e+01 2.358201982327299007e+01
-1.258554609347452136e+01 7.647939214758072701e+00 -6.937115480705897674e+00 7.647939214758072701e+00 -2.147350568149068550e+01 1.097129044861059732e+01 -6.937115480705897674e+00 1.097129044861059732e+01 2.343677671316619282e+01
-1.265384842297535073e+01 7.579636885257242440e+00 -6.945552611975962520e+00 7.579636885257242440e+00 -2.153002164973788979e+01 1.080873383268713361e+01 -6.945552611975962520e+00 1.080873383268713361e+01 2.320930360133183612e+01
-1.275535022346077341e+01 7.502897424486349109e+00 -6.942898850513577358e+00 7.502897424486349109e+00 -2.160152679479676863e+01 1.060627928581195256e+01 -6.942898850513577358e+00 1.060627928581195256e+01 2.289928935711571967e+01
-1.289160714820184417e+01 7.418507809982509471e+00 -6.929190799925120992e+00 7.418507809982509471e+00 -2.168891790502357964e+01 1.036423793863926512e+01 -6.929190799925120992e+00 1.036423793863926512e+01 2.250625813363492611e+01
-1.306406503965048316e+01 7.327273321086038571e+00 -6.904355252997835812e+00 7.327273321086038571e+00 -2.179307346697138925e+01 1.008288431821690345e+01 -6.904355252997835812e+00 1.008288431821690345e+01 2.202982559302249399e+01
-1.327402332583309530e+01 7.230017538940430200e+00 -6.868209191699834903e+00 7.230017538940430200e+00 -2.191540271948573348e+01 9.762584460608646708e+00 -6.868209191699834903e+00 9.762584460608646708e+00 2.146946098298595018e+01
-1.352278143477609618e+01 7.127527441082807336e+00 -6.820532994392852544e+00 7.127527441082807336e+00 -2.205729659960897493e+01 9.403887419910157419e+00 -6.820532994392852544e+00 9.403887419910157419e+00 2.082510939811571404e+01
-1.048676696257471086e+01 -3.572715123344644361e+00 7.456262311217226824e+00 -3.572715123344644361e+00 2.158357244549263498e+01 -7.397594378704425822e+00 7.456262311217226824e+00 -7.397594378704425822e+00 2.271852699514055551e+00
-1.038573574382414222e+01 -3.521335691650152810e+00 7.640364442998189176e+00 -3.521335691650152810e+00 2.160261252911182339e+01 -7.567317468130258185e+00 7.640364442998189176e+00 -7.567317468130258185e+00 2.418342567812886923e+00
-1.026006759267785817e+01 -3.466608948468734575e+00 7.813578814297483355e+00 -3.466608948468734575e+00 2.161126874860220681e+01 -7.730561890162038985e+00 7.813578814297483355e+00 -7.730561890162038985e+00 2.568485684670029912e+00
-1.011078829813992286e+01 -3.408750849380191017e+00 7.975923421413423142e+00 -3.408750849380191017e+00 2.160907320020755762e+01 -7.886769759551946812e+00 7.975923421413423142e+00 -7.886769759551946812e+00 2.722156075997268054e+00
-9.939301571479044028e+00 -3.348139316649176411e+00 8.127110323572940942e+00 -3.348139316649176411e+00 2.159557597646994864e+01 -8.035365194753845586e+00 8.127110323572940942e+00 -8.035365194753845586e+00 2.877464130471335313e+00
-9.747029120262247659e+00 -3.285080287347075245e+00 8.266797591108018040e+00 -3.285080287347075245e+00 2.157029117733483048e+01 -8.175844299414862348e+00 8.266797591108018040e+00 -8.175844299414862348e+00 3.033078122016788836e+00
-9.535950537304387353e+00 -3.219879698545273783e+00 8.394463331367466807e+00 -3.219879698545273783e+00 2.153222900639477899e+01 -8.307829151270343715e+00 8.394463331367466807e+00 -8.307829151270343715e+00 3.186838494835610991e+00
-9.308279367298426976e+00 -3.152789498420207170e+00 8.509657636893363630e+00 -3.152789498420207170e+00 2.148054363762890162e+01 -8.431031809547222977e+00 8.509657636893363630e+00 -8.431031809547222977e+00 3.336135785671864085e+00
-9.066265147533970392e+00 -3.084079631446627445e+00 8.611768633542943974e+00 -3.084079631446627445e+00 2.141406531164660620e+01 -8.545326300157281452e+00 8.611768633542943974e+00 -8.545326300157281452e+00 3.478414520164561541e+00
-8.812391367178737056e+00 -3.013948056906020412e+00 8.700148454576794421e+00 -3.013948056906020412e+00 2.133167825795225170e+01 -8.650640637907251573e+00 8.700148454576794421e+00 -8.650640637907251573e+00 3.611029242461132771e+00