 vasp.6.1.1 19Jun20 (build Dec 21 2021 08:45:49) complex                        
  
 executed on             LinuxIFC date 2023.10.08  04:53:02
 running on   40 total cores
 distrk:  each k-point on   40 cores,    1 groups
 distr:  one band on NCORE=   1 cores,   40 groups


--------------------------------------------------------------------------------------------------------


 INCAR:
 POTCAR:   PAW_PBE Te 08Apr2002                   
 POTCAR:   PAW_PBE Mo 08Apr2002                   
 -----------------------------------------------------------------------------
|                                                                             |
|           W    W    AA    RRRRR   N    N  II  N    N   GGGG   !!!           |
|           W    W   A  A   R    R  NN   N  II  NN   N  G    G  !!!           |
|           W    W  A    A  R    R  N N  N  II  N N  N  G       !!!           |
|           W WW W  AAAAAA  RRRRR   N  N N  II  N  N N  G  GGG   !            |
|           WW  WW  A    A  R   R   N   NN  II  N   NN  G    G                |
|           W    W  A    A  R    R  N    N  II  N    N   GGGG   !!!           |
|                                                                             |
|     For optimal performance we recommend to set                             |
|       NCORE = 4 - approx SQRT(number of cores).                             |
|     NCORE specifies how many cores store one orbital (NPAR=cpu/NCORE).      |
|     This setting can greatly improve the performance of VASP for DFT.       |
|     The default, NCORE=1 might be grossly inefficient on modern             |
|     multi-core architectures or massively parallel machines. Do your        |
|     own testing!!!!                                                         |
|     Unfortunately you need to use the default for GW and RPA                |
|     calculations (for HF NCORE is supported but not extensively tested      |
|     yet).                                                                   |
|                                                                             |
 -----------------------------------------------------------------------------

 POTCAR:   PAW_PBE Te 08Apr2002                   
   VRHFIN =Te: s2p4                                                                                 
   LEXCH  = PE                                                                                      
   EATOM  =   223.2721 eV,   16.4100 Ry                                                             
                                                                                                    
   TITEL  = PAW_PBE Te 08Apr2002                                                                    
   LULTRA =        F    use ultrasoft PP ?                                                          
   IUNSCR =        1    unscreen: 0-lin 1-nonlin 2-no                                               
   RPACOR =    2.200    partial core radius                                                         
   POMASS =  127.600; ZVAL   =    6.000    mass and valenz                                          
   RCORE  =    2.300    outmost cutoff radius                                                       
   RWIGS  =    2.900; RWIGS  =    1.535    wigner-seitz radius (au A)                               
   ENMAX  =  174.982; ENMIN  =  131.236 eV                                                          
   ICORE  =        3    local potential                                                             
   LCOR   =        T    correct aug charges                                                         
   LPAW   =        T    paw PP                                                                      
   EAUG   =  368.792                                                                                
   DEXC   =    -.169                                                                                
   RMAX   =    3.486    core radius for proj-oper                                                   
   RAUG   =    1.300    factor for augmentation sphere                                              
   RDEP   =    2.397    radius for radial grids                                                     
   QCUT   =   -3.586; QGAM   =    7.172    optimization parameters                                  
                                                                                                    
   Description                                                                                      
     l     E      TYP  RCUT    TYP  RCUT                                                            
     0   .000     23  2.300                                                                         
     0   .000     23  2.300                                                                         
     1   .000     23  2.300                                                                         
     1   .000     23  2.300                                                                         
     2   .000     23  2.300                                                                         
     3  -.100     23  2.300                                                                         
  local pseudopotential read in
  partial core-charges read in
  atomic valenz-charges read in
  non local Contribution for L=           0  read in
    real space projection operators read in
  non local Contribution for L=           0  read in
    real space projection operators read in
  non local Contribution for L=           1  read in
    real space projection operators read in
  non local Contribution for L=           1  read in
    real space projection operators read in
  non local Contribution for L=           2  read in
    real space projection operators read in
    PAW grid and wavefunctions read in
 
   number of l-projection  operators is LMAX  =           5
   number of lm-projection operators is LMMAX =          13
 
 POTCAR:   PAW_PBE Mo 08Apr2002                   
   VRHFIN =Mo: 4p5s4d                                                                               
   LEXCH  = PE                                                                                      
   EATOM  =   217.5180 eV,   15.9871 Ry                                                             
                                                                                                    
   TITEL  = PAW_PBE Mo 08Apr2002                                                                    
   LULTRA =        F    use ultrasoft PP ?                                                          
   IUNSCR =        1    unscreen: 0-lin 1-nonlin 2-no                                               
   RPACOR =    2.200    partial core radius                                                         
   POMASS =   95.940; ZVAL   =    6.000    mass and valenz                                          
   RCORE  =    2.750    outmost cutoff radius                                                       
   RWIGS  =    2.750; RWIGS  =    1.455    wigner-seitz radius (au A)                               
   ENMAX  =  224.584; ENMIN  =  168.438 eV                                                          
   RCLOC  =    2.111    cutoff for local pot                                                        
   LCOR   =        T    correct aug charges                                                         
   LPAW   =        T    paw PP                                                                      
   EAUG   =  345.278                                                                                
   DEXC   =    -.088                                                                                
   RMAX   =    3.077    core radius for proj-oper                                                   
   RAUG   =    1.300    factor for augmentation sphere                                              
   RDEP   =    2.815    radius for radial grids                                                     
   QCUT   =   -4.063; QGAM   =    8.126    optimization parameters                                  
                                                                                                    
   Description                                                                                      
     l     E      TYP  RCUT    TYP  RCUT                                                            
     2   .000     23  2.500                                                                         
     2   .000     23  2.500                                                                         
     0   .000     23  2.600                                                                         
     0  1.000     23  2.600                                                                         
     1   .400     23  2.750                                                                         
     1  2.000     23  2.750                                                                         
     3   .000      7   .000                                                                         
  local pseudopotential read in
  partial core-charges read in
  atomic valenz-charges read in
  non local Contribution for L=           2  read in
    real space projection operators read in
  non local Contribution for L=           2  read in
    real space projection operators read in
  non local Contribution for L=           0  read in
    real space projection operators read in
  non local Contribution for L=           0  read in
    real space projection operators read in
  non local Contribution for L=           1  read in
    real space projection operators read in
  non local Contribution for L=           1  read in
    real space projection operators read in
    PAW grid and wavefunctions read in
 
   number of l-projection  operators is LMAX  =           6
   number of lm-projection operators is LMMAX =          18
 
 -----------------------------------------------------------------------------
|                                                                             |
|               ----> ADVICE to this user running VASP <----                  |
|                                                                             |
|     You have a (more or less) 'large supercell' and for larger cells it     |
|     might be more efficient to use real-space projection operators.         |
|     Therefore, try LREAL= Auto in the INCAR file.                           |
|     Mind: If you want to do very accurate calculations, keep the            |
|     reciprocal projection scheme (i.e. LREAL=.FALSE.).                      |
|                                                                             |
 -----------------------------------------------------------------------------

 PAW_PBE Te 08Apr2002                   :
 energy of atom  1       EATOM= -223.2721
 kinetic energy error for atom=    0.0006 (will be added to EATOM!!)
 PAW_PBE Mo 08Apr2002                   :
 energy of atom  2       EATOM= -217.5180
 kinetic energy error for atom=    0.0009 (will be added to EATOM!!)
 
 
 POSCAR: Te Mo
  positions in cartesian coordinates
  No initial velocities read in
 exchange correlation table for  LEXCH =        8
   RHO(1)=    0.500       N(1)  =     2000
   RHO(2)=  100.500       N(2)  =     4000
 


--------------------------------------------------------------------------------------------------------


 ion  position               nearest neighbor table
   1  0.111  0.222  0.321-  38 2.71  41 2.75  37 2.75   4 3.47   7 3.47   5 3.55   9 3.56   2 3.61
                             3 3.62  19 3.64
   2  0.111  0.555  0.321-  39 2.72  42 2.74  38 2.75   5 3.46   8 3.47   7 3.55   6 3.56   1 3.61
                             3 3.61  20 3.64
   3  0.111  0.888  0.321-  37 2.71  39 2.74  40 2.75   6 3.46   9 3.46   8 3.55   4 3.56   2 3.61
                             1 3.62  21 3.64
   4  0.445  0.222  0.321-  41 2.72  44 2.74  40 2.75   7 3.46   1 3.47   8 3.55   3 3.56   5 3.61
                             6 3.61  22 3.63
   5  0.444  0.555  0.321-  42 2.71  45 2.73  41 2.74   8 3.46   2 3.46   1 3.55   9 3.56   4 3.61
                             6 3.62  23 3.63
   6  0.444  0.889  0.321-  40 2.72  42 2.74  43 2.74   3 3.46   9 3.46   2 3.56   7 3.56   4 3.61
                             5 3.62  24 3.63
   7  0.778  0.223  0.321-  44 2.71  38 2.74  43 2.76   4 3.46   1 3.47   2 3.55   6 3.56   8 3.61
                             9 3.62  25 3.64
   8  0.778  0.555  0.321-  45 2.72  39 2.74  44 2.75   5 3.46   2 3.47   3 3.55   4 3.55   7 3.61
                             9 3.61  26 3.64
   9  0.778  0.888  0.321-  43 2.71  45 2.74  37 2.75   6 3.46   3 3.46   5 3.56   1 3.56   8 3.61
                             7 3.62  27 3.64
  10  0.000  0.055  0.559-  52 2.72  46 2.74  54 2.75  13 3.46  16 3.47  18 3.55  14 3.56  12 3.61
                            11 3.61  28 3.63
  11  0.000  0.389  0.558-  53 2.72  47 2.74  52 2.75  14 3.46  17 3.46  15 3.55  16 3.56  12 3.61
                            10 3.61  29 3.63
  12  0.000  0.722  0.558-  54 2.72  48 2.74  53 2.75  18 3.46  15 3.47  17 3.55  13 3.55  10 3.61
                            11 3.61  30 3.63
  13  0.333  0.055  0.559-  46 2.72  49 2.74  48 2.74  16 3.46  10 3.46  12 3.55  17 3.56  15 3.61
                            14 3.62  31 3.63
  14  0.333  0.389  0.558-  47 2.71  50 2.74  46 2.75  11 3.46  17 3.47  10 3.56  18 3.56  15 3.61
                            13 3.62  32 3.63
  15  0.334  0.722  0.558-  48 2.72  51 2.74  47 2.74  18 3.46  12 3.47  11 3.55  16 3.55  14 3.61
                            13 3.61  33 3.64
  16  0.667  0.056  0.558-  49 2.71  52 2.74  51 2.75  13 3.46  10 3.47  15 3.55  11 3.56  18 3.61
                            17 3.61  34 3.63
  17  0.667  0.389  0.559-  50 2.71  53 2.74  49 2.75  11 3.46  14 3.47  12 3.55  13 3.56  16 3.61
                            18 3.62  35 3.63
  18  0.667  0.723  0.559-  51 2.71  54 2.75  50 2.75  15 3.46  12 3.46  10 3.55  14 3.56  16 3.61
                            17 3.62  36 3.64
  19  0.111  0.223  0.442-  41 2.67  38 2.75  37 2.80  25 3.46  22 3.47  23 3.55  27 3.56  20 3.61
                            21 3.62   1 3.64
  20  0.111  0.555  0.442-  42 2.68  39 2.75  38 2.80  23 3.46  26 3.46  25 3.55  24 3.56  19 3.61
                            21 3.62   2 3.64
  21  0.111  0.889  0.442-  40 2.67  37 2.75  39 2.80  27 3.46  24 3.46  22 3.55  26 3.56  19 3.62
                            20 3.62   3 3.64
  22  0.445  0.222  0.441-  44 2.67  41 2.75  40 2.78  25 3.46  19 3.47  21 3.55  26 3.55  23 3.61
                            24 3.61   4 3.63
  23  0.444  0.555  0.442-  45 2.68  42 2.75  41 2.79  20 3.46  26 3.47  19 3.55  27 3.56  22 3.61
                            24 3.62   5 3.63
  24  0.444  0.889  0.442-  43 2.67  40 2.75  42 2.80  27 3.46  21 3.46  20 3.56  25 3.56  22 3.61
                            23 3.62   6 3.63
  25  0.778  0.222  0.442-  38 2.67  44 2.75  43 2.80  19 3.46  22 3.46  20 3.55  24 3.56  26 3.61
                            27 3.61   7 3.64
  26  0.778  0.556  0.442-  39 2.67  45 2.76  44 2.80  20 3.46  23 3.47  22 3.55  21 3.56  25 3.61
                            27 3.61   8 3.64
  27  0.778  0.889  0.442-  37 2.67  43 2.74  45 2.79  21 3.46  24 3.46  19 3.56  23 3.56  25 3.61
                            26 3.61   9 3.64
  28  1.000  0.055  0.679-  46 2.67  52 2.75  54 2.78  34 3.46  31 3.46  36 3.56  32 3.56  29 3.61
                            30 3.61  10 3.63
  29  0.000  0.389  0.679-  47 2.66  53 2.75  52 2.79  32 3.46  35 3.47  33 3.55  34 3.56  28 3.61
                            30 3.61  11 3.63
  30  0.000  0.722  0.679-  48 2.67  54 2.74  53 2.79  33 3.47  36 3.47  31 3.55  35 3.56  28 3.61
                            29 3.61  12 3.63
  31  0.333  0.055  0.679-  49 2.67  46 2.75  48 2.79  34 3.46  28 3.46  30 3.55  35 3.56  33 3.61
                            32 3.62  13 3.63
  32  0.334  0.389  0.679-  50 2.67  47 2.75  46 2.79  35 3.45  29 3.46  36 3.55  28 3.56  33 3.61
                            31 3.62  14 3.63
  33  0.333  0.722  0.680-  51 2.67  48 2.76  47 2.80  36 3.45  30 3.47  29 3.55  34 3.56  32 3.61
                            31 3.61  15 3.64
  34  0.667  0.056  0.679-  52 2.66  49 2.75  51 2.79  31 3.46  28 3.46  33 3.56  29 3.56  36 3.61
                            35 3.62  16 3.63
  35  0.666  0.389  0.679-  53 2.67  50 2.74  49 2.79  32 3.45  29 3.47  31 3.56  30 3.56  36 3.61
                            34 3.62  17 3.63
  36  0.666  0.722  0.680-  54 2.68  51 2.75  50 2.80  33 3.45  30 3.47  32 3.55  28 3.56  34 3.61
                            35 3.61  18 3.64
  37  0.000  0.000  0.381-  27 2.67   3 2.71   9 2.75   1 2.75  21 2.75  19 2.80  43 3.46  40 3.46

  38  1.000  0.333  0.381-  25 2.67   1 2.71   7 2.74  19 2.75   2 2.75  20 2.80  41 3.46  44 3.47

  39  0.000  0.667  0.381-  26 2.67   2 2.72   3 2.74   8 2.74  20 2.75  21 2.80  42 3.47  45 3.47

  40  0.333  0.000  0.381-  21 2.67   6 2.72   3 2.75  24 2.75   4 2.75  22 2.78  37 3.46  43 3.47

  41  0.333  0.334  0.381-  19 2.67   4 2.72   5 2.74   1 2.75  22 2.75  23 2.79  38 3.46  44 3.46

  42  0.334  0.667  0.381-  20 2.68   5 2.71   2 2.74   6 2.74  23 2.75  24 2.80  45 3.45  39 3.47

  43  0.667  0.999  0.381-  24 2.67   9 2.71  27 2.74   6 2.74   7 2.76  25 2.80  37 3.46  40 3.47

  44  0.666  0.333  0.381-  22 2.67   7 2.71   4 2.74   8 2.75  25 2.75  26 2.80  41 3.46  38 3.47

  45  0.666  0.667  0.381-  23 2.68   8 2.72   5 2.73   9 2.74  26 2.76  27 2.79  42 3.45  39 3.47

  46  0.222  0.167  0.619-  28 2.67  13 2.72  10 2.74  14 2.75  31 2.75  32 2.79  49 3.46  52 3.47

  47  0.222  0.500  0.619-  29 2.66  14 2.71  11 2.74  15 2.74  32 2.75  33 2.80  53 3.46  50 3.47

  48  0.222  0.833  0.619-  30 2.67  15 2.72  12 2.74  13 2.74  33 2.76  31 2.79  54 3.46  51 3.46

  49  0.556  0.167  0.619-  31 2.67  16 2.71  13 2.74  17 2.75  34 2.75  35 2.79  52 3.46  46 3.46

  50  0.555  0.500  0.619-  32 2.67  17 2.71  35 2.74  14 2.74  18 2.75  36 2.80  53 3.46  47 3.47

  51  0.556  0.833  0.619-  33 2.67  18 2.71  15 2.74  36 2.75  16 2.75  34 2.79  48 3.46  54 3.47

  52  0.889  0.167  0.619-  34 2.66  10 2.72  16 2.74  28 2.75  11 2.75  29 2.79  49 3.46  46 3.47

  53  0.889  0.500  0.619-  35 2.67  11 2.72  17 2.74  29 2.75  12 2.75  30 2.79  47 3.46  50 3.46

  54  0.890  0.834  0.619-  36 2.68  12 2.72  30 2.74  18 2.75  10 2.75  28 2.78  48 3.46  51 3.47

 

IMPORTANT INFORMATION: All symmetrisations will be switched off!
NOSYMM: (Re-)initialisation of all symmetry stuff for point group C_1.


----------------------------------------------------------------------------------------

                                     Primitive cell                                     

  volume of cell :    2937.6699

  direct lattice vectors                    reciprocal lattice vectors
    10.390130968  0.000000000  0.000000000     0.096245178  0.054974811 -0.003078582
    -5.375752041  9.411404976  0.000000000     0.000000000  0.106254061 -0.001679356
     0.689734228  0.474815360 30.041907668     0.000000000  0.000000000  0.033286834

  length of vectors
    10.390130968 10.838507906 30.053575482     0.110882107  0.106267332  0.033286834

  position of ions in fractional coordinates (direct lattice)
     0.110907642  0.221986528  0.320560644
     0.111200034  0.555109466  0.320514763
     0.110882487  0.888336524  0.320815298
     0.444600190  0.222349917  0.320651907
     0.444269696  0.554880491  0.320858012
     0.444305372  0.888845094  0.320676641
     0.777631628  0.222653428  0.320587262
     0.777792846  0.555494605  0.320675637
     0.777511405  0.888410609  0.320565540
     0.000146498  0.055484776  0.558539068
     0.000331829  0.389005140  0.558396799
     0.000078902  0.722189507  0.558482187
     0.333333461  0.055096383  0.558629765
     0.333270517  0.389284589  0.558476714
     0.333533698  0.722084505  0.558379022
     0.666659784  0.055536792  0.558499014
     0.667229269  0.389297840  0.558648592
     0.667121409  0.723137686  0.558551353
     0.111007486  0.222677797  0.441677084
     0.111077411  0.555445562  0.441575988
     0.111111174  0.889132892  0.441774625
     0.444519208  0.222144920  0.441494334
     0.444031980  0.555078572  0.441740181
     0.444408247  0.888903589  0.441533746
     0.777918400  0.222347490  0.441535900
     0.777786465  0.555545258  0.441824806
     0.777784090  0.888941200  0.441557755
     0.999856290  0.055480974  0.679363118
     0.000287451  0.388981880  0.679121487
     0.000025803  0.722242445  0.679352396
     0.333039237  0.055037023  0.679458565
     0.333542187  0.389036169  0.679303960
     0.333378199  0.721863668  0.679569957
     0.666562311  0.055616090  0.679297154
     0.665969884  0.389114320  0.679277081
     0.666086439  0.722355206  0.679522018
     0.000035384  0.000025270  0.381091007
     0.999881521  0.333000482  0.380988725
     0.000064041  0.666829524  0.381137644
     0.333491787  0.000422936  0.381230834
     0.333245356  0.333799931  0.381047951
     0.333730603  0.666709400  0.380830466
     0.666986850  0.999349411  0.381029161
     0.666458430  0.333458801  0.381074349
     0.666186880  0.666811213  0.380912868
     0.222266174  0.166839114  0.618923858
     0.221988596  0.500260101  0.618686476
     0.222177920  0.833268612  0.618779482
     0.555502703  0.166736751  0.618792694
     0.555434101  0.499929743  0.618877253
     0.555577895  0.833111926  0.618829994
     0.888685219  0.166707594  0.618995031
     0.888820980  0.500132162  0.618898603
     0.889531880  0.833935911  0.619071301

  ion indices of the primitive-cell ions
   primitive index   ion index
                 1           1
                 2           2
                 3           3
                 4           4
                 5           5
                 6           6
                 7           7
                 8           8
                 9           9
                10          10
                11          11
                12          12
                13          13
                14          14
                15          15
                16          16
                17          17
                18          18
                19          19
                20          20
                21          21
                22          22
                23          23
                24          24
                25          25
                26          26
                27          27
                28          28
                29          29
                30          30
                31          31
                32          32
                33          33
                34          34
                35          35
                36          36
                37          37
                38          38
                39          39
                40          40
                41          41
                42          42
                43          43
                44          44
                45          45
                46          46
                47          47
                48          48
                49          49
                50          50
                51          51
                52          52
                53          53
                54          54

----------------------------------------------------------------------------------------

 
 

Automatic generation of k-mesh.
 generate k-points for:    3    3    1
Space group operators:
 irot       det(A)        alpha          n_x          n_y          n_z        tau_x        tau_y        tau_z
    1     1.000000     0.000001     1.000000     0.000000     0.000000     0.000000     0.000000     0.000000
 
 Subroutine IBZKPT returns following result:
 ===========================================
 
 Found      5 irreducible k-points:
 
 Following reciprocal coordinates:
            Coordinates               Weight
  0.000000  0.000000  0.000000      1.000000
  0.333333 -0.000000  0.000000      2.000000
  0.000000  0.333333  0.000000      2.000000
  0.333333  0.333333  0.000000      2.000000
 -0.333333  0.333333 -0.000000      2.000000
 
 Following cartesian coordinates:
            Coordinates               Weight
  0.000000  0.000000  0.000000      1.000000
  0.032082  0.018325 -0.001026      2.000000
  0.000000  0.035418 -0.000560      2.000000
  0.032082  0.053743 -0.001586      2.000000
 -0.032082  0.017093  0.000466      2.000000
 


--------------------------------------------------------------------------------------------------------




 Dimension of arrays:
   k-points           NKPTS =      5   k-points in BZ     NKDIM =      5   number of bands    NBANDS=    200
   number of dos      NEDOS =    301   number of ions     NIONS =     54
   non local maximal  LDIM  =      6   non local SUM 2l+1 LMDIM =     18
   total plane-waves  NPLWV = ******
   max r-space proj   IRMAX =      1   max aug-charges    IRDMAX=  35444
   dimension x,y,z NGX =    80 NGY =   84 NGZ =  240
   dimension x,y,z NGXF=   160 NGYF=  168 NGZF=  480
   support grid    NGXF=   160 NGYF=  168 NGZF=  480
   ions per type =              36  18
   NGX,Y,Z   is equivalent  to a cutoff of  12.80, 12.88, 13.28 a.u.
   NGXF,Y,Z  is equivalent  to a cutoff of  25.60, 25.77, 26.55 a.u.

 SYSTEM =  dpgen_md                                
 POSCAR =  Te Mo                                   

 Startparameter for this run:
   NWRITE =      2    write-flag & timer
   PREC   = a         normal or accurate (medium, high low for compatibility)
   ISTART =      0    job   : 0-new  1-cont  2-samecut
   ICHARG =      2    charge: 1-file 2-atom 10-const
   ISPIN  =      1    spin polarized calculation?
   LNONCOLLINEAR =      F non collinear calculations
   LSORBIT =      F    spin-orbit coupling
   INIWAV =      1    electr: 0-lowe 1-rand  2-diag
   LASPH  =      F    aspherical Exc in radial PAW
   METAGGA=      F    non-selfconsistent MetaGGA calc.

 Electronic Relaxation 1
   ENCUT  =  550.0 eV  40.42 Ry    6.36 a.u.  19.87 20.73 57.47*2*pi/ulx,y,z
   ENINI  =  550.0     initial cutoff
   ENAUG  =  368.8 eV  augmentation charge cutoff
   NELM   =    100;   NELMIN=  6; NELMDL= -5     # of ELM steps 
   EDIFF  = 0.1E-05   stopping-criterion for ELM
   LREAL  =      F    real-space projection
   NLSPLINE    = F    spline interpolate recip. space projectors
   LCOMPAT=      F    compatible to vasp.4.4
   GGA_COMPAT  = T    GGA compatible to vasp.4.4-vasp.4.6
   LMAXPAW     = -100 max onsite density
   LMAXMIX     =    2 max onsite mixed and CHGCAR
   VOSKOWN=      0    Vosko Wilk Nusair interpolation
   ROPT   =    0.00000   0.00000
 Ionic relaxation
   EDIFFG = 0.1E-04   stopping-criterion for IOM
   NSW    =     10    number of steps for IOM
   NBLOCK =      1;   KBLOCK =      1    inner block; outer block 
   IBRION =      0    ionic relax: 0-MD 1-quasi-New 2-CG
   NFREE  =      0    steps in history (QN), initial steepest desc. (CG)
   ISIF   =      2    stress and relaxation
   IWAVPR =     11    prediction:  0-non 1-charg 2-wave 3-comb
   ISYM   =      0    0-nonsym 1-usesym 2-fastsym
   LCORR  =      T    Harris-Foulkes like correction to forces

   POTIM  = 2.0000    time-step for ionic-motion
   TEIN   =  100.0    initial temperature
   TEBEG  =  100.0;   TEEND  = 100.0 temperature during run
   SMASS  =   0.04    Nose mass-parameter (am)
   estimated Nose-frequenzy (Omega)   =  0.79E+14 period in steps = 0.40E+02 mass=   0.327E-28a.u.
   SCALEE = 1.0000    scale energy and forces
   NPACO  =    256;   APACO  = 16.0  distance and # of slots for P.C.
   PSTRESS=    0.0 pullay stress

  Mass of Ions in am
   POMASS = 127.60 95.94
  Ionic Valenz
   ZVAL   =   6.00  6.00
  Atomic Wigner-Seitz radii
   RWIGS  =  -1.00 -1.00
  virtual crystal weights 
   VCA    =   1.00  1.00
   NELECT =     324.0000    total number of electrons
   NUPDOWN=      -1.0000    fix difference up-down

 DOS related values:
   EMIN   =  10.00;   EMAX   =-10.00  energy-range for DOS
   EFERMI =   0.00
   ISMEAR =     0;   SIGMA  =   0.10  broadening in eV -4-tet -1-fermi 0-gaus

 Electronic relaxation 2 (details)
   IALGO  =     68    algorithm
   LDIAG  =      T    sub-space diagonalisation (order eigenvalues)
   LSUBROT=      F    optimize rotation matrix (better conditioning)
   TURBO    =      0    0=normal 1=particle mesh
   IRESTART =      0    0=no restart 2=restart with 2 vectors
   NREBOOT  =      0    no. of reboots
   NMIN     =      0    reboot dimension
   EREF     =   0.00    reference energy to select bands
   IMIX   =      4    mixing-type and parameters
     AMIX     =   0.40;   BMIX     =  1.00
     AMIX_MAG =   1.60;   BMIX_MAG =  1.00
     AMIN     =   0.10
     WC   =   100.;   INIMIX=   1;  MIXPRE=   1;  MAXMIX= -45

 Intra band minimization:
   WEIMIN = 0.0010     energy-eigenvalue tresh-hold
   EBREAK =  0.13E-08  absolut break condition
   DEPER  =   0.30     relativ break condition  

   TIME   =   0.40     timestep for ELM

  volume/ion in A,a.u.               =      54.40       367.12
  Fermi-wavevector in a.u.,A,eV,Ry     =   0.785095  1.483614  8.386278  0.616374
  Thomas-Fermi vector in A             =   1.889361
 
 Write flags
   LWAVE        =      F    write WAVECAR
   LDOWNSAMPLE  =      F    k-point downsampling of WAVECAR
   LCHARG       =      F    write CHGCAR
   LVTOT        =      F    write LOCPOT, total local potential
   LVHAR        =      F    write LOCPOT, Hartree potential only
   LELF         =      F    write electronic localiz. function (ELF)
   LORBIT       =      0    0 simple, 1 ext, 2 COOP (PROOUT), +10 PAW based schemes


 Dipole corrections
   LMONO  =      F    monopole corrections only (constant potential shift)
   LDIPOL =      F    correct potential (dipole corrections)
   IDIPOL =      0    1-x, 2-y, 3-z, 4-all directions 
   EPSILON=  1.0000000 bulk dielectric constant

 Exchange correlation treatment:
   GGA     =    --    GGA type
   LEXCH   =     8    internal setting for exchange type
   VOSKOWN=      0    Vosko Wilk Nusair interpolation
   LHFCALC =     F    Hartree Fock is set to
   LHFONE  =     F    Hartree Fock one center treatment
   AEXX    =    0.0000 exact exchange contribution

 Linear response parameters
   LEPSILON=     F    determine dielectric tensor
   LRPA    =     F    only Hartree local field effects (RPA)
   LNABLA  =     F    use nabla operator in PAW spheres
   LVEL    =     F    velocity operator in full k-point grid
   LINTERFAST=   F  fast interpolation
   KINTER  =     0    interpolate to denser k-point grid
   CSHIFT  =0.1000    complex shift for real part using Kramers Kronig
   OMEGAMAX=  -1.0    maximum frequency
   DEG_THRESHOLD= 0.2000000E-02 threshold for treating states as degnerate
   RTIME   =   -0.100 relaxation time in fs
  (WPLASMAI=    0.000 imaginary part of plasma frequency in eV, 0.658/RTIME)
   DFIELD  = 0.0000000 0.0000000 0.0000000 field for delta impulse in time
 
 Orbital magnetization related:
   ORBITALMAG=     F  switch on orbital magnetization
   LCHIMAG   =     F  perturbation theory with respect to B field
   DQ        =  0.001000  dq finite difference perturbation B field
   LLRAUG    =     F  two centre corrections for induced B field



--------------------------------------------------------------------------------------------------------


 molecular dynamics for ions
   using nose mass (canonical ensemble)
 charge density and potential will be updated during run
 non-spin polarized calculation
 RMM-DIIS sequential band-by-band and
  variant of blocked Davidson during initial phase
 perform sub-space diagonalisation
    before iterative eigenvector-optimisation
 modified Broyden-mixing scheme, WC =      100.0
 initial mixing is a Kerker type mixing with AMIX =  0.4000 and BMIX =      1.0000
 Hartree-type preconditioning will be used
 using additional bands           38
 reciprocal scheme for non local part
 use partial core corrections
 calculate Harris-corrections to forces 
   (improved forces if not selfconsistent)
 use gradient corrections 
 use of overlap-Matrix (Vanderbilt PP)
 Gauss-broadening in eV      SIGMA  =   0.10


--------------------------------------------------------------------------------------------------------


  energy-cutoff  :      550.00
  volume of cell :     2937.67
      direct lattice vectors                 reciprocal lattice vectors
    10.390130968  0.000000000  0.000000000     0.096245178  0.054974811 -0.003078582
    -5.375752041  9.411404976  0.000000000     0.000000000  0.106254061 -0.001679356
     0.689734228  0.474815360 30.041907668     0.000000000  0.000000000  0.033286834

  length of vectors
    10.390130968 10.838507906 30.053575482     0.110882107  0.106267332  0.033286834


 
 k-points in units of 2pi/SCALE and weight: read from INCAR                         
   0.00000000  0.00000000  0.00000000       0.111
   0.03208173  0.01832494 -0.00102619       0.222
   0.00000000  0.03541802 -0.00055979       0.222
   0.03208173  0.05374296 -0.00158598       0.222
  -0.03208173  0.01709308  0.00046641       0.222
 
 k-points in reciprocal lattice and weights: read from INCAR                         
   0.00000000  0.00000000  0.00000000       0.111
   0.33333333 -0.00000000  0.00000000       0.222
   0.00000000  0.33333333  0.00000000       0.222
   0.33333333  0.33333333  0.00000000       0.222
  -0.33333333  0.33333333 -0.00000000       0.222
 
 position of ions in fractional coordinates (direct lattice) 
   0.11090764  0.22198653  0.32056064
   0.11120003  0.55510947  0.32051476
   0.11088249  0.88833652  0.32081530
   0.44460019  0.22234992  0.32065191
   0.44426970  0.55488049  0.32085801
   0.44430537  0.88884509  0.32067664
   0.77763163  0.22265343  0.32058726
   0.77779285  0.55549460  0.32067564
   0.77751140  0.88841061  0.32056554
   0.00014650  0.05548478  0.55853907
   0.00033183  0.38900514  0.55839680
   0.00007890  0.72218951  0.55848219
   0.33333346  0.05509638  0.55862976
   0.33327052  0.38928459  0.55847671
   0.33353370  0.72208450  0.55837902
   0.66665978  0.05553679  0.55849901
   0.66722927  0.38929784  0.55864859
   0.66712141  0.72313769  0.55855135
   0.11100749  0.22267780  0.44167708
   0.11107741  0.55544556  0.44157599
   0.11111117  0.88913289  0.44177462
   0.44451921  0.22214492  0.44149433
   0.44403198  0.55507857  0.44174018
   0.44440825  0.88890359  0.44153375
   0.77791840  0.22234749  0.44153590
   0.77778647  0.55554526  0.44182481
   0.77778409  0.88894120  0.44155776
   0.99985629  0.05548097  0.67936312
   0.00028745  0.38898188  0.67912149
   0.00002580  0.72224244  0.67935240
   0.33303924  0.05503702  0.67945856
   0.33354219  0.38903617  0.67930396
   0.33337820  0.72186367  0.67956996
   0.66656231  0.05561609  0.67929715
   0.66596988  0.38911432  0.67927708
   0.66608644  0.72235521  0.67952202
   0.00003538  0.00002527  0.38109101
   0.99988152  0.33300048  0.38098873
   0.00006404  0.66682952  0.38113764
   0.33349179  0.00042294  0.38123083
   0.33324536  0.33379993  0.38104795
   0.33373060  0.66670940  0.38083047
   0.66698685  0.99934941  0.38102916
   0.66645843  0.33345880  0.38107435
   0.66618688  0.66681121  0.38091287
   0.22226617  0.16683911  0.61892386
   0.22198860  0.50026010  0.61868648
   0.22217792  0.83326861  0.61877948
   0.55550270  0.16673675  0.61879269
   0.55543410  0.49992974  0.61887725
   0.55557790  0.83311193  0.61882999
   0.88868522  0.16670759  0.61899503
   0.88882098  0.50013216  0.61889860
   0.88953188  0.83393591  0.61907130
 
 position of ions in cartesian coordinates  (Angst):
   0.18010204  2.24141224  9.63025326
  -1.60767793  5.37654532  9.62887491
  -3.40211603  8.51282282  9.63790355
   3.64532078  2.24487556  9.63299497
   1.85442715  5.37455333  9.63918679
   0.05936183  8.51754334  9.63373805
   7.10388485  2.24770134  9.63105291
   5.31634924  5.38024641  9.63370788
   3.52367521  8.51340146  9.63040036
   0.08849325  0.78739263 16.77957912
  -1.70260205  3.92622029 16.77530509
  -3.49628763  7.06199384 16.77787030
   3.55249989  0.78378037 16.78230382
   1.75522740  3.92888824 16.77770589
  -0.03115533  7.06095664 16.77477104
   7.01334633  0.78786315 16.77837580
   5.22514989  3.92909456 16.78286943
   3.42932191  7.07095038 16.77994818
   0.26096150  2.30542599 13.26882216
  -1.52725870  5.43719019 13.26578505
  -3.32059123  8.57775110 13.27175248
   3.72893054  2.30032410 13.26333202
   1.93426899  5.43381425 13.27071774
   0.14347555  8.57547866 13.26451602
   7.19193151  2.30225031 13.26458073
   5.39957138  5.43824661 13.27326002
   3.60710859  8.57584404 13.26523731
  10.55896584  0.84472596 20.40936407
  -1.61967015  3.98332332 20.40210501
  -3.41375559  7.11988309 20.40904197
   3.63310173  0.84059308 20.41223147
   1.84272422  3.98392089 20.40758686
   0.05200572  7.11642157 20.41557790
   7.09522590  0.84596627 20.40738239
   5.29625287  3.98464364 20.40677935
   3.50621246  7.12102487 20.41413772
   0.26308331  0.18118569 11.44870084
   8.86155290  3.31490169 11.44562811
  -3.32116111  6.45677271 11.45010190
   3.72569770  0.18499467 11.45290153
   1.93085904  3.32245376 11.44740737
   0.14611207  6.45549632 11.44087371
   1.82063494  9.58620052 11.44684286
   5.39483857  3.31925577 11.44820040
   3.59988583  6.45649365 11.44334921
   1.83938192  1.86406503 18.59365341
   0.04394557  5.00191225 18.58652199
  -1.74419437  8.13603436 18.58931606
   5.30221291  1.86303937 18.58971298
   3.51039555  4.99889369 18.59225331
   1.72075219  8.13458371 18.59083353
   8.76431918  1.86286103 18.59579155
   6.97325545  5.00080889 18.59289469
   5.18631472  8.14245314 18.59808285
 


--------------------------------------------------------------------------------------------------------


 k-point   1 :   0.0000 0.0000 0.0000  plane waves:   86027
 k-point   2 :   0.3333-0.0000 0.0000  plane waves:   86048
 k-point   3 :   0.0000 0.3333 0.0000  plane waves:   85999
 k-point   4 :   0.3333 0.3333 0.0000  plane waves:   86025
 k-point   5 :  -0.3333 0.3333-0.0000  plane waves:   86079

 maximum and minimum number of plane-waves per node :     86079    85999

 maximum number of plane-waves:     86079
 maximum index in each direction: 
   IXMAX=   20   IYMAX=   20   IZMAX=   57
   IXMIN=  -20   IYMIN=  -21   IZMIN=  -57


 serial   3D FFT for wavefunctions
 parallel 3D FFT for charge:
    minimum data exchange during FFTs selected (reduces bandwidth)


 total amount of memory used by VASP MPI-rank0   364037. kBytes
=======================================================================

   base      :      30000. kBytes
   nonl-proj :     198328. kBytes
   fftplans  :      17372. kBytes
   grid      :      82746. kBytes
   one-center:        839. kBytes
   wavefun   :      34752. kBytes
 
     INWAV:  cpu time    0.0000: real time    0.0000
 Broyden mixing: mesh for mixing (old mesh)
   NGX = 39   NGY = 41   NGZ =115
  (NGX  =160   NGY  =168   NGZ  =480)
  gives a total of 183885 points

 initial charge density was supplied:
 charge density of overlapping atoms calculated
 number of electron     324.0000000 magnetization 
 keeping initial charge density in first step


--------------------------------------------------------------------------------------------------------


 Maximum index for augmentation-charges         1177 (set IRDMAX)


--------------------------------------------------------------------------------------------------------


 First call to EWALD:  gamma=   0.124
 Maximum number of real-space cells 4x 4x 2
 Maximum number of reciprocal cells 2x 2x 5

    FEWALD:  cpu time    0.0021: real time    0.0021


--------------------------------------- Iteration      1(   1)  ---------------------------------------


    POTLOK:  cpu time    0.3075: real time    0.3087
    SETDIJ:  cpu time    0.0107: real time    0.0108
     EDDAV:  cpu time   49.3722: real time   49.4837
       DOS:  cpu time    0.0009: real time    0.0010
    --------------------------------------------
      LOOP:  cpu time   49.6913: real time   49.8042

 eigenvalue-minimisations  :  2000
 total energy-change (2. order) : 0.2109169E+04  (-0.1148441E+05)
 number of electron     324.0000000 magnetization 
 augmentation part      324.0000000 magnetization 

 Free energy of the ion-electron system (eV)
  ---------------------------------------------------
  alpha Z        PSCENC =       244.29776245
  Ewald energy   TEWEN  =     61848.83775299
  -Hartree energ DENC   =    -73521.69942260
  -exchange      EXHF   =         0.00000000
  -V(xc)+E(xc)   XCENC  =     -2101.72695875
  PAW double counting   =      7476.04436201    -4809.59211051
  entropy T*S    EENTRO =        -0.13178845
  eigenvalues    EBANDS =      1020.05662112
  atomic energy  EATOM  =     11953.08265402
  Solvation  Ediel_sol  =         0.00000000
  ---------------------------------------------------
  free energy    TOTEN  =      2109.16887229 eV

  energy without entropy =     2109.30066074  energy(sigma->0) =     2109.23476651


--------------------------------------------------------------------------------------------------------




--------------------------------------- Iteration      1(   2)  ---------------------------------------


     EDDAV:  cpu time   68.4385: real time   68.5962
       DOS:  cpu time    0.0005: real time    0.0005
    --------------------------------------------
      LOOP:  cpu time   68.4391: real time   68.5968

 eigenvalue-minimisations  :  3000
 total energy-change (2. order) :-0.2201349E+04  (-0.2112977E+04)
 number of electron     324.0000000 magnetization 
 augmentation part      324.0000000 magnetization 

 Free energy of the ion-electron system (eV)
  ---------------------------------------------------
  alpha Z        PSCENC =       244.29776245
  Ewald energy   TEWEN  =     61848.83775299
  -Hartree energ DENC   =    -73521.69942260
  -exchange      EXHF   =         0.00000000
  -V(xc)+E(xc)   XCENC  =     -2101.72695875
  PAW double counting   =      7476.04436201    -4809.59211051
  entropy T*S    EENTRO =        -0.00005768
  eigenvalues    EBANDS =     -1181.42395045
  atomic energy  EATOM  =     11953.08265402
  Solvation  Ediel_sol  =         0.00000000
  ---------------------------------------------------
  free energy    TOTEN  =       -92.17996852 eV

  energy without entropy =      -92.17991083  energy(sigma->0) =      -92.17993968


--------------------------------------------------------------------------------------------------------




--------------------------------------- Iteration      1(   3)  ---------------------------------------


     EDDAV:  cpu time   59.9745: real time   60.1250
       DOS:  cpu time    0.0004: real time    0.0004
    --------------------------------------------
      LOOP:  cpu time   59.9748: real time   60.1253

 eigenvalue-minimisations  :  2560
 total energy-change (2. order) :-0.2325677E+03  (-0.2290986E+03)
 number of electron     324.0000000 magnetization 
 augmentation part      324.0000000 magnetization 

 Free energy of the ion-electron system (eV)
  ---------------------------------------------------
  alpha Z        PSCENC =       244.29776245
  Ewald energy   TEWEN  =     61848.83775299
  -Hartree energ DENC   =    -73521.69942260
  -exchange      EXHF   =         0.00000000
  -V(xc)+E(xc)   XCENC  =     -2101.72695875
  PAW double counting   =      7476.04436201    -4809.59211051
  entropy T*S    EENTRO =        -0.00000000
  eigenvalues    EBANDS =     -1413.99167836
  atomic energy  EATOM  =     11953.08265402
  Solvation  Ediel_sol  =         0.00000000
  ---------------------------------------------------
  free energy    TOTEN  =      -324.74763874 eV

  energy without entropy =     -324.74763874  energy(sigma->0) =     -324.74763874


--------------------------------------------------------------------------------------------------------




--------------------------------------- Iteration      1(   4)  ---------------------------------------


     EDDAV:  cpu time   70.6631: real time   70.8303
       DOS:  cpu time    0.0004: real time    0.0004
    --------------------------------------------
      LOOP:  cpu time   70.6634: real time   70.8306

 eigenvalue-minimisations  :  3120
 total energy-change (2. order) :-0.1103806E+02  (-0.1096908E+02)
 number of electron     324.0000000 magnetization 
 augmentation part      324.0000000 magnetization 

 Free energy of the ion-electron system (eV)
  ---------------------------------------------------
  alpha Z        PSCENC =       244.29776245
  Ewald energy   TEWEN  =     61848.83775299
  -Hartree energ DENC   =    -73521.69942260
  -exchange      EXHF   =         0.00000000
  -V(xc)+E(xc)   XCENC  =     -2101.72695875
  PAW double counting   =      7476.04436201    -4809.59211051
  entropy T*S    EENTRO =        -0.00000000
  eigenvalues    EBANDS =     -1425.02973428
  atomic energy  EATOM  =     11953.08265402
  Solvation  Ediel_sol  =         0.00000000
  ---------------------------------------------------
  free energy    TOTEN  =      -335.78569466 eV

  energy without entropy =     -335.78569466  energy(sigma->0) =     -335.78569466


--------------------------------------------------------------------------------------------------------




--------------------------------------- Iteration      1(   5)  ---------------------------------------


     EDDAV:  cpu time   68.3351: real time   68.4708
       DOS:  cpu time    0.0004: real time    0.0004
    CHARGE:  cpu time    1.1529: real time    1.1546
    MIXING:  cpu time    0.0091: real time    0.0093
    --------------------------------------------
      LOOP:  cpu time   69.4974: real time   69.6350

 eigenvalue-minimisations  :  3000
 total energy-change (2. order) :-0.3043960E+00  (-0.3037418E+00)
 number of electron     323.9999997 magnetization 
 augmentation part      -25.6950562 magnetization 

 Broyden mixing:
  rms(total) = 0.19328E+01    rms(broyden)= 0.19328E+01
  rms(prec ) = 0.20466E+01
  weight for this iteration     100.00

 Free energy of the ion-electron system (eV)
  ---------------------------------------------------
  alpha Z        PSCENC =       244.29776245
  Ewald energy   TEWEN  =     61848.83775299
  -Hartree energ DENC   =    -73521.69942260
  -exchange      EXHF   =         0.00000000
  -V(xc)+E(xc)   XCENC  =     -2101.72695875
  PAW double counting   =      7476.04436201    -4809.59211051
  entropy T*S    EENTRO =        -0.00000000
  eigenvalues    EBANDS =     -1425.33413023
  atomic energy  EATOM  =     11953.08265402
  Solvation  Ediel_sol  =         0.00000000
  ---------------------------------------------------
  free energy    TOTEN  =      -336.09009062 eV

  energy without entropy =     -336.09009062  energy(sigma->0) =     -336.09009062


--------------------------------------------------------------------------------------------------------




--------------------------------------- Iteration      1(   6)  ---------------------------------------


    POTLOK:  cpu time    0.2705: real time    0.2708
    SETDIJ:  cpu time    0.0108: real time    0.0108
    EDDIAG:  cpu time    2.5147: real time    2.5205
  RMM-DIIS:  cpu time   42.3447: real time   42.4476
    ORTHCH:  cpu time    0.2146: real time    0.2149
       DOS:  cpu time    0.0005: real time    0.0005
    CHARGE:  cpu time    1.1533: real time    1.1587
    MIXING:  cpu time    0.0084: real time    0.0086
    --------------------------------------------
      LOOP:  cpu time   46.5176: real time   46.6323

 eigenvalue-minimisations  :  2136
 total energy-change (2. order) : 0.8906012E+01  (-0.5906210E+01)
 number of electron     323.9999997 magnetization 
 augmentation part      -19.8118866 magnetization 

 Broyden mixing:
  rms(total) = 0.71763E+00    rms(broyden)= 0.71763E+00
  rms(prec ) = 0.83486E+00
  weight for this iteration     100.00

 eigenvalues of (default mixing * dielectric matrix)
  average eigenvalue GAMMA=   1.0178
  1.0178

 Free energy of the ion-electron system (eV)
  ---------------------------------------------------
  alpha Z        PSCENC =       244.29776245
  Ewald energy   TEWEN  =     61848.83775299
  -Hartree energ DENC   =    -73494.13344484
  -exchange      EXHF   =         0.00000000
  -V(xc)+E(xc)   XCENC  =     -2095.20830203
  PAW double counting   =      7659.62791956    -5004.33883524
  entropy T*S    EENTRO =        -0.00000002
  eigenvalues    EBANDS =     -1439.34958588
  atomic energy  EATOM  =     11953.08265402
  Solvation  Ediel_sol  =         0.00000000
  ---------------------------------------------------
  free energy    TOTEN  =      -327.18407898 eV

  energy without entropy =     -327.18407895  energy(sigma->0) =     -327.18407897


--------------------------------------------------------------------------------------------------------




--------------------------------------- Iteration      1(   7)  ---------------------------------------


    POTLOK:  cpu time    0.2686: real time    0.2724
    SETDIJ:  cpu time    0.0106: real time    0.0106
    EDDIAG:  cpu time    2.5224: real time    2.5283
  RMM-DIIS:  cpu time   39.7630: real time   39.8505
    ORTHCH:  cpu time    0.2135: real time    0.2137
       DOS:  cpu time    0.0005: real time    0.0005
    CHARGE:  cpu time    1.1498: real time    1.1575
    MIXING:  cpu time    0.0070: real time    0.0071
    --------------------------------------------
      LOOP:  cpu time   43.9353: real time   44.0406

 eigenvalue-minimisations  :  2011
 total energy-change (2. order) : 0.3374348E+01  (-0.1089164E+01)
 number of electron     323.9999997 magnetization 
 augmentation part      -21.7336175 magnetization 

 Broyden mixing:
  rms(total) = 0.47393E+00    rms(broyden)= 0.47393E+00
  rms(prec ) = 0.50246E+00
  weight for this iteration     100.00

 eigenvalues of (default mixing * dielectric matrix)
  average eigenvalue GAMMA=   1.4783
  0.7301  2.2264

 Free energy of the ion-electron system (eV)
  ---------------------------------------------------
  alpha Z        PSCENC =       244.29776245
  Ewald energy   TEWEN  =     61848.83775299
  -Hartree energ DENC   =    -73580.88465220
  -exchange      EXHF   =         0.00000000
  -V(xc)+E(xc)   XCENC  =     -2094.07526475
  PAW double counting   =      7937.72758417    -5287.11837331
  entropy T*S    EENTRO =        -0.00000000
  eigenvalues    EBANDS =     -1345.67719442
  atomic energy  EATOM  =     11953.08265402
  Solvation  Ediel_sol  =         0.00000000
  ---------------------------------------------------
  free energy    TOTEN  =      -323.80973105 eV

  energy without entropy =     -323.80973105  energy(sigma->0) =     -323.80973105


--------------------------------------------------------------------------------------------------------




--------------------------------------- Iteration      1(   8)  ---------------------------------------


    POTLOK:  cpu time    0.2710: real time    0.2713
    SETDIJ:  cpu time    0.0116: real time    0.0116
    EDDIAG:  cpu time    2.5204: real time    2.5230
  RMM-DIIS:  cpu time   39.9137: real time   40.0159
    ORTHCH:  cpu time    0.2160: real time    0.2162
       DOS:  cpu time    0.0005: real time    0.0005
    CHARGE:  cpu time    1.1635: real time    1.1646
    MIXING:  cpu time    0.0087: real time    0.0088
    --------------------------------------------
      LOOP:  cpu time   44.1054: real time   44.2118

 eigenvalue-minimisations  :  2022
 total energy-change (2. order) : 0.4272650E+00  (-0.8261222E+00)
 number of electron     323.9999997 magnetization 
 augmentation part      -21.6474764 magnetization 

 Broyden mixing:
  rms(total) = 0.14171E+00    rms(broyden)= 0.14171E+00
  rms(prec ) = 0.16601E+00
  weight for this iteration     100.00

 eigenvalues of (default mixing * dielectric matrix)
  average eigenvalue GAMMA=   1.2828
  2.1169  0.8657  0.8657

 Free energy of the ion-electron system (eV)
  ---------------------------------------------------
  alpha Z        PSCENC =       244.29776245
  Ewald energy   TEWEN  =     61848.83775299
  -Hartree energ DENC   =    -73643.52773500
  -exchange      EXHF   =         0.00000000
  -V(xc)+E(xc)   XCENC  =     -2090.19319072
  PAW double counting   =      8246.44448005    -5602.19380573
  entropy T*S    EENTRO =        -0.00000000
  eigenvalues    EBANDS =     -1280.13038415
  atomic energy  EATOM  =     11953.08265402
  Solvation  Ediel_sol  =         0.00000000
  ---------------------------------------------------
  free energy    TOTEN  =      -323.38246608 eV

  energy without entropy =     -323.38246608  energy(sigma->0) =     -323.38246608


--------------------------------------------------------------------------------------------------------




--------------------------------------- Iteration      1(   9)  ---------------------------------------


    POTLOK:  cpu time    0.2694: real time    0.2698
    SETDIJ:  cpu time    0.0105: real time    0.0105
    EDDIAG:  cpu time    2.5239: real time    2.5264
  RMM-DIIS:  cpu time   44.3624: real time   44.4620
    ORTHCH:  cpu time    0.2131: real time    0.2145
       DOS:  cpu time    0.0004: real time    0.0004
    CHARGE:  cpu time    1.1603: real time    1.1653
    MIXING:  cpu time    0.0071: real time    0.0071
    --------------------------------------------
      LOOP:  cpu time   48.5472: real time   48.6561

 eigenvalue-minimisations  :  2214
 total energy-change (2. order) :-0.3736551E-02  (-0.1493431E+00)
 number of electron     323.9999997 magnetization 
 augmentation part      -21.1263511 magnetization 

 Broyden mixing:
  rms(total) = 0.94704E-01    rms(broyden)= 0.94703E-01
  rms(prec ) = 0.10479E+00
  weight for this iteration     100.00

 eigenvalues of (default mixing * dielectric matrix)
  average eigenvalue GAMMA=   1.1573
  2.0285  1.3516  0.7208  0.5282

 Free energy of the ion-electron system (eV)
  ---------------------------------------------------
  alpha Z        PSCENC =       244.29776245
  Ewald energy   TEWEN  =     61848.83775299
  -Hartree energ DENC   =    -73637.43879205
  -exchange      EXHF   =         0.00000000
  -V(xc)+E(xc)   XCENC  =     -2089.87709580
  PAW double counting   =      8236.66256706    -5592.44945998
  entropy T*S    EENTRO =        -0.00000000
  eigenvalues    EBANDS =     -1286.50159133
  atomic energy  EATOM  =     11953.08265402
  Solvation  Ediel_sol  =         0.00000000
  ---------------------------------------------------
  free energy    TOTEN  =      -323.38620263 eV

  energy without entropy =     -323.38620263  energy(sigma->0) =     -323.38620263


--------------------------------------------------------------------------------------------------------




--------------------------------------- Iteration      1(  10)  ---------------------------------------


    POTLOK:  cpu time    0.2707: real time    0.2710
    SETDIJ:  cpu time    0.0118: real time    0.0118
    EDDIAG:  cpu time    2.5221: real time    2.5287
  RMM-DIIS:  cpu time   49.9614: real time   50.0736
    ORTHCH:  cpu time    0.2191: real time    0.2217
       DOS:  cpu time    0.0004: real time    0.0004
    CHARGE:  cpu time    1.1490: real time    1.1498
    MIXING:  cpu time    0.0073: real time    0.0073
    --------------------------------------------
      LOOP:  cpu time   54.1418: real time   54.2643

 eigenvalue-minimisations  :  2474
 total energy-change (2. order) :-0.1446909E-01  (-0.4135269E-01)
 number of electron     323.9999997 magnetization 
 augmentation part      -20.9941953 magnetization 

 Broyden mixing:
  rms(total) = 0.76018E-01    rms(broyden)= 0.76017E-01
  rms(prec ) = 0.85198E-01
  weight for this iteration     100.00

 eigenvalues of (default mixing * dielectric matrix)
  average eigenvalue GAMMA=   1.2859
  2.4001  1.7929  0.9217  0.9217  0.3931

 Free energy of the ion-electron system (eV)
  ---------------------------------------------------
  alpha Z        PSCENC =       244.29776245
  Ewald energy   TEWEN  =     61848.83775299
  -Hartree energ DENC   =    -73640.63577439
  -exchange      EXHF   =         0.00000000
  -V(xc)+E(xc)   XCENC  =     -2089.70415312
  PAW double counting   =      8251.10937558    -5606.92449321
  entropy T*S    EENTRO =        -0.00000000
  eigenvalues    EBANDS =     -1283.46379605
  atomic energy  EATOM  =     11953.08265402
  Solvation  Ediel_sol  =         0.00000000
  ---------------------------------------------------
  free energy    TOTEN  =      -323.40067172 eV

  energy without entropy =     -323.40067172  energy(sigma->0) =     -323.40067172


--------------------------------------------------------------------------------------------------------




--------------------------------------- Iteration      1(  11)  ---------------------------------------


    POTLOK:  cpu time    0.2714: real time    0.2718
    SETDIJ:  cpu time    0.0110: real time    0.0110
    EDDIAG:  cpu time    2.5263: real time    2.5360
  RMM-DIIS:  cpu time   41.8112: real time   41.9164
    ORTHCH:  cpu time    0.2192: real time    0.2194
       DOS:  cpu time    0.0005: real time    0.0004
    CHARGE:  cpu time    1.1548: real time    1.1558
    MIXING:  cpu time    0.0083: real time    0.0083
    --------------------------------------------
      LOOP:  cpu time   46.0027: real time   46.1191

 eigenvalue-minimisations  :  2128
 total energy-change (2. order) : 0.1246612E-01  (-0.2057554E-01)
 number of electron     323.9999997 magnetization 
 augmentation part      -21.3284576 magnetization 

 Broyden mixing:
  rms(total) = 0.37803E-01    rms(broyden)= 0.37803E-01
  rms(prec ) = 0.42951E-01
  weight for this iteration     100.00

 eigenvalues of (default mixing * dielectric matrix)
  average eigenvalue GAMMA=   1.2551
  2.5366  1.5345  1.5345  0.7698  0.7698  0.3853

 Free energy of the ion-electron system (eV)
  ---------------------------------------------------
  alpha Z        PSCENC =       244.29776245
  Ewald energy   TEWEN  =     61848.83775299
  -Hartree energ DENC   =    -73659.25973814
  -exchange      EXHF   =         0.00000000
  -V(xc)+E(xc)   XCENC  =     -2089.43166094
  PAW double counting   =      8303.11848536    -5659.16421536
  entropy T*S    EENTRO =        -0.00000000
  eigenvalues    EBANDS =     -1264.86924598
  atomic energy  EATOM  =     11953.08265402
  Solvation  Ediel_sol  =         0.00000000
  ---------------------------------------------------
  free energy    TOTEN  =      -323.38820560 eV

  energy without entropy =     -323.38820560  energy(sigma->0) =     -323.38820560


--------------------------------------------------------------------------------------------------------




--------------------------------------- Iteration      1(  12)  ---------------------------------------


    POTLOK:  cpu time    0.2734: real time    0.2737
    SETDIJ:  cpu time    0.0104: real time    0.0104
    EDDIAG:  cpu time    2.5246: real time    2.5355
  RMM-DIIS:  cpu time   46.1502: real time   46.2511
    ORTHCH:  cpu time    0.2143: real time    0.2146
       DOS:  cpu time    0.0004: real time    0.0004
    CHARGE:  cpu time    1.1583: real time    1.1592
    MIXING:  cpu time    0.0075: real time    0.0075
    --------------------------------------------
      LOOP:  cpu time   50.3392: real time   50.4526

 eigenvalue-minimisations  :  2283
 total energy-change (2. order) : 0.2743829E-02  (-0.3666643E-02)
 number of electron     323.9999997 magnetization 
 augmentation part      -21.2710465 magnetization 

 Broyden mixing:
  rms(total) = 0.24206E-01    rms(broyden)= 0.24206E-01
  rms(prec ) = 0.28125E-01
  weight for this iteration     100.00

 eigenvalues of (default mixing * dielectric matrix)
  average eigenvalue GAMMA=   1.1948
  2.5369  1.7196  1.7196  0.8115  0.8115  0.3930  0.3717

 Free energy of the ion-electron system (eV)
  ---------------------------------------------------
  alpha Z        PSCENC =       244.29776245
  Ewald energy   TEWEN  =     61848.83775299
  -Hartree energ DENC   =    -73662.36437196
  -exchange      EXHF   =         0.00000000
  -V(xc)+E(xc)   XCENC  =     -2089.30660613
  PAW double counting   =      8303.93075776    -5659.99948765
  entropy T*S    EENTRO =        -0.00000000
  eigenvalues    EBANDS =     -1261.86392325
  atomic energy  EATOM  =     11953.08265402
  Solvation  Ediel_sol  =         0.00000000
  ---------------------------------------------------
  free energy    TOTEN  =      -323.38546177 eV

  energy without entropy =     -323.38546177  energy(sigma->0) =     -323.38546177


--------------------------------------------------------------------------------------------------------




--------------------------------------- Iteration      1(  13)  ---------------------------------------


    POTLOK:  cpu time    0.2721: real time    0.2724
    SETDIJ:  cpu time    0.0121: real time    0.0121
    EDDIAG:  cpu time    2.5283: real time    2.5322
  RMM-DIIS:  cpu time   50.2912: real time   50.4010
    ORTHCH:  cpu time    0.2202: real time    0.2204
       DOS:  cpu time    0.0005: real time    0.0005
    CHARGE:  cpu time    1.1516: real time    1.1564
    MIXING:  cpu time    0.0077: real time    0.0077
    --------------------------------------------
      LOOP:  cpu time   54.4835: real time   54.6026

 eigenvalue-minimisations  :  2535
 total energy-change (2. order) : 0.5338873E-03  (-0.2059498E-02)
 number of electron     323.9999997 magnetization 
 augmentation part      -21.1933763 magnetization 

 Broyden mixing:
  rms(total) = 0.95856E-02    rms(broyden)= 0.95855E-02
  rms(prec ) = 0.12518E-01
  weight for this iteration     100.00

 eigenvalues of (default mixing * dielectric matrix)
  average eigenvalue GAMMA=   1.2454
  2.3294  2.3294  1.8752  1.0560  0.8051  0.8051  0.3936  0.3697

 Free energy of the ion-electron system (eV)
  ---------------------------------------------------
  alpha Z        PSCENC =       244.29776245
  Ewald energy   TEWEN  =     61848.83775299
  -Hartree energ DENC   =    -73664.30937173
  -exchange      EXHF   =         0.00000000
  -V(xc)+E(xc)   XCENC  =     -2089.24740606
  PAW double counting   =      8301.16725906    -5657.22105786
  entropy T*S    EENTRO =        -0.00000000
  eigenvalues    EBANDS =     -1259.99252077
  atomic energy  EATOM  =     11953.08265402
  Solvation  Ediel_sol  =         0.00000000
  ---------------------------------------------------
  free energy    TOTEN  =      -323.38492789 eV

  energy without entropy =     -323.38492789  energy(sigma->0) =     -323.38492789


--------------------------------------------------------------------------------------------------------




--------------------------------------- Iteration      1(  14)  ---------------------------------------


    POTLOK:  cpu time    0.2725: real time    0.2727
    SETDIJ:  cpu time    0.0106: real time    0.0106
    EDDIAG:  cpu time    2.5212: real time    2.5275
  RMM-DIIS:  cpu time   49.2133: real time   49.3236
    ORTHCH:  cpu time    0.2137: real time    0.2139
       DOS:  cpu time    0.0005: real time    0.0005
    CHARGE:  cpu time    1.1593: real time    1.1603
    MIXING:  cpu time    0.0077: real time    0.0077
    --------------------------------------------
      LOOP:  cpu time   53.3988: real time   53.5168

 eigenvalue-minimisations  :  2429
 total energy-change (2. order) :-0.5074412E-03  (-0.5193090E-03)
 number of electron     323.9999997 magnetization 
 augmentation part      -21.1952604 magnetization 

 Broyden mixing:
  rms(total) = 0.60144E-02    rms(broyden)= 0.60144E-02
  rms(prec ) = 0.82934E-02
  weight for this iteration     100.00

 eigenvalues of (default mixing * dielectric matrix)
  average eigenvalue GAMMA=   1.3183
  3.2266  2.6334  1.5288  1.5288  0.8043  0.8043  0.5753  0.3967  0.3669

 Free energy of the ion-electron system (eV)
  ---------------------------------------------------
  alpha Z        PSCENC =       244.29776245
  Ewald energy   TEWEN  =     61848.83775299
  -Hartree energ DENC   =    -73670.89057341
  -exchange      EXHF   =         0.00000000
  -V(xc)+E(xc)   XCENC  =     -2089.22133097
  PAW double counting   =      8298.54888022    -5654.51975456
  entropy T*S    EENTRO =        -0.00000000
  eigenvalues    EBANDS =     -1253.52082608
  atomic energy  EATOM  =     11953.08265402
  Solvation  Ediel_sol  =         0.00000000
  ---------------------------------------------------
  free energy    TOTEN  =      -323.38543533 eV

  energy without entropy =     -323.38543533  energy(sigma->0) =     -323.38543533


--------------------------------------------------------------------------------------------------------




--------------------------------------- Iteration      1(  15)  ---------------------------------------


    POTLOK:  cpu time    0.2800: real time    0.2828
    SETDIJ:  cpu time    0.0135: real time    0.0135
    EDDIAG:  cpu time    2.5214: real time    2.5270
  RMM-DIIS:  cpu time   45.3025: real time   45.4099
    ORTHCH:  cpu time    0.2171: real time    0.2173
       DOS:  cpu time    0.0005: real time    0.0005
    CHARGE:  cpu time    1.1584: real time    1.1609
    MIXING:  cpu time    0.0078: real time    0.0078
    --------------------------------------------
      LOOP:  cpu time   49.5012: real time   49.6197

 eigenvalue-minimisations  :  2283
 total energy-change (2. order) :-0.5301445E-03  (-0.1600425E-03)
 number of electron     323.9999997 magnetization 
 augmentation part      -21.2061237 magnetization 

 Broyden mixing:
  rms(total) = 0.48173E-02    rms(broyden)= 0.48173E-02
  rms(prec ) = 0.60154E-02
  weight for this iteration     100.00

 eigenvalues of (default mixing * dielectric matrix)
  average eigenvalue GAMMA=   1.2755
  3.4398  2.5513  1.6175  1.6175  0.7996  0.7996  0.6899  0.3655  0.3924  0.4822

 Free energy of the ion-electron system (eV)
  ---------------------------------------------------
  alpha Z        PSCENC =       244.29776245
  Ewald energy   TEWEN  =     61848.83775299
  -Hartree energ DENC   =    -73675.89807317
  -exchange      EXHF   =         0.00000000
  -V(xc)+E(xc)   XCENC  =     -2089.19811132
  PAW double counting   =      8297.95310050    -5653.89082027
  entropy T*S    EENTRO =        -0.00000000
  eigenvalues    EBANDS =     -1248.57023067
  atomic energy  EATOM  =     11953.08265402
  Solvation  Ediel_sol  =         0.00000000
  ---------------------------------------------------
  free energy    TOTEN  =      -323.38596547 eV

  energy without entropy =     -323.38596547  energy(sigma->0) =     -323.38596547


--------------------------------------------------------------------------------------------------------




--------------------------------------- Iteration      1(  16)  ---------------------------------------


    POTLOK:  cpu time    0.2711: real time    0.2714
    SETDIJ:  cpu time    0.0109: real time    0.0109
    EDDIAG:  cpu time    2.5261: real time    2.5290
  RMM-DIIS:  cpu time   53.2502: real time   53.3715
    ORTHCH:  cpu time    0.2189: real time    0.2191
       DOS:  cpu time    0.0005: real time    0.0005
    CHARGE:  cpu time    1.1557: real time    1.1583
    MIXING:  cpu time    0.0078: real time    0.0078
    --------------------------------------------
      LOOP:  cpu time   57.4412: real time   57.5685

 eigenvalue-minimisations  :  2665
 total energy-change (2. order) :-0.5594233E-03  (-0.5742116E-04)
 number of electron     323.9999997 magnetization 
 augmentation part      -21.2082022 magnetization 

 Broyden mixing:
  rms(total) = 0.36574E-02    rms(broyden)= 0.36574E-02
  rms(prec ) = 0.46197E-02
  weight for this iteration     100.00

 eigenvalues of (default mixing * dielectric matrix)
  average eigenvalue GAMMA=   1.3110
  3.5686  2.3867  2.0009  2.0009  1.0573  0.8107  0.8107  0.6406  0.4006  0.3649
  0.3794

 Free energy of the ion-electron system (eV)
  ---------------------------------------------------
  alpha Z        PSCENC =       244.29776245
  Ewald energy   TEWEN  =     61848.83775299
  -Hartree energ DENC   =    -73677.24515011
  -exchange      EXHF   =         0.00000000
  -V(xc)+E(xc)   XCENC  =     -2089.18949499
  PAW double counting   =      8297.99168490    -5653.93728682
  entropy T*S    EENTRO =        -0.00000000
  eigenvalues    EBANDS =     -1247.22444735
  atomic energy  EATOM  =     11953.08265402
  Solvation  Ediel_sol  =         0.00000000
  ---------------------------------------------------
  free energy    TOTEN  =      -323.38652490 eV

  energy without entropy =     -323.38652490  energy(sigma->0) =     -323.38652490


--------------------------------------------------------------------------------------------------------




--------------------------------------- Iteration      1(  17)  ---------------------------------------


    POTLOK:  cpu time    0.2744: real time    0.2747
    SETDIJ:  cpu time    0.0113: real time    0.0113
    EDDIAG:  cpu time    2.5306: real time    2.5333
  RMM-DIIS:  cpu time   42.0937: real time   42.1935
    ORTHCH:  cpu time    0.2190: real time    0.2192
       DOS:  cpu time    0.0005: real time    0.0005
    CHARGE:  cpu time    1.1529: real time    1.1581
    MIXING:  cpu time    0.0081: real time    0.0081
    --------------------------------------------
      LOOP:  cpu time   46.2907: real time   46.3987

 eigenvalue-minimisations  :  2109
 total energy-change (2. order) :-0.1462239E-02  (-0.2635054E-04)
 number of electron     323.9999997 magnetization 
 augmentation part      -21.2062516 magnetization 

 Broyden mixing:
  rms(total) = 0.17103E-02    rms(broyden)= 0.17103E-02
  rms(prec ) = 0.24344E-02
  weight for this iteration     100.00

 eigenvalues of (default mixing * dielectric matrix)
  average eigenvalue GAMMA=   1.3655
  4.3114  2.5454  2.2722  1.6251  1.3100  0.9477  0.8092  0.8092  0.6201  0.3957
  0.3636  0.3769

 Free energy of the ion-electron system (eV)
  ---------------------------------------------------
  alpha Z        PSCENC =       244.29776245
  Ewald energy   TEWEN  =     61848.83775299
  -Hartree energ DENC   =    -73680.03140929
  -exchange      EXHF   =         0.00000000
  -V(xc)+E(xc)   XCENC  =     -2089.17324388
  PAW double counting   =      8297.49490736    -5653.46296113
  entropy T*S    EENTRO =        -0.00000000
  eigenvalues    EBANDS =     -1244.43344965
  atomic energy  EATOM  =     11953.08265402
  Solvation  Ediel_sol  =         0.00000000
  ---------------------------------------------------
  free energy    TOTEN  =      -323.38798713 eV

  energy without entropy =     -323.38798713  energy(sigma->0) =     -323.38798713


--------------------------------------------------------------------------------------------------------




--------------------------------------- Iteration      1(  18)  ---------------------------------------


    POTLOK:  cpu time    0.2719: real time    0.2722
    SETDIJ:  cpu time    0.0108: real time    0.0108
    EDDIAG:  cpu time    2.5266: real time    2.5322
  RMM-DIIS:  cpu time   42.6815: real time   42.7835
    ORTHCH:  cpu time    0.2360: real time    0.2362
       DOS:  cpu time    0.0005: real time    0.0005
    CHARGE:  cpu time    1.1541: real time    1.1568
    MIXING:  cpu time    0.0082: real time    0.0082
    --------------------------------------------
      LOOP:  cpu time   46.8896: real time   47.0004

 eigenvalue-minimisations  :  2126
 total energy-change (2. order) :-0.9096608E-03  (-0.2184281E-04)
 number of electron     323.9999997 magnetization 
 augmentation part      -21.2068116 magnetization 

 Broyden mixing:
  rms(total) = 0.16629E-02    rms(broyden)= 0.16629E-02
  rms(prec ) = 0.20459E-02
  weight for this iteration     100.00

 eigenvalues of (default mixing * dielectric matrix)
  average eigenvalue GAMMA=   1.3834
  4.9593  2.7013  2.2654  1.6233  1.6233  1.0114  0.8131  0.8131  0.6303  0.4127
  0.3908  0.3635  0.3765

 Free energy of the ion-electron system (eV)
  ---------------------------------------------------
  alpha Z        PSCENC =       244.29776245
  Ewald energy   TEWEN  =     61848.83775299
  -Hartree energ DENC   =    -73682.08175946
  -exchange      EXHF   =         0.00000000
  -V(xc)+E(xc)   XCENC  =     -2089.16648367
  PAW double counting   =      8296.93629344    -5652.90044376
  entropy T*S    EENTRO =        -0.00000000
  eigenvalues    EBANDS =     -1242.39467281
  atomic energy  EATOM  =     11953.08265402
  Solvation  Ediel_sol  =         0.00000000
  ---------------------------------------------------
  free energy    TOTEN  =      -323.38889679 eV

  energy without entropy =     -323.38889679  energy(sigma->0) =     -323.38889679


--------------------------------------------------------------------------------------------------------




--------------------------------------- Iteration      1(  19)  ---------------------------------------


    POTLOK:  cpu time    0.2736: real time    0.2750
    SETDIJ:  cpu time    0.0107: real time    0.0107
    EDDIAG:  cpu time    2.5287: real time    2.5315
  RMM-DIIS:  cpu time   44.9031: real time   44.9921
    ORTHCH:  cpu time    0.2174: real time    0.2176
       DOS:  cpu time    0.0004: real time    0.0004
    CHARGE:  cpu time    1.1502: real time    1.1594
    MIXING:  cpu time    0.0082: real time    0.0082
    --------------------------------------------
      LOOP:  cpu time   49.0924: real time   49.1950

 eigenvalue-minimisations  :  2253
 total energy-change (2. order) :-0.4291896E-03  (-0.7237807E-05)
 number of electron     323.9999997 magnetization 
 augmentation part      -21.2066745 magnetization 

 Broyden mixing:
  rms(total) = 0.10003E-02    rms(broyden)= 0.10003E-02
  rms(prec ) = 0.12811E-02
  weight for this iteration     100.00

 eigenvalues of (default mixing * dielectric matrix)
  average eigenvalue GAMMA=   1.5212
  6.2145  3.0597  2.4817  1.8911  1.8911  1.0066  1.0066  0.8062  0.8062  0.6250
  0.3968  0.3866  0.3657  0.3594

 Free energy of the ion-electron system (eV)
  ---------------------------------------------------
  alpha Z        PSCENC =       244.29776245
  Ewald energy   TEWEN  =     61848.83775299
  -Hartree energ DENC   =    -73682.85691279
  -exchange      EXHF   =         0.00000000
  -V(xc)+E(xc)   XCENC  =     -2089.16452764
  PAW double counting   =      8296.89377405    -5652.85476634
  entropy T*S    EENTRO =        -0.00000000
  eigenvalues    EBANDS =     -1241.62506273
  atomic energy  EATOM  =     11953.08265402
  Solvation  Ediel_sol  =         0.00000000
  ---------------------------------------------------
  free energy    TOTEN  =      -323.38932598 eV

  energy without entropy =     -323.38932598  energy(sigma->0) =     -323.38932598


--------------------------------------------------------------------------------------------------------




--------------------------------------- Iteration      1(  20)  ---------------------------------------


    POTLOK:  cpu time    0.2766: real time    0.2768
    SETDIJ:  cpu time    0.0107: real time    0.0107
    EDDIAG:  cpu time    2.5230: real time    2.5273
  RMM-DIIS:  cpu time   43.3715: real time   43.4688
    ORTHCH:  cpu time    0.2223: real time    0.2225
       DOS:  cpu time    0.0005: real time    0.0005
    CHARGE:  cpu time    1.1543: real time    1.1591
    MIXING:  cpu time    0.0086: real time    0.0086
    --------------------------------------------
      LOOP:  cpu time   47.5674: real time   47.6743

 eigenvalue-minimisations  :  2165
 total energy-change (2. order) :-0.6760491E-03  (-0.7279211E-05)
 number of electron     323.9999997 magnetization 
 augmentation part      -21.2042017 magnetization 

 Broyden mixing:
  rms(total) = 0.53708E-03    rms(broyden)= 0.53708E-03
  rms(prec ) = 0.62980E-03
  weight for this iteration     100.00

 eigenvalues of (default mixing * dielectric matrix)
  average eigenvalue GAMMA=   1.5466
  6.6830  3.2488  2.4961  1.8267  1.8267  1.2175  1.2175  0.9344  0.8046  0.8046
  0.6301  0.3974  0.3879  0.3667  0.3572

 Free energy of the ion-electron system (eV)
  ---------------------------------------------------
  alpha Z        PSCENC =       244.29776245
  Ewald energy   TEWEN  =     61848.83775299
  -Hartree energ DENC   =    -73683.71850693
  -exchange      EXHF   =         0.00000000
  -V(xc)+E(xc)   XCENC  =     -2089.16228532
  PAW double counting   =      8297.45667316    -5653.41820809
  entropy T*S    EENTRO =        -0.00000000
  eigenvalues    EBANDS =     -1240.76584431
  atomic energy  EATOM  =     11953.08265402
  Solvation  Ediel_sol  =         0.00000000
  ---------------------------------------------------
  free energy    TOTEN  =      -323.39000203 eV

  energy without entropy =     -323.39000203  energy(sigma->0) =     -323.39000203


--------------------------------------------------------------------------------------------------------




--------------------------------------- Iteration      1(  21)  ---------------------------------------


    POTLOK:  cpu time    0.2751: real time    0.2754
    SETDIJ:  cpu time    0.0107: real time    0.0107
    EDDIAG:  cpu time    2.5386: real time    2.5478
  RMM-DIIS:  cpu time   41.2776: real time   41.3891
    ORTHCH:  cpu time    0.2169: real time    0.2171
       DOS:  cpu time    0.0005: real time    0.0004
    CHARGE:  cpu time    1.1572: real time    1.1598
    MIXING:  cpu time    0.0089: real time    0.0089
    --------------------------------------------
      LOOP:  cpu time   45.4854: real time   45.6092

 eigenvalue-minimisations  :  2029
 total energy-change (2. order) :-0.1219152E-03  (-0.1416147E-05)
 number of electron     323.9999997 magnetization 
 augmentation part      -21.2053058 magnetization 

 Broyden mixing:
  rms(total) = 0.34985E-03    rms(broyden)= 0.34985E-03
  rms(prec ) = 0.42466E-03
  weight for this iteration     100.00

 eigenvalues of (default mixing * dielectric matrix)
  average eigenvalue GAMMA=   1.5358
  7.0029  3.3185  2.4932  1.8810  1.8810  1.7026  1.0238  1.0238  0.8047  0.8047
  0.6351  0.4913  0.3992  0.3880  0.3669  0.3567

 Free energy of the ion-electron system (eV)
  ---------------------------------------------------
  alpha Z        PSCENC =       244.29776245
  Ewald energy   TEWEN  =     61848.83775299
  -Hartree energ DENC   =    -73683.91512886
  -exchange      EXHF   =         0.00000000
  -V(xc)+E(xc)   XCENC  =     -2089.16351309
  PAW double counting   =      8297.48195932    -5653.44401063
  entropy T*S    EENTRO =        -0.00000000
  eigenvalues    EBANDS =     -1240.56760015
  atomic energy  EATOM  =     11953.08265402
  Solvation  Ediel_sol  =         0.00000000
  ---------------------------------------------------
  free energy    TOTEN  =      -323.39012395 eV

  energy without entropy =     -323.39012395  energy(sigma->0) =     -323.39012395


--------------------------------------------------------------------------------------------------------




--------------------------------------- Iteration      1(  22)  ---------------------------------------


    POTLOK:  cpu time    0.2777: real time    0.2780
    SETDIJ:  cpu time    0.0106: real time    0.0106
    EDDIAG:  cpu time    2.5215: real time    2.5306
  RMM-DIIS:  cpu time   30.5263: real time   30.5868
    ORTHCH:  cpu time    0.2173: real time    0.2176
       DOS:  cpu time    0.0005: real time    0.0005
    CHARGE:  cpu time    1.1557: real time    1.1566
    MIXING:  cpu time    0.0103: real time    0.0103
    --------------------------------------------
      LOOP:  cpu time   34.7200: real time   34.7909

 eigenvalue-minimisations  :  1454
 total energy-change (2. order) :-0.7240146E-04  (-0.4436150E-06)
 number of electron     323.9999997 magnetization 
 augmentation part      -21.2057717 magnetization 

 Broyden mixing:
[...]
 -0.000  -0.000   0.000  -0.000   0.000   0.011   0.000   0.000
  0.000  -0.000  -0.000   0.000   0.000   0.000   0.011  -0.000
  0.000   0.000   0.000   0.000   0.000   0.000  -0.000   0.011
  0.001  -0.000  -0.000  -0.000   0.000   0.000   0.000  -0.000
  0.000   0.000   0.015   0.001  -0.000   0.000  -0.000   0.000
 -0.009  -0.000  -0.000   0.019  -0.000   0.000   0.000  -0.000
  0.000  -0.000  -0.000  -0.000   0.015   0.000   0.000   0.000
  0.001   0.000  -0.001   0.000  -0.000  -0.000   0.000   0.000
 total augmentation occupancy for first ion, spin component:           1
  1.933   0.213  -0.002  -0.199  -0.004  -0.004  -0.039   0.004  -0.001   0.001   0.005  -0.001  -0.002
  0.213   1.318   0.018   0.937   0.004  -0.019  -0.369  -0.011   0.002   0.003  -0.020   0.001   0.007
 -0.002   0.018   1.336   0.002  -0.008  -0.485  -0.012   0.007   0.003   0.116   0.002  -0.002   0.042
 -0.199   0.937   0.002   1.502  -0.011  -0.012  -0.533  -0.000  -0.004   0.005   0.036   0.000  -0.002
 -0.004   0.004  -0.008  -0.011   1.332   0.007  -0.001  -0.476   0.048  -0.002  -0.000   0.117  -0.001
 -0.004  -0.019  -0.485  -0.012   0.007   0.291   0.005   0.001  -0.000  -0.040   0.001   0.001  -0.006
 -0.039  -0.369  -0.012  -0.533  -0.001   0.005   0.285   0.001  -0.000  -0.003  -0.045   0.000   0.000
  0.004  -0.011   0.007  -0.000  -0.476   0.001   0.001   0.298  -0.009   0.001   0.000  -0.038   0.000
 -0.001   0.002   0.003  -0.004   0.048  -0.000  -0.000  -0.009   0.019  -0.000   0.000  -0.000  -0.000
  0.001   0.003   0.116   0.005  -0.002  -0.040  -0.003   0.001  -0.000   0.018   0.001  -0.000  -0.001
  0.005  -0.020   0.002   0.036  -0.000   0.001  -0.045   0.000   0.000   0.001   0.019  -0.000  -0.001
 -0.001   0.001  -0.002   0.000   0.117   0.001   0.000  -0.038  -0.000  -0.000  -0.000   0.018  -0.000
 -0.002   0.007   0.042  -0.002  -0.001  -0.006   0.000   0.000  -0.000  -0.001  -0.001  -0.000   0.020


------------------------ aborting loop because EDIFF is reached ----------------------------------------


    CHARGE:  cpu time    1.1544: real time    1.1590
    FORLOC:  cpu time    0.0757: real time    0.0758
    FORNL :  cpu time   13.8776: real time   13.9084
    STRESS:  cpu time   72.2857: real time   72.4376
    FORCOR:  cpu time    0.3069: real time    0.3071
    FORHAR:  cpu time    0.1266: real time    0.1267
    MIXING:  cpu time    0.0074: real time    0.0074
    OFIELD:  cpu time    0.0000: real time    0.0000

  Number of pair interactions contributing to vdW energy:  267696
  Edisp (eV):  -19.30317
    FORVDW:  cpu time    0.0294: real time    0.0294

  FORCE on cell =-STRESS in cart. coord.  units (eV):
  Direction    XX          YY          ZZ          XY          YZ          ZX
  --------------------------------------------------------------------------------------
  Alpha Z   244.29776   244.29776   244.29776
  Ewald   71070.23537 70933.46812-80112.16041    19.37349   -47.59290   -38.58060
  Hartree 73361.60041 73325.97147-72961.63835     6.80152    -7.99109    -3.50535
  E(xc)   -1353.92423 -1351.20934 -1370.78702    -0.21465     1.23563     1.67554
  Local  ************************148017.18738   -25.42917    53.73661    41.20409
  n-local  3546.16307  3548.82877  3727.85784    -2.39372    -8.07928   -11.63774
  augment  -758.79576  -762.42148  -800.36701     0.85802     1.03550     1.91473
  Kinetic  3300.42856  3265.34635  3256.93708     8.28103    -8.06620    -6.64639
  Fock        0.00000     0.00000     0.00000     0.00000     0.00000     0.00000
  vdW       -12.71343   -12.43530    -9.05354     0.06007    -0.54835     0.58586
  -------------------------------------------------------------------------------------
  Total      11.30248   -26.67048    -7.72626     7.33659   -16.27007   -14.98986
  in kB       6.16427   -14.54583    -4.21383     4.00130    -8.87354    -8.17533
  external pressure =       -4.20 kB  Pullay stress =        0.00 kB

  kinetic pressure (ideal gas correction) =      0.21 kB
  total pressure  =     -3.99 kB
  Total+kin.     6.469     -14.354      -4.078       4.015      -8.845      -8.171

 VOLUME and BASIS-vectors are now :
 -----------------------------------------------------------------------------
  energy-cutoff  :      550.00
  volume of cell :     2937.67
      direct lattice vectors                 reciprocal lattice vectors
    10.390130968  0.000000000  0.000000000     0.096245178  0.054974811 -0.003078582
    -5.375752041  9.411404976  0.000000000     0.000000000  0.106254061 -0.001679356
     0.689734228  0.474815360 30.041907668     0.000000000  0.000000000  0.033286834

  length of vectors
    10.390130968 10.838507906 30.053575482     0.110882107  0.106267332  0.033286834


 FORCES acting on ions
    electron-ion (+dipol)            ewald-force                    non-local-force                 convergence-correction
 -----------------------------------------------------------------------------------------------
   0.115E+01 0.201E+01 0.829E+03   -.123E+01 -.196E+01 -.834E+03   0.235E+00 -.165E+00 0.536E+01   -.133E-03 0.562E-03 -.703E-03
   -.412E+00 0.360E+01 0.829E+03   0.309E+00 -.362E+01 -.835E+03   0.399E+00 0.567E-01 0.569E+01   0.503E-03 0.529E-03 0.529E-03
   -.202E+01 -.579E+00 0.831E+03   0.193E+01 0.566E+00 -.836E+03   0.630E+00 0.178E+00 0.532E+01   0.768E-03 -.459E-03 -.713E-03
   0.191E+01 0.124E+00 0.828E+03   -.197E+01 -.111E+00 -.834E+03   0.105E+00 0.237E+00 0.567E+01   0.801E-03 0.632E-04 0.301E-04
   0.110E+00 0.223E+01 0.829E+03   -.130E+00 -.227E+01 -.835E+03   0.290E+00 0.230E+00 0.569E+01   -.981E-03 0.403E-03 0.164E-03
   -.405E+00 0.153E+01 0.833E+03   0.342E+00 -.155E+01 -.838E+03   0.353E+00 0.160E+00 0.538E+01   0.136E-03 -.573E-03 0.446E-03
   -.236E+01 -.107E+00 0.827E+03   0.238E+01 0.809E-01 -.833E+03   0.380E+00 0.265E+00 0.548E+01   -.644E-03 -.756E-05 0.306E-03
   -.575E+00 0.314E+01 0.829E+03   0.510E+00 -.319E+01 -.835E+03   0.358E+00 0.142E+00 0.537E+01   0.465E-03 -.794E-03 -.764E-04
   0.167E+01 -.136E+01 0.830E+03   -.171E+01 0.135E+01 -.836E+03   0.140E+00 0.232E+00 0.539E+01   -.891E-03 0.131E-03 -.787E-03
   0.127E+01 0.233E+00 -.113E+03   -.139E+01 -.257E+00 0.108E+03   0.216E+00 0.567E-01 0.554E+01   0.132E-02 0.378E-03 -.429E-04
   -.130E+01 0.300E+01 -.111E+03   0.119E+01 -.300E+01 0.106E+03   0.435E+00 -.204E+00 0.553E+01   -.191E-02 0.743E-03 -.319E-03
   0.506E+00 0.431E+01 -.114E+03   -.551E+00 -.439E+01 0.109E+03   0.205E+00 -.102E+00 0.565E+01   0.157E-03 -.138E-02 0.331E-03
   -.663E-01 0.445E+01 -.111E+03   0.356E-02 -.453E+01 0.106E+03   0.324E+00 -.739E-01 0.523E+01   -.455E-03 0.907E-03 0.680E-03
   0.263E+01 -.105E+01 -.114E+03   -.266E+01 0.104E+01 0.108E+03   0.617E-01 0.262E+00 0.554E+01   0.106E-02 -.142E-02 -.456E-04
   0.105E+01 0.224E+01 -.112E+03   -.107E+01 -.236E+01 0.107E+03   0.877E-01 0.174E+00 0.542E+01   0.105E-02 0.147E-02 -.166E-03
   -.140E+01 0.141E+01 -.113E+03   0.141E+01 -.142E+01 0.108E+03   0.303E+00 -.384E-01 0.548E+01   -.788E-03 -.129E-02 0.358E-03
   -.107E+01 -.293E+01 -.113E+03   0.104E+01 0.294E+01 0.108E+03   0.310E+00 0.281E+00 0.560E+01   0.820E-03 0.230E-03 0.898E-03
   -.127E+01 0.528E+01 -.112E+03   0.120E+01 -.532E+01 0.107E+03   0.329E+00 -.385E+00 0.543E+01   -.117E-02 0.421E-03 0.474E-03
   0.432E+01 0.314E+01 0.114E+03   -.431E+01 -.297E+01 -.109E+03   -.478E+00 -.589E+00 -.529E+01   -.729E-04 0.511E-03 0.394E-03
   0.104E+00 0.303E+01 0.115E+03   -.147E-01 -.284E+01 -.110E+03   -.254E+00 -.457E+00 -.561E+01   0.486E-03 0.590E-03 -.885E-03
   -.591E+00 0.138E+01 0.113E+03   0.637E+00 -.124E+01 -.107E+03   -.558E-01 -.336E+00 -.564E+01   0.790E-03 -.424E-03 0.306E-03
   -.127E+00 0.443E+01 0.114E+03   0.198E+00 -.434E+01 -.109E+03   -.810E-01 -.406E+00 -.552E+01   0.753E-03 0.109E-03 -.175E-03
   0.451E+01 0.146E+01 0.114E+03   -.448E+01 -.128E+01 -.108E+03   -.499E+00 -.285E+00 -.562E+01   -.941E-03 0.366E-03 -.328E-03
   0.320E+01 0.285E+01 0.110E+03   -.317E+01 -.270E+01 -.105E+03   -.470E+00 -.456E+00 -.540E+01   0.103E-03 -.488E-03 -.694E-03
   0.186E+00 0.256E+01 0.113E+03   -.516E-01 -.241E+01 -.108E+03   -.434E+00 -.464E+00 -.555E+01   -.733E-03 0.987E-04 -.475E-03
   -.857E+00 0.926E+00 0.111E+03   0.939E+00 -.767E+00 -.105E+03   -.174E+00 -.140E+00 -.563E+01   0.458E-03 -.792E-03 -.280E-04
   0.113E+01 -.105E+01 0.114E+03   -.102E+01 0.121E+01 -.109E+03   -.309E+00 -.209E+00 -.553E+01   -.931E-03 0.634E-04 0.508E-03
   0.154E+00 0.161E+01 -.830E+03   -.129E+00 -.156E+01 0.835E+03   -.740E-01 -.257E+00 -.554E+01   0.134E-02 0.369E-03 0.342E-03
   0.286E+01 0.483E+01 -.832E+03   -.280E+01 -.470E+01 0.837E+03   -.575E+00 -.676E+00 -.521E+01   -.188E-02 0.606E-03 0.856E-03
   0.466E+00 0.245E+01 -.828E+03   -.383E+00 -.231E+01 0.834E+03   -.207E+00 -.449E+00 -.544E+01   0.354E-04 -.134E-02 -.466E-06
   -.116E+01 0.359E+01 -.832E+03   0.125E+01 -.350E+01 0.837E+03   -.433E-01 -.397E+00 -.548E+01   -.578E-03 0.849E-03 -.533E-03
   0.225E+00 0.250E+01 -.831E+03   -.303E-01 -.240E+01 0.836E+03   -.394E+00 -.345E+00 -.547E+01   0.102E-02 -.135E-02 0.502E-03
   0.887E+00 -.165E+01 -.831E+03   -.769E+00 0.180E+01 0.836E+03   -.320E+00 -.133E+00 -.549E+01   0.105E-02 0.145E-02 0.286E-03
   0.348E+01 0.361E+01 -.830E+03   -.342E+01 -.349E+01 0.835E+03   -.413E+00 -.543E+00 -.551E+01   -.843E-03 -.123E-02 -.132E-03
   0.293E+01 0.266E+01 -.830E+03   -.280E+01 -.260E+01 0.835E+03   -.615E+00 -.400E+00 -.541E+01   0.902E-03 0.343E-03 -.797E-03
   0.243E+01 0.322E+01 -.831E+03   -.238E+01 -.311E+01 0.837E+03   -.490E+00 -.492E+00 -.519E+01   -.113E-02 0.291E-03 -.117E-03
   -.228E+00 -.663E+01 0.475E+03   0.189E+00 0.671E+01 -.475E+03   -.109E+00 0.497E+00 0.331E+00   -.154E-03 0.915E-04 -.182E-03
   -.781E-01 -.509E+01 0.474E+03   0.647E-01 0.524E+01 -.474E+03   -.139E+00 0.351E+00 0.117E+00   -.474E-03 0.666E-03 -.260E-03
   -.301E+01 -.134E+01 0.470E+03   0.299E+01 0.138E+01 -.470E+03   -.119E+00 -.738E-01 0.174E+00   0.836E-03 -.605E-03 -.198E-03
   0.848E+00 -.362E+01 0.472E+03   -.872E+00 0.361E+01 -.472E+03   -.383E+00 0.137E+00 0.253E+00   0.864E-03 -.250E-03 -.146E-03
   -.222E+01 -.461E+01 0.471E+03   0.236E+01 0.480E+01 -.472E+03   0.233E+00 0.150E+00 -.256E+00   0.180E-03 0.606E-03 -.319E-03
   -.100E+01 -.612E+00 0.472E+03   0.103E+01 0.689E+00 -.472E+03   0.472E-01 -.617E-01 0.110E+00   -.310E-03 0.103E-03 -.238E-03
   -.353E+01 -.517E+01 0.472E+03   0.357E+01 0.523E+01 -.472E+03   0.226E+00 0.774E-01 0.765E-01   -.841E-03 -.910E-04 -.260E-03
   -.203E+01 -.231E+01 0.468E+03   0.204E+01 0.238E+01 -.468E+03   0.107E-01 -.978E-01 -.770E-01   0.251E-03 -.356E-03 -.336E-03
   0.799E+00 -.175E+01 0.474E+03   -.791E+00 0.179E+01 -.474E+03   -.128E+00 -.156E+00 0.153E+00   -.658E-03 -.423E-03 -.241E-03
   0.202E+01 -.401E+01 -.473E+03   -.206E+01 0.412E+01 0.473E+03   -.476E+00 -.886E-02 0.168E+00   0.867E-03 -.307E-03 0.369E-03
   -.336E+01 -.189E+01 -.469E+03   0.349E+01 0.201E+01 0.469E+03   0.356E+00 -.255E+00 -.174E+00   0.292E-04 0.442E-03 0.256E-03
   -.263E+01 -.316E+01 -.471E+03   0.271E+01 0.327E+01 0.471E+03   0.134E+00 0.598E-01 0.149E+00   0.195E-03 0.451E-03 0.357E-03
   -.301E+01 -.263E+01 -.469E+03   0.301E+01 0.271E+01 0.470E+03   0.278E-01 -.919E-01 0.440E+00   -.488E-03 0.105E-03 0.452E-03
   -.319E+01 -.452E+01 -.473E+03   0.327E+01 0.465E+01 0.473E+03   0.329E+00 0.217E+00 -.246E+00   0.777E-03 -.393E-03 0.300E-03
   0.117E+01 -.496E+01 -.474E+03   -.119E+01 0.509E+01 0.474E+03   -.210E+00 0.344E+00 0.116E+00   -.192E-03 0.377E-03 0.318E-03
   -.155E+01 -.511E+01 -.471E+03   0.154E+01 0.527E+01 0.470E+03   0.183E+00 0.470E+00 -.963E-01   -.630E-03 -.435E-03 0.361E-03
   0.135E+01 -.524E+01 -.473E+03   -.131E+01 0.538E+01 0.473E+03   -.285E+00 0.408E+00 -.338E+00   -.101E-02 0.104E-04 0.259E-03
   -.302E+01 -.274E+01 -.471E+03   0.309E+01 0.290E+01 0.471E+03   0.145E+00 0.349E-01 -.127E+00   -.156E-03 -.357E-03 0.411E-03
 -----------------------------------------------------------------------------------------------
   0.881E+00 0.372E+01 -.102E+01   -.888E-15 0.124E-13 -.165E-11   -.882E+00 -.373E+01 0.101E+01   -.996E-03 -.421E-03 0.130E-02
 
 
 POSITION                                       TOTAL-FORCE (eV/Angst)
 -----------------------------------------------------------------------------------
      0.19391      2.24695      9.64603         0.150406     -0.122013     -0.043857
     -1.62235      5.37833      9.61917         0.281400      0.027901      0.337932
     -3.41811      8.49631      9.63188         0.513086      0.149438     -0.000333
      3.66430      2.22464      9.63365         0.043825      0.235307      0.309978
      1.84608      5.35835      9.62177         0.255749      0.171877      0.350004
      0.06054      8.49857      9.61376         0.279189      0.127833      0.123863
      7.07355      2.22545      9.64989         0.369971      0.220844      0.106236
      5.31162      5.37549      9.64545         0.282408      0.087391      0.039177
      3.52287      8.49718      9.63654         0.089815      0.212053      0.024274
      0.11296      0.79528     16.79037         0.100625     -0.008409      0.039918
      8.67597      3.93031     16.77514         0.311675     -0.237915      0.123955
     -3.49038      7.06618     16.78538         0.151093     -0.222172      0.170757
      3.55278      0.80066     16.78381         0.250827     -0.194893     -0.199096
      1.76894      3.91397     16.78661         0.024541      0.199836      0.107056
     -0.01564      7.05824     16.78522         0.059519      0.017327      0.015036
      7.00913      0.77628     16.78143         0.296013     -0.088097      0.037554
      5.20972      3.91124     16.77274         0.259678      0.241897      0.213737
      3.43926      7.10385     16.77901         0.244454     -0.461797      0.045685
      0.26545      2.29721     13.24958        -0.458602     -0.376662      0.091391
     -1.53612      5.45134     13.26586        -0.161480     -0.226736     -0.256168
     -3.33694      8.58166     13.27595        -0.011266     -0.160887     -0.317717
      3.69233      2.30509     13.27197        -0.017207     -0.282608     -0.145300
      1.95190      5.43618     13.27222        -0.449594     -0.066649     -0.240446
      0.15915      8.58642     13.28363        -0.427943     -0.259673     -0.155150
      7.18956      2.32100     13.27676        -0.291859     -0.276587     -0.189602
      5.38091      5.43434     13.28795        -0.093811      0.053265     -0.267315
      3.59652      8.56138     13.26077        -0.196658     -0.012693     -0.190696
     10.54336      0.84726     20.40366        -0.045737     -0.204289     -0.126732
     -1.59677      3.99058     20.40883        -0.497269     -0.533983      0.118338
      6.95925      7.11969     20.38712        -0.124191     -0.305323      0.015675
      3.61077      0.85673     20.41014         0.046883     -0.301994     -0.156030
      1.81967      3.98725     20.41366        -0.202683     -0.242914     -0.119417
      0.03300      7.10123     20.40881        -0.201936      0.009641     -0.134269
      7.08172      0.85489     20.40504        -0.349380     -0.416137     -0.157204
      5.31831      3.97924     20.40389        -0.470688     -0.338093     -0.043839
      3.52703      7.12655     20.39551        -0.425841     -0.375671      0.188279
     -5.09832      9.56609     11.42570        -0.140071      0.606714      0.344909
     -1.51727      3.30524     11.44023        -0.160770      0.509257      0.030605
     -3.31406      6.47143     11.44630        -0.127342     -0.032454      0.197464
     -1.61192      9.58520     11.43487        -0.438797      0.146173      0.277224
      1.92784      3.31586     11.46568         0.390671      0.343260     -0.476112
      0.15075      6.47785     11.44079         0.084360      0.000850      0.095138
      7.17633      0.18296     11.44778         0.312001      0.157015     -0.019462
      5.39326      3.34645     11.47073         0.032939     -0.025711     -0.103706
      3.61968      6.46850     11.44078        -0.130849     -0.118837      0.111685
      1.87953      1.87776     18.58665        -0.556593      0.103163      0.274190
      0.02786      5.02101     18.59762         0.518674     -0.144940     -0.338219
     -1.74134      8.15479     18.57942         0.226317      0.169773      0.182247
      5.30248      1.87370     18.55897         0.060155     -0.008220      0.606820
      3.50096      5.00793     18.60547         0.431307      0.348747     -0.297626
      1.73942      8.11969     18.58883        -0.247459      0.490892      0.228162
      8.76735      1.84716     18.59359         0.202298      0.643323     -0.183336
      7.00248      4.97307     18.60943        -0.276000      0.570617     -0.442124
      5.18371      8.14931     18.59342         0.232662      0.199481     -0.203940
 -----------------------------------------------------------------------------------
    total drift:                               -0.001485     -0.002486     -0.000409


--------------------------------------------------------------------------------------------------------



  FREE ENERGIE OF THE ION-ELECTRON SYSTEM (eV)
  ---------------------------------------------------
  free  energy   TOTEN  =      -342.55463576 eV

  energy  without entropy=     -342.55463576  energy(sigma->0) =     -342.55463576
 
 d Force =-0.2328893E-01[-0.254E-01,-0.211E-01]  d Energy =-0.2325696E-01-0.320E-04
 d Force =-0.6866161E+01[-0.688E+01,-0.686E+01]  d Ewald  =-0.6866159E+01-0.275E-05


--------------------------------------------------------------------------------------------------------


    POTLOK:  cpu time    0.2904: real time    0.2906


--------------------------------------------------------------------------------------------------------


           RANDOM_SEED =         224942537              324                0
   IONSTEP:  cpu time    0.0001: real time    0.0001

  ENERGY OF THE ELECTRON-ION-THERMOSTAT SYSTEM (eV)
  ---------------------------------------------------
% ion-electron   TOTEN  =      -342.554636  see above
  kinetic energy EKIN   =         0.572206
  kin. lattice  EKIN_LAT=         0.000000  (temperature   83.52 K)
  nose potential ES     =        -0.026246
  nose kinetic   EPS    =         0.003148
  ---------------------------------------------------
  total energy   ETOTAL =      -342.005527 eV

  maximum distance moved by ions :      0.51E-03


 mean value of Nose-termostat <S>:     0.973 mean value of <T> :    83.524
 mean temperature <T/S>/<1/S>  :    83.524

    WAVPRE:  cpu time    0.1019: real time    0.1043
    FEWALD:  cpu time    0.0012: real time    0.0012
    ORTHCH:  cpu time    8.0712: real time    8.0915
    POTLOK:  cpu time    0.2920: real time    0.2922
    EDDIAG:  cpu time    2.5144: real time    2.5203
     LOOP+:  cpu time  477.6808: real time  478.8169
    4ORBIT:  cpu time    0.0000: real time    0.0000

 total amount of memory used by VASP MPI-rank0   364037. kBytes
=======================================================================

   base      :      30000. kBytes
   nonl-proj :     198328. kBytes
   fftplans  :      17372. kBytes
   grid      :      82746. kBytes
   one-center:        839. kBytes
   wavefun   :      34752. kBytes
 
  
  
 General timing and accounting informations for this job:
 ========================================================
  
                  Total CPU time used (sec):     5682.558
                            User time (sec):     5671.075
                          System time (sec):       11.483
                         Elapsed time (sec):     5695.503
  
                   Maximum memory used (kb):      806460.
                   Average memory used (kb):           0.
  
                          Minor page faults:       364497
                          Major page faults:            0
                 Voluntary context switches:         1016
