 vasp.6.1.1 19Jun20 (build Dec 21 2021 08:45:49) complex                        
  
 executed on             LinuxIFC date 2023.10.08  14:30:05
 running on   40 total cores
 distrk:  each k-point on   40 cores,    1 groups
 distr:  one band on NCORE=   1 cores,   40 groups


--------------------------------------------------------------------------------------------------------


 INCAR:
 POTCAR:   PAW_PBE Te 08Apr2002                   
 POTCAR:   PAW_PBE Mo 08Apr2002                   
 -----------------------------------------------------------------------------
|                                                                             |
|           W    W    AA    RRRRR   N    N  II  N    N   GGGG   !!!           |
|           W    W   A  A   R    R  NN   N  II  NN   N  G    G  !!!           |
|           W    W  A    A  R    R  N N  N  II  N N  N  G       !!!           |
|           W WW W  AAAAAA  RRRRR   N  N N  II  N  N N  G  GGG   !            |
|           WW  WW  A    A  R   R   N   NN  II  N   NN  G    G                |
|           W    W  A    A  R    R  N    N  II  N    N   GGGG   !!!           |
|                                                                             |
|     For optimal performance we recommend to set                             |
|       NCORE = 4 - approx SQRT(number of cores).                             |
|     NCORE specifies how many cores store one orbital (NPAR=cpu/NCORE).      |
|     This setting can greatly improve the performance of VASP for DFT.       |
|     The default, NCORE=1 might be grossly inefficient on modern             |
|     multi-core architectures or massively parallel machines. Do your        |
|     own testing!!!!                                                         |
|     Unfortunately you need to use the default for GW and RPA                |
|     calculations (for HF NCORE is supported but not extensively tested      |
|     yet).                                                                   |
|                                                                             |
 -----------------------------------------------------------------------------

 POTCAR:   PAW_PBE Te 08Apr2002                   
   VRHFIN =Te: s2p4                                                                                 
   LEXCH  = PE                                                                                      
   EATOM  =   223.2721 eV,   16.4100 Ry                                                             
                                                                                                    
   TITEL  = PAW_PBE Te 08Apr2002                                                                    
   LULTRA =        F    use ultrasoft PP ?                                                          
   IUNSCR =        1    unscreen: 0-lin 1-nonlin 2-no                                               
   RPACOR =    2.200    partial core radius                                                         
   POMASS =  127.600; ZVAL   =    6.000    mass and valenz                                          
   RCORE  =    2.300    outmost cutoff radius                                                       
   RWIGS  =    2.900; RWIGS  =    1.535    wigner-seitz radius (au A)                               
   ENMAX  =  174.982; ENMIN  =  131.236 eV                                                          
   ICORE  =        3    local potential                                                             
   LCOR   =        T    correct aug charges                                                         
   LPAW   =        T    paw PP                                                                      
   EAUG   =  368.792                                                                                
   DEXC   =    -.169                                                                                
   RMAX   =    3.486    core radius for proj-oper                                                   
   RAUG   =    1.300    factor for augmentation sphere                                              
   RDEP   =    2.397    radius for radial grids                                                     
   QCUT   =   -3.586; QGAM   =    7.172    optimization parameters                                  
                                                                                                    
   Description                                                                                      
     l     E      TYP  RCUT    TYP  RCUT                                                            
     0   .000     23  2.300                                                                         
     0   .000     23  2.300                                                                         
     1   .000     23  2.300                                                                         
     1   .000     23  2.300                                                                         
     2   .000     23  2.300                                                                         
     3  -.100     23  2.300                                                                         
  local pseudopotential read in
  partial core-charges read in
  atomic valenz-charges read in
  non local Contribution for L=           0  read in
    real space projection operators read in
  non local Contribution for L=           0  read in
    real space projection operators read in
  non local Contribution for L=           1  read in
    real space projection operators read in
  non local Contribution for L=           1  read in
    real space projection operators read in
  non local Contribution for L=           2  read in
    real space projection operators read in
    PAW grid and wavefunctions read in
 
   number of l-projection  operators is LMAX  =           5
   number of lm-projection operators is LMMAX =          13
 
 POTCAR:   PAW_PBE Mo 08Apr2002                   
   VRHFIN =Mo: 4p5s4d                                                                               
   LEXCH  = PE                                                                                      
   EATOM  =   217.5180 eV,   15.9871 Ry                                                             
                                                                                                    
   TITEL  = PAW_PBE Mo 08Apr2002                                                                    
   LULTRA =        F    use ultrasoft PP ?                                                          
   IUNSCR =        1    unscreen: 0-lin 1-nonlin 2-no                                               
   RPACOR =    2.200    partial core radius                                                         
   POMASS =   95.940; ZVAL   =    6.000    mass and valenz                                          
   RCORE  =    2.750    outmost cutoff radius                                                       
   RWIGS  =    2.750; RWIGS  =    1.455    wigner-seitz radius (au A)                               
   ENMAX  =  224.584; ENMIN  =  168.438 eV                                                          
   RCLOC  =    2.111    cutoff for local pot                                                        
   LCOR   =        T    correct aug charges                                                         
   LPAW   =        T    paw PP                                                                      
   EAUG   =  345.278                                                                                
   DEXC   =    -.088                                                                                
   RMAX   =    3.077    core radius for proj-oper                                                   
   RAUG   =    1.300    factor for augmentation sphere                                              
   RDEP   =    2.815    radius for radial grids                                                     
   QCUT   =   -4.063; QGAM   =    8.126    optimization parameters                                  
                                                                                                    
   Description                                                                                      
     l     E      TYP  RCUT    TYP  RCUT                                                            
     2   .000     23  2.500                                                                         
     2   .000     23  2.500                                                                         
     0   .000     23  2.600                                                                         
     0  1.000     23  2.600                                                                         
     1   .400     23  2.750                                                                         
     1  2.000     23  2.750                                                                         
     3   .000      7   .000                                                                         
  local pseudopotential read in
  partial core-charges read in
  atomic valenz-charges read in
  non local Contribution for L=           2  read in
    real space projection operators read in
  non local Contribution for L=           2  read in
    real space projection operators read in
  non local Contribution for L=           0  read in
    real space projection operators read in
  non local Contribution for L=           0  read in
    real space projection operators read in
  non local Contribution for L=           1  read in
    real space projection operators read in
  non local Contribution for L=           1  read in
    real space projection operators read in
    PAW grid and wavefunctions read in
 
   number of l-projection  operators is LMAX  =           6
   number of lm-projection operators is LMMAX =          18
 
 -----------------------------------------------------------------------------
|                                                                             |
|               ----> ADVICE to this user running VASP <----                  |
|                                                                             |
|     You have a (more or less) 'large supercell' and for larger cells it     |
|     might be more efficient to use real-space projection operators.         |
|     Therefore, try LREAL= Auto in the INCAR file.                           |
|     Mind: If you want to do very accurate calculations, keep the            |
|     reciprocal projection scheme (i.e. LREAL=.FALSE.).                      |
|                                                                             |
 -----------------------------------------------------------------------------

 PAW_PBE Te 08Apr2002                   :
 energy of atom  1       EATOM= -223.2721
 kinetic energy error for atom=    0.0006 (will be added to EATOM!!)
 PAW_PBE Mo 08Apr2002                   :
 energy of atom  2       EATOM= -217.5180
 kinetic energy error for atom=    0.0009 (will be added to EATOM!!)
 
 
 POSCAR: Te Mo
  positions in cartesian coordinates
  No initial velocities read in
 exchange correlation table for  LEXCH =        8
   RHO(1)=    0.500       N(1)  =     2000
   RHO(2)=  100.500       N(2)  =     4000
 


--------------------------------------------------------------------------------------------------------


 ion  position               nearest neighbor table
   1  0.111  0.223  0.316-  38 2.71  41 2.71  37 2.82   7 3.45   4 3.46   2 3.56   5 3.57   9 3.58
                             3 3.58  19 3.68
   2  0.111  0.555  0.316-  39 2.71  42 2.71  38 2.80   8 3.46   5 3.46   1 3.56   7 3.57   3 3.57
                             6 3.58  20 3.67
   3  0.112  0.889  0.316-  40 2.71  37 2.72  39 2.81   6 3.45   9 3.46   4 3.56   2 3.57   1 3.58
                             8 3.58  21 3.68
   4  0.444  0.221  0.316-  41 2.70  44 2.71  40 2.81   7 3.45   1 3.46   6 3.56   3 3.56   8 3.57
                             5 3.58  22 3.67
   5  0.445  0.555  0.316-  45 2.71  42 2.72  41 2.81   8 3.45   2 3.46   1 3.57   9 3.57   4 3.58
                             6 3.58  23 3.68
   6  0.445  0.890  0.316-  43 2.71  40 2.71  42 2.82   3 3.45   9 3.45   4 3.56   7 3.57   5 3.58
                             2 3.58  24 3.68
   7  0.778  0.222  0.316-  38 2.71  44 2.71  43 2.82   4 3.45   1 3.45   2 3.57   6 3.57   8 3.57
                             9 3.57  25 3.68
   8  0.777  0.555  0.316-  45 2.72  39 2.72  44 2.81   5 3.45   2 3.46   7 3.57   4 3.57   9 3.57
                             3 3.58  26 3.68
   9  0.778  0.889  0.316-  37 2.71  43 2.71  45 2.81   6 3.45   3 3.46   5 3.57   7 3.57   8 3.57
                             1 3.58  27 3.67
  10  0.000  0.166  0.563-  46 2.71  52 2.71  54 2.81  13 3.45  16 3.46  12 3.57  18 3.57  14 3.57
                            11 3.57  28 3.67
  11  1.000  0.500  0.563-  53 2.71  47 2.71  52 2.81  17 3.45  14 3.46  16 3.57  10 3.57  12 3.58
                            15 3.58  29 3.67
  12  1.000  0.834  0.563-  48 2.71  54 2.71  53 2.81  18 3.46  15 3.46  10 3.57  17 3.57  13 3.58
                            11 3.58  30 3.68
  13  0.333  0.167  0.563-  49 2.71  46 2.71  48 2.81  10 3.45  16 3.46  14 3.57  15 3.57  12 3.58
                            17 3.58  31 3.67
  14  0.333  0.500  0.563-  50 2.71  47 2.71  46 2.81  11 3.46  17 3.46  13 3.57  10 3.57  18 3.58
                            15 3.58  32 3.68
  15  0.334  0.834  0.563-  51 2.71  48 2.72  47 2.82  18 3.45  12 3.46  16 3.57  13 3.57  14 3.58
                            11 3.58
  16  0.667  0.167  0.563-  52 2.71  49 2.71  51 2.81  13 3.46  10 3.46  15 3.57  18 3.57  11 3.57
                            17 3.58  34 3.68
  17  0.667  0.501  0.563-  53 2.70  50 2.71  49 2.82  11 3.45  14 3.46  12 3.57  18 3.57  16 3.58
                            13 3.58  35 3.67
  18  0.667  0.834  0.563-  51 2.71  54 2.71  50 2.82  15 3.45  12 3.46  16 3.57  10 3.57  17 3.57
                            14 3.58  36 3.68
  19  0.111  0.222  0.437-  37 2.74  38 2.75  41 2.75  22 3.46  25 3.46  21 3.57  20 3.57  27 3.57
                            23 3.57   1 3.68
  20  0.111  0.555  0.437-  38 2.74  39 2.74  42 2.74  26 3.45  23 3.46  19 3.57  25 3.57  24 3.58
                            21 3.58   2 3.67
  21  0.112  0.890  0.437-  40 2.74  37 2.74  39 2.74  24 3.45  27 3.45  22 3.57  19 3.57  20 3.58
                            26 3.58   3 3.68
  22  0.445  0.222  0.437-  40 2.74  41 2.75  44 2.75  25 3.45  19 3.46  21 3.57  26 3.57  24 3.57
                            23 3.57   4 3.67
  23  0.444  0.556  0.437-  45 2.74  41 2.75  42 2.75  26 3.46  20 3.46  19 3.57  22 3.57  24 3.57
                            27 3.58   5 3.68
  24  0.444  0.889  0.437-  40 2.74  42 2.74  43 2.74  21 3.45  27 3.46  22 3.57  25 3.57  23 3.57
                            20 3.58   6 3.68
  25  0.778  0.222  0.437-  43 2.75  44 2.75  38 2.76  22 3.45  19 3.46  26 3.57  27 3.57  20 3.57
                            24 3.57   7 3.68
  26  0.778  0.555  0.437-  44 2.74  45 2.74  39 2.75  20 3.45  23 3.46  25 3.57  22 3.57  27 3.58
                            21 3.58   8 3.68
  27  0.778  0.889  0.437-  45 2.74  37 2.74  43 2.75  21 3.45  24 3.46  19 3.57  25 3.57  26 3.58
                            23 3.58   9 3.67
  28  1.000  0.167  0.684-  52 2.74  54 2.74  46 2.75  34 3.45  31 3.46  29 3.57  32 3.57  36 3.57
                            30 3.58  10 3.67
  29  0.000  0.500  0.684-  52 2.74  47 2.74  53 2.75  32 3.46  35 3.46  30 3.57  28 3.57  34 3.57
                            33 3.58  11 3.67
  30  0.000  0.833  0.684-  53 2.75  54 2.75  48 2.76  33 3.46  36 3.46  29 3.57  35 3.57  31 3.57
                            28 3.58  12 3.68
  31  0.334  0.167  0.684-  48 2.74  49 2.74  46 2.75  34 3.45  28 3.46  33 3.57  30 3.57  32 3.57
                            35 3.58  13 3.67
  32  0.333  0.500  0.684-  46 2.74  50 2.75  47 2.75  35 3.45  29 3.46  36 3.57  28 3.57  31 3.57
                            33 3.57  14 3.68
  33  0.334  0.834  0.684-  47 2.75  51 2.75  48 2.76  36 3.45  30 3.46  34 3.57  31 3.57  32 3.57
                            29 3.58
  34  0.667  0.167  0.684-  51 2.74  49 2.75  52 2.75  31 3.45  28 3.45  33 3.57  36 3.57  35 3.57
                            29 3.57  16 3.68
  35  0.667  0.500  0.684-  49 2.74  50 2.74  53 2.75  32 3.45  29 3.46  36 3.57  30 3.57  34 3.57
                            31 3.58  17 3.67
  36  0.667  0.833  0.684-  50 2.74  54 2.75  51 2.75  33 3.45  30 3.46  35 3.57  34 3.57  32 3.57
                            28 3.57  18 3.68
  37  0.000  0.000  0.376-   9 2.71   3 2.72  19 2.74  21 2.74  27 2.74   1 2.82  40 3.45  43 3.46

  38  0.001  0.334  0.376-   1 2.71   7 2.71  20 2.74  19 2.75  25 2.76   2 2.80  41 3.46  44 3.46

  39  0.000  0.667  0.376-   2 2.71   8 2.72  20 2.74  21 2.74  26 2.75   3 2.81  42 3.45  45 3.46

  40  0.333  1.000  0.376-   3 2.71   6 2.71  24 2.74  21 2.74  22 2.74   4 2.81  43 3.45  37 3.45

  41  0.334  0.333  0.376-   4 2.70   1 2.71  22 2.75  23 2.75  19 2.75   5 2.81  44 3.45  38 3.46

  42  0.333  0.667  0.376-   2 2.71   5 2.72  24 2.74  20 2.74  23 2.75   6 2.82  39 3.45  45 3.46

  43  0.666  1.000  0.376-   6 2.71   9 2.71  24 2.74  25 2.75  27 2.75   7 2.82  40 3.45  37 3.46

  44  0.667  0.333  0.376-   4 2.71   7 2.71  26 2.74  22 2.75  25 2.75   8 2.81  41 3.45  38 3.46

  45  0.666  0.667  0.376-   5 2.71   8 2.72  27 2.74  23 2.74  26 2.74   9 2.81  42 3.46  39 3.46

  46  0.222  0.278  0.624-  10 2.71  13 2.71  32 2.74  28 2.75  31 2.75  14 2.81  52 3.45  49 3.46

  47  0.222  0.611  0.624-  11 2.71  14 2.71  29 2.74  32 2.75  33 2.75  15 2.82  50 3.45  53 3.45

  48  0.222  0.945  0.624-  12 2.71  15 2.72  31 2.74  30 2.76  33 2.76  13 2.81  54 3.46  51 3.46

  49  0.555  0.278  0.624-  13 2.71  16 2.71  35 2.74  31 2.74  34 2.75  17 2.82  46 3.46  52 3.46

  50  0.555  0.611  0.624-  17 2.71  14 2.71  36 2.74  35 2.74  32 2.75  18 2.82  47 3.45  53 3.46

  51  0.556  0.945  0.624-  18 2.71  15 2.71  34 2.74  36 2.75  33 2.75  16 2.81  54 3.45  48 3.46

  52  0.889  0.278  0.624-  16 2.71  10 2.71  29 2.74  28 2.74  34 2.75  11 2.81  46 3.45  49 3.46

  53  0.889  0.611  0.624-  17 2.70  11 2.71  35 2.75  29 2.75  30 2.75  12 2.81  47 3.45  50 3.46

  54  0.889  0.944  0.624-  18 2.71  12 2.71  28 2.74  36 2.75  30 2.75  10 2.81  51 3.45  48 3.46

 

IMPORTANT INFORMATION: All symmetrisations will be switched off!
NOSYMM: (Re-)initialisation of all symmetry stuff for point group C_1.


----------------------------------------------------------------------------------------

                                     Primitive cell                                     

  volume of cell :    2955.5990

  direct lattice vectors                    reciprocal lattice vectors
    10.366427261  0.000000000  0.000000000     0.096465250  0.053269266  0.001416244
    -5.179984024  9.380426860  0.000000000     0.000000000  0.106604957  0.002727659
    -0.016782370 -0.777690059 30.394415833     0.000000000  0.000000000  0.032900780

  length of vectors
    10.366427261 10.715626093 30.404368063     0.110205104  0.106639847  0.032900780

  position of ions in fractional coordinates (direct lattice)
     0.111191601  0.222607886  0.315706921
     0.110588294  0.554947892  0.315949122
     0.111796392  0.888826156  0.315788268
     0.444167041  0.221486763  0.315933645
     0.444571286  0.555453066  0.315729838
     0.444699718  0.889511778  0.315782795
     0.777766662  0.222275098  0.315836794
     0.777143692  0.555079547  0.315600750
     0.777611816  0.888813834  0.315963843
     0.000048383  0.166333972  0.563369295
     0.999946470  0.499870701  0.563263434
     0.999960666  0.833524143  0.563370345
     0.333471292  0.167082571  0.563382428
     0.333295219  0.499896849  0.563251445
     0.333881050  0.833957410  0.563139034
     0.666676060  0.166653834  0.563287891
     0.667258063  0.500569195  0.563361425
     0.666619237  0.833643346  0.563330694
     0.111267899  0.222317926  0.436646364
     0.110699086  0.555160707  0.436537214
     0.111690554  0.889566274  0.436668851
     0.444592348  0.222324399  0.436693484
     0.444428305  0.555591873  0.436737531
     0.444108595  0.888976476  0.436663416
     0.777522742  0.222104543  0.436870344
     0.777674826  0.555264071  0.436614100
     0.778281664  0.889233236  0.436702357
     0.999921340  0.166809985  0.684112658
     0.000207745  0.500069390  0.684112217
     0.000286502  0.833211136  0.684428209
     0.333527059  0.166504400  0.684111529
     0.333469423  0.499975374  0.684146511
     0.333992300  0.833738809  0.684383218
     0.666643937  0.166636869  0.684193545
     0.666899233  0.500273858  0.684099213
     0.666591484  0.833309601  0.684201466
     0.000176852  0.000068108  0.376355906
     0.000570301  0.333863618  0.376058319
     0.000368846  0.666966928  0.376351567
     0.333214108  0.999765516  0.376344704
     0.333902184  0.333319747  0.376043823
     0.333105013  0.666940566  0.376314073
     0.665893659  0.999588258  0.376392535
     0.666711833  0.333434921  0.376225707
     0.666478856  0.666792362  0.376437204
     0.222108544  0.277928146  0.623675109
     0.222220990  0.611112592  0.623753296
     0.222447679  0.945306478  0.623583606
     0.555430187  0.277886662  0.623755087
     0.555483764  0.611103840  0.623782466
     0.556103298  0.944796991  0.623649837
     0.889037801  0.277849497  0.623783189
     0.888926106  0.611061612  0.623689655
     0.888636187  0.944409013  0.623807516

  ion indices of the primitive-cell ions
   primitive index   ion index
                 1           1
                 2           2
                 3           3
                 4           4
                 5           5
                 6           6
                 7           7
                 8           8
                 9           9
                10          10
                11          11
                12          12
                13          13
                14          14
                15          15
                16          16
                17          17
                18          18
                19          19
                20          20
                21          21
                22          22
                23          23
                24          24
                25          25
                26          26
                27          27
                28          28
                29          29
                30          30
                31          31
                32          32
                33          33
                34          34
                35          35
                36          36
                37          37
                38          38
                39          39
                40          40
                41          41
                42          42
                43          43
                44          44
                45          45
                46          46
                47          47
                48          48
                49          49
                50          50
                51          51
                52          52
                53          53
                54          54

----------------------------------------------------------------------------------------

 
 

Automatic generation of k-mesh.
 generate k-points for:    3    3    1
Space group operators:
 irot       det(A)        alpha          n_x          n_y          n_z        tau_x        tau_y        tau_z
    1     1.000000     0.000001     1.000000     0.000000     0.000000     0.000000     0.000000     0.000000
 
 Subroutine IBZKPT returns following result:
 ===========================================
 
 Found      5 irreducible k-points:
 
 Following reciprocal coordinates:
            Coordinates               Weight
  0.000000  0.000000  0.000000      1.000000
  0.333333 -0.000000 -0.000000      2.000000
  0.000000  0.333333  0.000000      2.000000
  0.333333  0.333333 -0.000000      2.000000
 -0.333333  0.333333  0.000000      2.000000
 
 Following cartesian coordinates:
            Coordinates               Weight
  0.000000  0.000000  0.000000      1.000000
  0.032155  0.017756  0.000472      2.000000
  0.000000  0.035535  0.000909      2.000000
  0.032155  0.053291  0.001381      2.000000
 -0.032155  0.017779  0.000437      2.000000
 


--------------------------------------------------------------------------------------------------------




 Dimension of arrays:
   k-points           NKPTS =      5   k-points in BZ     NKDIM =      5   number of bands    NBANDS=    200
   number of dos      NEDOS =    301   number of ions     NIONS =     54
   non local maximal  LDIM  =      6   non local SUM 2l+1 LMDIM =     18
   total plane-waves  NPLWV = ******
   max r-space proj   IRMAX =      1   max aug-charges    IRDMAX=  35230
   dimension x,y,z NGX =    80 NGY =   84 NGZ =  240
   dimension x,y,z NGXF=   160 NGYF=  168 NGZF=  480
   support grid    NGXF=   160 NGYF=  168 NGZF=  480
   ions per type =              36  18
   NGX,Y,Z   is equivalent  to a cutoff of  12.83, 13.03, 13.12 a.u.
   NGXF,Y,Z  is equivalent  to a cutoff of  25.66, 26.06, 26.25 a.u.

 SYSTEM =  dpgen_md                                
 POSCAR =  Te Mo                                   

 Startparameter for this run:
   NWRITE =      2    write-flag & timer
   PREC   = a         normal or accurate (medium, high low for compatibility)
   ISTART =      0    job   : 0-new  1-cont  2-samecut
   ICHARG =      2    charge: 1-file 2-atom 10-const
   ISPIN  =      1    spin polarized calculation?
   LNONCOLLINEAR =      F non collinear calculations
   LSORBIT =      F    spin-orbit coupling
   INIWAV =      1    electr: 0-lowe 1-rand  2-diag
   LASPH  =      F    aspherical Exc in radial PAW
   METAGGA=      F    non-selfconsistent MetaGGA calc.

 Electronic Relaxation 1
   ENCUT  =  550.0 eV  40.42 Ry    6.36 a.u.  19.82 20.49 58.14*2*pi/ulx,y,z
   ENINI  =  550.0     initial cutoff
   ENAUG  =  368.8 eV  augmentation charge cutoff
   NELM   =    100;   NELMIN=  6; NELMDL= -5     # of ELM steps 
   EDIFF  = 0.1E-05   stopping-criterion for ELM
   LREAL  =      F    real-space projection
   NLSPLINE    = F    spline interpolate recip. space projectors
   LCOMPAT=      F    compatible to vasp.4.4
   GGA_COMPAT  = T    GGA compatible to vasp.4.4-vasp.4.6
   LMAXPAW     = -100 max onsite density
   LMAXMIX     =    2 max onsite mixed and CHGCAR
   VOSKOWN=      0    Vosko Wilk Nusair interpolation
   ROPT   =    0.00000   0.00000
 Ionic relaxation
   EDIFFG = 0.1E-04   stopping-criterion for IOM
   NSW    =     10    number of steps for IOM
   NBLOCK =      1;   KBLOCK =      1    inner block; outer block 
   IBRION =      0    ionic relax: 0-MD 1-quasi-New 2-CG
   NFREE  =      0    steps in history (QN), initial steepest desc. (CG)
   ISIF   =      2    stress and relaxation
   IWAVPR =     11    prediction:  0-non 1-charg 2-wave 3-comb
   ISYM   =      0    0-nonsym 1-usesym 2-fastsym
   LCORR  =      T    Harris-Foulkes like correction to forces

   POTIM  = 2.0000    time-step for ionic-motion
   TEIN   =  100.0    initial temperature
   TEBEG  =  100.0;   TEEND  = 100.0 temperature during run
   SMASS  =   0.04    Nose mass-parameter (am)
   estimated Nose-frequenzy (Omega)   =  0.79E+14 period in steps = 0.40E+02 mass=   0.327E-28a.u.
   SCALEE = 1.0000    scale energy and forces
   NPACO  =    256;   APACO  = 16.0  distance and # of slots for P.C.
   PSTRESS=    0.0 pullay stress

  Mass of Ions in am
   POMASS = 127.60 95.94
  Ionic Valenz
   ZVAL   =   6.00  6.00
  Atomic Wigner-Seitz radii
   RWIGS  =  -1.00 -1.00
  virtual crystal weights 
   VCA    =   1.00  1.00
   NELECT =     324.0000    total number of electrons
   NUPDOWN=      -1.0000    fix difference up-down

 DOS related values:
   EMIN   =  10.00;   EMAX   =-10.00  energy-range for DOS
   EFERMI =   0.00
   ISMEAR =     0;   SIGMA  =   0.10  broadening in eV -4-tet -1-fermi 0-gaus

 Electronic relaxation 2 (details)
   IALGO  =     68    algorithm
   LDIAG  =      T    sub-space diagonalisation (order eigenvalues)
   LSUBROT=      F    optimize rotation matrix (better conditioning)
   TURBO    =      0    0=normal 1=particle mesh
   IRESTART =      0    0=no restart 2=restart with 2 vectors
   NREBOOT  =      0    no. of reboots
   NMIN     =      0    reboot dimension
   EREF     =   0.00    reference energy to select bands
   IMIX   =      4    mixing-type and parameters
     AMIX     =   0.40;   BMIX     =  1.00
     AMIX_MAG =   1.60;   BMIX_MAG =  1.00
     AMIN     =   0.10
     WC   =   100.;   INIMIX=   1;  MIXPRE=   1;  MAXMIX= -45

 Intra band minimization:
   WEIMIN = 0.0010     energy-eigenvalue tresh-hold
   EBREAK =  0.13E-08  absolut break condition
   DEPER  =   0.30     relativ break condition  

   TIME   =   0.40     timestep for ELM

  volume/ion in A,a.u.               =      54.73       369.36
  Fermi-wavevector in a.u.,A,eV,Ry     =   0.783504  1.480608  8.352329  0.613879
  Thomas-Fermi vector in A             =   1.887446
 
 Write flags
   LWAVE        =      F    write WAVECAR
   LDOWNSAMPLE  =      F    k-point downsampling of WAVECAR
   LCHARG       =      F    write CHGCAR
   LVTOT        =      F    write LOCPOT, total local potential
   LVHAR        =      F    write LOCPOT, Hartree potential only
   LELF         =      F    write electronic localiz. function (ELF)
   LORBIT       =      0    0 simple, 1 ext, 2 COOP (PROOUT), +10 PAW based schemes


 Dipole corrections
   LMONO  =      F    monopole corrections only (constant potential shift)
   LDIPOL =      F    correct potential (dipole corrections)
   IDIPOL =      0    1-x, 2-y, 3-z, 4-all directions 
   EPSILON=  1.0000000 bulk dielectric constant

 Exchange correlation treatment:
   GGA     =    --    GGA type
   LEXCH   =     8    internal setting for exchange type
   VOSKOWN=      0    Vosko Wilk Nusair interpolation
   LHFCALC =     F    Hartree Fock is set to
   LHFONE  =     F    Hartree Fock one center treatment
   AEXX    =    0.0000 exact exchange contribution

 Linear response parameters
   LEPSILON=     F    determine dielectric tensor
   LRPA    =     F    only Hartree local field effects (RPA)
   LNABLA  =     F    use nabla operator in PAW spheres
   LVEL    =     F    velocity operator in full k-point grid
   LINTERFAST=   F  fast interpolation
   KINTER  =     0    interpolate to denser k-point grid
   CSHIFT  =0.1000    complex shift for real part using Kramers Kronig
   OMEGAMAX=  -1.0    maximum frequency
   DEG_THRESHOLD= 0.2000000E-02 threshold for treating states as degnerate
   RTIME   =   -0.100 relaxation time in fs
  (WPLASMAI=    0.000 imaginary part of plasma frequency in eV, 0.658/RTIME)
   DFIELD  = 0.0000000 0.0000000 0.0000000 field for delta impulse in time
 
 Orbital magnetization related:
   ORBITALMAG=     F  switch on orbital magnetization
   LCHIMAG   =     F  perturbation theory with respect to B field
   DQ        =  0.001000  dq finite difference perturbation B field
   LLRAUG    =     F  two centre corrections for induced B field



--------------------------------------------------------------------------------------------------------


 molecular dynamics for ions
   using nose mass (canonical ensemble)
 charge density and potential will be updated during run
 non-spin polarized calculation
 RMM-DIIS sequential band-by-band and
  variant of blocked Davidson during initial phase
 perform sub-space diagonalisation
    before iterative eigenvector-optimisation
 modified Broyden-mixing scheme, WC =      100.0
 initial mixing is a Kerker type mixing with AMIX =  0.4000 and BMIX =      1.0000
 Hartree-type preconditioning will be used
 using additional bands           38
 reciprocal scheme for non local part
 use partial core corrections
 calculate Harris-corrections to forces 
   (improved forces if not selfconsistent)
 use gradient corrections 
 use of overlap-Matrix (Vanderbilt PP)
 Gauss-broadening in eV      SIGMA  =   0.10


--------------------------------------------------------------------------------------------------------


  energy-cutoff  :      550.00
  volume of cell :     2955.60
      direct lattice vectors                 reciprocal lattice vectors
    10.366427261  0.000000000  0.000000000     0.096465250  0.053269266  0.001416244
    -5.179984024  9.380426860  0.000000000     0.000000000  0.106604957  0.002727659
    -0.016782370 -0.777690059 30.394415833     0.000000000  0.000000000  0.032900780

  length of vectors
    10.366427261 10.715626093 30.404368063     0.110205104  0.106639847  0.032900780


 
 k-points in units of 2pi/SCALE and weight: read from INCAR                         
   0.00000000  0.00000000  0.00000000       0.111
   0.03215508  0.01775642  0.00047208       0.222
   0.00000000  0.03553499  0.00090922       0.222
   0.03215508  0.05329141  0.00138130       0.222
  -0.03215508  0.01777856  0.00043714       0.222
 
 k-points in reciprocal lattice and weights: read from INCAR                         
   0.00000000  0.00000000  0.00000000       0.111
   0.33333333 -0.00000000 -0.00000000       0.222
   0.00000000  0.33333333  0.00000000       0.222
   0.33333333  0.33333333 -0.00000000       0.222
  -0.33333333  0.33333333  0.00000000       0.222
 
 position of ions in fractional coordinates (direct lattice) 
   0.11119160  0.22260789  0.31570692
   0.11058829  0.55494789  0.31594912
   0.11179639  0.88882616  0.31578827
   0.44416704  0.22148676  0.31593365
   0.44457129  0.55545307  0.31572984
   0.44469972  0.88951178  0.31578280
   0.77776666  0.22227510  0.31583679
   0.77714369  0.55507955  0.31560075
   0.77761182  0.88881383  0.31596384
   0.00004838  0.16633397  0.56336929
   0.99994647  0.49987070  0.56326343
   0.99996067  0.83352414  0.56337034
   0.33347129  0.16708257  0.56338243
   0.33329522  0.49989685  0.56325144
   0.33388105  0.83395741  0.56313903
   0.66667606  0.16665383  0.56328789
   0.66725806  0.50056920  0.56336143
   0.66661924  0.83364335  0.56333069
   0.11126790  0.22231793  0.43664636
   0.11069909  0.55516071  0.43653721
   0.11169055  0.88956627  0.43666885
   0.44459235  0.22232440  0.43669348
   0.44442831  0.55559187  0.43673753
   0.44410859  0.88897648  0.43666342
   0.77752274  0.22210454  0.43687034
   0.77767483  0.55526407  0.43661410
   0.77828166  0.88923324  0.43670236
   0.99992134  0.16680998  0.68411266
   0.00020775  0.50006939  0.68411222
   0.00028650  0.83321114  0.68442821
   0.33352706  0.16650440  0.68411153
   0.33346942  0.49997537  0.68414651
   0.33399230  0.83373881  0.68438322
   0.66664394  0.16663687  0.68419355
   0.66689923  0.50027386  0.68409921
   0.66659148  0.83330960  0.68420147
   0.00017685  0.00006811  0.37635591
   0.00057030  0.33386362  0.37605832
   0.00036885  0.66696693  0.37635157
   0.33321411  0.99976552  0.37634470
   0.33390218  0.33331975  0.37604382
   0.33310501  0.66694057  0.37631407
   0.66589366  0.99958826  0.37639253
   0.66671183  0.33343492  0.37622571
   0.66647886  0.66679236  0.37643720
   0.22210854  0.27792815  0.62367511
   0.22222099  0.61111259  0.62375330
   0.22244768  0.94530648  0.62358361
   0.55543019  0.27788666  0.62375509
   0.55548376  0.61110384  0.62378247
   0.55610330  0.94479699  0.62364984
   0.88903780  0.27784950  0.62378319
   0.88892611  0.61106161  0.62368966
   0.88863619  0.94440901  0.62380752
 
 position of ions in cartesian coordinates  (Angst):
  -0.00574396  1.84263486  9.59572744
  -1.73351808  4.95993762  9.60308899
  -3.45047580  8.09198335  9.59819993
   3.45182531  1.83194193  9.60261859
   1.72607919  4.96484690  9.59642398
  -0.00300910  8.09841904  9.59803359
   6.90597958  1.83941217  9.59967484
   5.17560384  4.96144352  9.59250042
   3.45171224  8.09173122  9.60353642
  -0.87056043  1.12215695 17.12328061
   7.76709720  4.25095618 17.12006303
   6.03892307  7.38068475 17.12331252
   2.58196595  1.12916892 17.12367979
   0.85617026  4.25121078 17.11969864
  -0.86818325  7.38492886 17.11628196
   6.03833138  1.12522070 17.12080639
   4.31468720  4.25743215 17.12304142
   2.58274659  7.38183375 17.12210736
  -0.00548069  1.74586151 13.27161117
  -1.73549569  4.86815375 13.26829360
  -3.45743543  8.00491835 13.27229464
   3.44986865  1.74588558 13.27304334
   1.72184718  4.87204249 13.27438214
  -0.00839275  7.99939001 13.27212945
   6.90230324  1.74368570 13.27841890
   5.17812308  4.86906356 13.27063052
   3.45445740  8.00176825 13.27331305
   9.49005775  1.03272125 20.79320459
  -2.59967890  4.15883707 20.79319119
  -4.32453670  7.28360310 20.80279558
   2.58351285  1.02985561 20.79317029
   0.85554047  4.15792849 20.79423354
  -0.86793240  7.28858790 20.80142810
   6.03605718  1.03103444 20.79566312
   4.31047099  4.16076518 20.79279595
   2.58215919  7.28470308 20.79590387
  -0.00483561 -0.29204937 11.43911791
  -1.72980738  2.83932643 11.43007291
  -3.45737049  5.96374961 11.43898601
  -1.73084554  9.08554776 11.43877744
   1.72847083  2.83423596 11.42963233
  -0.00794803  5.96353149 11.43784642
   1.71877021  9.08384781 11.44023122
   5.17791820  2.83517489 11.43516060
   3.44871329  5.96204551 11.44158892
   0.85234196  2.12205872 18.95624061
  -0.87238380  5.24741024 18.95861707
  -2.60114998  8.38242351 18.95345942
   4.30791007  2.12160738 18.95867148
   2.58240536  5.24730545 18.95950367
   0.86030474  8.37759279 18.95547246
   7.76642118  2.12123690 18.95952565
   6.03923144  5.24698151 18.95668273
   4.30948982  8.37383077 18.96026504
 


--------------------------------------------------------------------------------------------------------


 k-point   1 :   0.0000 0.0000 0.0000  plane waves:   86631
 k-point   2 :   0.3333-0.0000-0.0000  plane waves:   86578
 k-point   3 :   0.0000 0.3333 0.0000  plane waves:   86562
 k-point   4 :   0.3333 0.3333-0.0000  plane waves:   86547
 k-point   5 :  -0.3333 0.3333 0.0000  plane waves:   86585

 maximum and minimum number of plane-waves per node :     86631    86547

 maximum number of plane-waves:     86631
 maximum index in each direction: 
   IXMAX=   20   IYMAX=   20   IZMAX=   58
   IXMIN=  -20   IYMIN=  -20   IZMIN=  -58


 serial   3D FFT for wavefunctions
 parallel 3D FFT for charge:
    minimum data exchange during FFTs selected (reduces bandwidth)


 total amount of memory used by VASP MPI-rank0   365551. kBytes
=======================================================================

   base      :      30000. kBytes
   nonl-proj :     199618. kBytes
   fftplans  :      17372. kBytes
   grid      :      82746. kBytes
   one-center:        839. kBytes
   wavefun   :      34976. kBytes
 
     INWAV:  cpu time    0.0001: real time    0.0001
 Broyden mixing: mesh for mixing (old mesh)
   NGX = 39   NGY = 41   NGZ =117
  (NGX  =160   NGY  =168   NGZ  =480)
  gives a total of 187083 points

 initial charge density was supplied:
 charge density of overlapping atoms calculated
 number of electron     324.0000000 magnetization 
 keeping initial charge density in first step


--------------------------------------------------------------------------------------------------------


 Maximum index for augmentation-charges         1180 (set IRDMAX)


--------------------------------------------------------------------------------------------------------


 First call to EWALD:  gamma=   0.124
 Maximum number of real-space cells 4x 4x 2
 Maximum number of reciprocal cells 2x 2x 5

    FEWALD:  cpu time    0.0023: real time    0.0024


--------------------------------------- Iteration      1(   1)  ---------------------------------------


    POTLOK:  cpu time    0.3161: real time    0.3174
    SETDIJ:  cpu time    0.0111: real time    0.0113
     EDDAV:  cpu time   52.6632: real time   52.8146
       DOS:  cpu time    0.0009: real time    0.0011
    --------------------------------------------
      LOOP:  cpu time   52.9912: real time   53.1443

 eigenvalue-minimisations  :  2000
 total energy-change (2. order) : 0.2091383E+04  (-0.1146543E+05)
 number of electron     324.0000000 magnetization 
 augmentation part      324.0000000 magnetization 

 Free energy of the ion-electron system (eV)
  ---------------------------------------------------
  alpha Z        PSCENC =       242.81581670
  Ewald energy   TEWEN  =     59501.61670717
  -Hartree energ DENC   =    -71171.03232266
  -exchange      EXHF   =         0.00000000
  -V(xc)+E(xc)   XCENC  =     -2102.93482880
  PAW double counting   =      7476.04436201    -4809.59211051
  entropy T*S    EENTRO =        -0.12150110
  eigenvalues    EBANDS =      1001.50384054
  atomic energy  EATOM  =     11953.08265402
  Solvation  Ediel_sol  =         0.00000000
  ---------------------------------------------------
  free energy    TOTEN  =      2091.38261738 eV

  energy without entropy =     2091.50411848  energy(sigma->0) =     2091.44336793


--------------------------------------------------------------------------------------------------------




--------------------------------------- Iteration      1(   2)  ---------------------------------------


     EDDAV:  cpu time   72.7787: real time   73.0002
       DOS:  cpu time    0.0006: real time    0.0006
    --------------------------------------------
      LOOP:  cpu time   72.7793: real time   73.0008

 eigenvalue-minimisations  :  3000
 total energy-change (2. order) :-0.2185862E+04  (-0.2121370E+04)
 number of electron     324.0000000 magnetization 
 augmentation part      324.0000000 magnetization 

 Free energy of the ion-electron system (eV)
  ---------------------------------------------------
  alpha Z        PSCENC =       242.81581670
  Ewald energy   TEWEN  =     59501.61670717
  -Hartree energ DENC   =    -71171.03232266
  -exchange      EXHF   =         0.00000000
  -V(xc)+E(xc)   XCENC  =     -2102.93482880
  PAW double counting   =      7476.04436201    -4809.59211051
  entropy T*S    EENTRO =        -0.04145638
  eigenvalues    EBANDS =     -1184.43813825
  atomic energy  EATOM  =     11953.08265402
  Solvation  Ediel_sol  =         0.00000000
  ---------------------------------------------------
  free energy    TOTEN  =       -94.47931669 eV

  energy without entropy =      -94.43786031  energy(sigma->0) =      -94.45858850


--------------------------------------------------------------------------------------------------------




--------------------------------------- Iteration      1(   3)  ---------------------------------------


     EDDAV:  cpu time   63.8113: real time   63.9938
       DOS:  cpu time    0.0004: real time    0.0004
    --------------------------------------------
      LOOP:  cpu time   63.8117: real time   63.9942

 eigenvalue-minimisations  :  2560
 total energy-change (2. order) :-0.2307996E+03  (-0.2269884E+03)
 number of electron     324.0000000 magnetization 
 augmentation part      324.0000000 magnetization 

 Free energy of the ion-electron system (eV)
  ---------------------------------------------------
  alpha Z        PSCENC =       242.81581670
  Ewald energy   TEWEN  =     59501.61670717
  -Hartree energ DENC   =    -71171.03232266
  -exchange      EXHF   =         0.00000000
  -V(xc)+E(xc)   XCENC  =     -2102.93482880
  PAW double counting   =      7476.04436201    -4809.59211051
  entropy T*S    EENTRO =        -0.00000000
  eigenvalues    EBANDS =     -1415.27922957
  atomic energy  EATOM  =     11953.08265402
  Solvation  Ediel_sol  =         0.00000000
  ---------------------------------------------------
  free energy    TOTEN  =      -325.27895163 eV

  energy without entropy =     -325.27895163  energy(sigma->0) =     -325.27895163


--------------------------------------------------------------------------------------------------------




--------------------------------------- Iteration      1(   4)  ---------------------------------------


     EDDAV:  cpu time   75.1721: real time   75.4107
       DOS:  cpu time    0.0005: real time    0.0005
    --------------------------------------------
      LOOP:  cpu time   75.1726: real time   75.4112

 eigenvalue-minimisations  :  3120
 total energy-change (2. order) :-0.1095226E+02  (-0.1086745E+02)
 number of electron     324.0000000 magnetization 
 augmentation part      324.0000000 magnetization 

 Free energy of the ion-electron system (eV)
  ---------------------------------------------------
  alpha Z        PSCENC =       242.81581670
  Ewald energy   TEWEN  =     59501.61670717
  -Hartree energ DENC   =    -71171.03232266
  -exchange      EXHF   =         0.00000000
  -V(xc)+E(xc)   XCENC  =     -2102.93482880
  PAW double counting   =      7476.04436201    -4809.59211051
  entropy T*S    EENTRO =        -0.00000000
  eigenvalues    EBANDS =     -1426.23149126
  atomic energy  EATOM  =     11953.08265402
  Solvation  Ediel_sol  =         0.00000000
  ---------------------------------------------------
  free energy    TOTEN  =      -336.23121333 eV

  energy without entropy =     -336.23121333  energy(sigma->0) =     -336.23121333


--------------------------------------------------------------------------------------------------------




--------------------------------------- Iteration      1(   5)  ---------------------------------------


     EDDAV:  cpu time   73.5187: real time   73.7193
       DOS:  cpu time    0.0004: real time    0.0004
    CHARGE:  cpu time    1.2070: real time    1.2083
    MIXING:  cpu time    0.0084: real time    0.0087
    --------------------------------------------
      LOOP:  cpu time   74.7347: real time   74.9367

 eigenvalue-minimisations  :  3040
 total energy-change (2. order) :-0.3134536E+00  (-0.3125446E+00)
 number of electron     323.9999984 magnetization 
 augmentation part      -25.7606387 magnetization 

 Broyden mixing:
  rms(total) = 0.19435E+01    rms(broyden)= 0.19435E+01
  rms(prec ) = 0.20565E+01
  weight for this iteration     100.00

 Free energy of the ion-electron system (eV)
  ---------------------------------------------------
  alpha Z        PSCENC =       242.81581670
  Ewald energy   TEWEN  =     59501.61670717
  -Hartree energ DENC   =    -71171.03232266
  -exchange      EXHF   =         0.00000000
  -V(xc)+E(xc)   XCENC  =     -2102.93482880
  PAW double counting   =      7476.04436201    -4809.59211051
  entropy T*S    EENTRO =        -0.00000000
  eigenvalues    EBANDS =     -1426.54494489
  atomic energy  EATOM  =     11953.08265402
  Solvation  Ediel_sol  =         0.00000000
  ---------------------------------------------------
  free energy    TOTEN  =      -336.54466695 eV

  energy without entropy =     -336.54466695  energy(sigma->0) =     -336.54466695


--------------------------------------------------------------------------------------------------------




--------------------------------------- Iteration      1(   6)  ---------------------------------------


    POTLOK:  cpu time    0.2867: real time    0.2910
    SETDIJ:  cpu time    0.0147: real time    0.0147
    EDDIAG:  cpu time    2.6573: real time    2.6648
  RMM-DIIS:  cpu time   44.9361: real time   45.0693
    ORTHCH:  cpu time    0.2196: real time    0.2199
       DOS:  cpu time    0.0006: real time    0.0006
    CHARGE:  cpu time    1.2117: real time    1.2128
    MIXING:  cpu time    0.0159: real time    0.0160
    --------------------------------------------
      LOOP:  cpu time   49.3426: real time   49.4892

 eigenvalue-minimisations  :  2140
 total energy-change (2. order) : 0.9043890E+01  (-0.6102471E+01)
 number of electron     323.9999985 magnetization 
 augmentation part      -19.7484345 magnetization 

 Broyden mixing:
  rms(total) = 0.72425E+00    rms(broyden)= 0.72424E+00
  rms(prec ) = 0.84774E+00
  weight for this iteration     100.00

 eigenvalues of (default mixing * dielectric matrix)
  average eigenvalue GAMMA=   1.0064
  1.0064

 Free energy of the ion-electron system (eV)
  ---------------------------------------------------
  alpha Z        PSCENC =       242.81581670
  Ewald energy   TEWEN  =     59501.61670717
  -Hartree energ DENC   =    -71143.87023346
  -exchange      EXHF   =         0.00000000
  -V(xc)+E(xc)   XCENC  =     -2096.40801809
  PAW double counting   =      7645.25154491    -4989.78563825
  entropy T*S    EENTRO =        -0.00000000
  eigenvalues    EBANDS =     -1440.20360968
  atomic energy  EATOM  =     11953.08265402
  Solvation  Ediel_sol  =         0.00000000
  ---------------------------------------------------
  free energy    TOTEN  =      -327.50077667 eV

  energy without entropy =     -327.50077666  energy(sigma->0) =     -327.50077667


--------------------------------------------------------------------------------------------------------




--------------------------------------- Iteration      1(   7)  ---------------------------------------


    POTLOK:  cpu time    0.2800: real time    0.2803
    SETDIJ:  cpu time    0.0109: real time    0.0109
    EDDIAG:  cpu time    2.6316: real time    2.6409
  RMM-DIIS:  cpu time   42.4640: real time   42.6154
    ORTHCH:  cpu time    0.2302: real time    0.2306
       DOS:  cpu time    0.0005: real time    0.0005
    CHARGE:  cpu time    1.2004: real time    1.2016
    MIXING:  cpu time    0.0071: real time    0.0071
    --------------------------------------------
      LOOP:  cpu time   46.8248: real time   46.9872

 eigenvalue-minimisations  :  2023
 total energy-change (2. order) : 0.3556212E+01  (-0.1157338E+01)
 number of electron     323.9999984 magnetization 
 augmentation part      -21.8133767 magnetization 

 Broyden mixing:
  rms(total) = 0.48344E+00    rms(broyden)= 0.48344E+00
  rms(prec ) = 0.51295E+00
  weight for this iteration     100.00

 eigenvalues of (default mixing * dielectric matrix)
  average eigenvalue GAMMA=   1.4617
  0.7169  2.2066

 Free energy of the ion-electron system (eV)
  ---------------------------------------------------
  alpha Z        PSCENC =       242.81581670
  Ewald energy   TEWEN  =     59501.61670717
  -Hartree energ DENC   =    -71231.61475447
  -exchange      EXHF   =         0.00000000
  -V(xc)+E(xc)   XCENC  =     -2095.39336749
  PAW double counting   =      7915.33629044    -5264.35662366
  entropy T*S    EENTRO =        -0.00000000
  eigenvalues    EBANDS =     -1345.43128700
  atomic energy  EATOM  =     11953.08265402
  Solvation  Ediel_sol  =         0.00000000
  ---------------------------------------------------
  free energy    TOTEN  =      -323.94456428 eV

  energy without entropy =     -323.94456428  energy(sigma->0) =     -323.94456428


--------------------------------------------------------------------------------------------------------




--------------------------------------- Iteration      1(   8)  ---------------------------------------


    POTLOK:  cpu time    0.2889: real time    0.2892
    SETDIJ:  cpu time    0.0113: real time    0.0113
    EDDIAG:  cpu time    2.6748: real time    2.6777
  RMM-DIIS:  cpu time   41.7748: real time   41.9177
    ORTHCH:  cpu time    0.2317: real time    0.2319
       DOS:  cpu time    0.0005: real time    0.0005
    CHARGE:  cpu time    1.2081: real time    1.2093
    MIXING:  cpu time    0.0072: real time    0.0072
    --------------------------------------------
      LOOP:  cpu time   46.1973: real time   46.3446

 eigenvalue-minimisations  :  2020
 total energy-change (2. order) : 0.4908876E+00  (-0.8562887E+00)
 number of electron     323.9999984 magnetization 
 augmentation part      -21.6639223 magnetization 

 Broyden mixing:
  rms(total) = 0.14500E+00    rms(broyden)= 0.14500E+00
  rms(prec ) = 0.16837E+00
  weight for this iteration     100.00

 eigenvalues of (default mixing * dielectric matrix)
  average eigenvalue GAMMA=   1.2539
  2.1253  0.8182  0.8182

 Free energy of the ion-electron system (eV)
  ---------------------------------------------------
  alpha Z        PSCENC =       242.81581670
  Ewald energy   TEWEN  =     59501.61670717
  -Hartree energ DENC   =    -71292.83655979
  -exchange      EXHF   =         0.00000000
  -V(xc)+E(xc)   XCENC  =     -2091.48679724
  PAW double counting   =      8210.50932615    -5565.75336570
  entropy T*S    EENTRO =        -0.00000000
  eigenvalues    EBANDS =     -1281.40145796
  atomic energy  EATOM  =     11953.08265402
  Solvation  Ediel_sol  =         0.00000000
  ---------------------------------------------------
  free energy    TOTEN  =      -323.45367664 eV

  energy without entropy =     -323.45367664  energy(sigma->0) =     -323.45367664


--------------------------------------------------------------------------------------------------------




--------------------------------------- Iteration      1(   9)  ---------------------------------------


    POTLOK:  cpu time    0.2846: real time    0.2849
    SETDIJ:  cpu time    0.0112: real time    0.0112
    EDDIAG:  cpu time    2.6175: real time    2.6245
  RMM-DIIS:  cpu time   46.8416: real time   46.9703
    ORTHCH:  cpu time    0.2341: real time    0.2356
       DOS:  cpu time    0.0004: real time    0.0004
    CHARGE:  cpu time    1.2021: real time    1.2033
    MIXING:  cpu time    0.0072: real time    0.0072
    --------------------------------------------
      LOOP:  cpu time   51.1989: real time   51.3375

 eigenvalue-minimisations  :  2211
 total energy-change (2. order) :-0.2009766E-01  (-0.1460887E+00)
 number of electron     323.9999984 magnetization 
 augmentation part      -21.2074110 magnetization 

 Broyden mixing:
  rms(total) = 0.10059E+00    rms(broyden)= 0.10059E+00
  rms(prec ) = 0.11177E+00
  weight for this iteration     100.00

 eigenvalues of (default mixing * dielectric matrix)
  average eigenvalue GAMMA=   1.1353
  2.0009  1.3543  0.7262  0.4598

 Free energy of the ion-electron system (eV)
  ---------------------------------------------------
  alpha Z        PSCENC =       242.81581670
  Ewald energy   TEWEN  =     59501.61670717
  -Hartree energ DENC   =    -71288.69175148
  -exchange      EXHF   =         0.00000000
  -V(xc)+E(xc)   XCENC  =     -2091.15693945
  PAW double counting   =      8204.44755041    -5559.77448240
  entropy T*S    EENTRO =        -0.00000000
  eigenvalues    EBANDS =     -1285.81332927
  atomic energy  EATOM  =     11953.08265402
  Solvation  Ediel_sol  =         0.00000000
  ---------------------------------------------------
  free energy    TOTEN  =      -323.47377430 eV

  energy without entropy =     -323.47377430  energy(sigma->0) =     -323.47377430


--------------------------------------------------------------------------------------------------------




--------------------------------------- Iteration      1(  10)  ---------------------------------------


    POTLOK:  cpu time    0.2878: real time    0.2881
    SETDIJ:  cpu time    0.0116: real time    0.0116
    EDDIAG:  cpu time    2.6269: real time    2.6341
  RMM-DIIS:  cpu time   50.8490: real time   51.0044
    ORTHCH:  cpu time    0.2505: real time    0.2508
       DOS:  cpu time    0.0004: real time    0.0004
    CHARGE:  cpu time    1.1989: real time    1.2043
    MIXING:  cpu time    0.0073: real time    0.0074
    --------------------------------------------
      LOOP:  cpu time   55.2324: real time   55.4011

 eigenvalue-minimisations  :  2376
 total energy-change (2. order) :-0.9507535E-02  (-0.4382510E-01)
 number of electron     323.9999985 magnetization 
 augmentation part      -21.0115305 magnetization 

 Broyden mixing:
  rms(total) = 0.76662E-01    rms(broyden)= 0.76662E-01
  rms(prec ) = 0.85586E-01
  weight for this iteration     100.00

 eigenvalues of (default mixing * dielectric matrix)
  average eigenvalue GAMMA=   1.2810
  2.3576  1.8048  0.9243  0.9243  0.3939

 Free energy of the ion-electron system (eV)
  ---------------------------------------------------
  alpha Z        PSCENC =       242.81581670
  Ewald energy   TEWEN  =     59501.61670717
  -Hartree energ DENC   =    -71290.96034761
  -exchange      EXHF   =         0.00000000
  -V(xc)+E(xc)   XCENC  =     -2090.95655413
  PAW double counting   =      8215.27419532    -5570.59719082
  entropy T*S    EENTRO =        -0.00000000
  eigenvalues    EBANDS =     -1283.75856249
  atomic energy  EATOM  =     11953.08265402
  Solvation  Ediel_sol  =         0.00000000
  ---------------------------------------------------
  free energy    TOTEN  =      -323.48328184 eV

  energy without entropy =     -323.48328184  energy(sigma->0) =     -323.48328184


--------------------------------------------------------------------------------------------------------




--------------------------------------- Iteration      1(  11)  ---------------------------------------


    POTLOK:  cpu time    0.2823: real time    0.2826
    SETDIJ:  cpu time    0.0115: real time    0.0115
    EDDIAG:  cpu time    2.6084: real time    2.6196
  RMM-DIIS:  cpu time   44.0779: real time   44.2130
    ORTHCH:  cpu time    0.2245: real time    0.2248
       DOS:  cpu time    0.0004: real time    0.0004
    CHARGE:  cpu time    1.2100: real time    1.2153
    MIXING:  cpu time    0.0075: real time    0.0075
    --------------------------------------------
      LOOP:  cpu time   48.4226: real time   48.5747

 eigenvalue-minimisations  :  2127
 total energy-change (2. order) : 0.1172196E-01  (-0.2103213E-01)
 number of electron     323.9999985 magnetization 
 augmentation part      -21.3471004 magnetization 

 Broyden mixing:
  rms(total) = 0.41213E-01    rms(broyden)= 0.41213E-01
  rms(prec ) = 0.46745E-01
  weight for this iteration     100.00

 eigenvalues of (default mixing * dielectric matrix)
  average eigenvalue GAMMA=   1.2262
  2.5333  1.6328  1.3759  0.7137  0.7137  0.3879

 Free energy of the ion-electron system (eV)
  ---------------------------------------------------
  alpha Z        PSCENC =       242.81581670
  Ewald energy   TEWEN  =     59501.61670717
  -Hartree energ DENC   =    -71310.76809692
  -exchange      EXHF   =         0.00000000
  -V(xc)+E(xc)   XCENC  =     -2090.65434774
  PAW double counting   =      8267.42272034    -5622.96621265
  entropy T*S    EENTRO =        -0.00000000
  eigenvalues    EBANDS =     -1264.02080080
  atomic energy  EATOM  =     11953.08265402
  Solvation  Ediel_sol  =         0.00000000
  ---------------------------------------------------
  free energy    TOTEN  =      -323.47155987 eV

  energy without entropy =     -323.47155987  energy(sigma->0) =     -323.47155987


--------------------------------------------------------------------------------------------------------




--------------------------------------- Iteration      1(  12)  ---------------------------------------


    POTLOK:  cpu time    0.2868: real time    0.2871
    SETDIJ:  cpu time    0.0115: real time    0.0115
    EDDIAG:  cpu time    2.6578: real time    2.6612
  RMM-DIIS:  cpu time   50.0982: real time   50.2335
    ORTHCH:  cpu time    0.2342: real time    0.2344
       DOS:  cpu time    0.0005: real time    0.0005
    CHARGE:  cpu time    1.2087: real time    1.2139
    MIXING:  cpu time    0.0077: real time    0.0078
    --------------------------------------------
      LOOP:  cpu time   54.5053: real time   54.6499

 eigenvalue-minimisations  :  2355
 total energy-change (2. order) : 0.1897911E-02  (-0.4164570E-02)
 number of electron     323.9999985 magnetization 
 augmentation part      -21.3146633 magnetization 

 Broyden mixing:
  rms(total) = 0.29025E-01    rms(broyden)= 0.29025E-01
  rms(prec ) = 0.33340E-01
  weight for this iteration     100.00

 eigenvalues of (default mixing * dielectric matrix)
  average eigenvalue GAMMA=   1.1866
  2.5383  1.7004  1.7004  0.7998  0.7998  0.3977  0.3699

 Free energy of the ion-electron system (eV)
  ---------------------------------------------------
  alpha Z        PSCENC =       242.81581670
  Ewald energy   TEWEN  =     59501.61670717
  -Hartree energ DENC   =    -71314.17018221
  -exchange      EXHF   =         0.00000000
  -V(xc)+E(xc)   XCENC  =     -2090.52982743
  PAW double counting   =      8270.09104260    -5625.66667548
  entropy T*S    EENTRO =        -0.00000000
  eigenvalues    EBANDS =     -1260.70919734
  atomic energy  EATOM  =     11953.08265402
  Solvation  Ediel_sol  =         0.00000000
  ---------------------------------------------------
  free energy    TOTEN  =      -323.46966196 eV

  energy without entropy =     -323.46966196  energy(sigma->0) =     -323.46966196


--------------------------------------------------------------------------------------------------------




--------------------------------------- Iteration      1(  13)  ---------------------------------------


    POTLOK:  cpu time    0.2855: real time    0.2859
    SETDIJ:  cpu time    0.0131: real time    0.0131
    EDDIAG:  cpu time    2.6422: real time    2.6450
  RMM-DIIS:  cpu time   50.6562: real time   50.8324
    ORTHCH:  cpu time    0.2253: real time    0.2255
       DOS:  cpu time    0.0005: real time    0.0005
    CHARGE:  cpu time    1.2040: real time    1.2054
    MIXING:  cpu time    0.0087: real time    0.0087
    --------------------------------------------
      LOOP:  cpu time   55.0355: real time   55.2165

 eigenvalue-minimisations  :  2420
 total energy-change (2. order) : 0.1677935E-02  (-0.2438310E-02)
 number of electron     323.9999985 magnetization 
 augmentation part      -21.2140663 magnetization 

 Broyden mixing:
  rms(total) = 0.95901E-02    rms(broyden)= 0.95901E-02
  rms(prec ) = 0.12785E-01
  weight for this iteration     100.00

 eigenvalues of (default mixing * dielectric matrix)
  average eigenvalue GAMMA=   1.2231
  2.4076  2.0223  2.0223  0.9636  0.7989  0.7989  0.3997  0.3712

 Free energy of the ion-electron system (eV)
  ---------------------------------------------------
  alpha Z        PSCENC =       242.81581670
  Ewald energy   TEWEN  =     59501.61670717
  -Hartree energ DENC   =    -71316.10448349
  -exchange      EXHF   =         0.00000000
  -V(xc)+E(xc)   XCENC  =     -2090.44920785
  PAW double counting   =      8266.24300307    -5621.80788005
  entropy T*S    EENTRO =        -0.00000000
  eigenvalues    EBANDS =     -1258.86459360
  atomic energy  EATOM  =     11953.08265402
  Solvation  Ediel_sol  =         0.00000000
  ---------------------------------------------------
  free energy    TOTEN  =      -323.46798402 eV

  energy without entropy =     -323.46798402  energy(sigma->0) =     -323.46798402


--------------------------------------------------------------------------------------------------------




--------------------------------------- Iteration      1(  14)  ---------------------------------------


    POTLOK:  cpu time    0.2834: real time    0.2906
    SETDIJ:  cpu time    0.0113: real time    0.0113
    EDDIAG:  cpu time    2.6587: real time    2.6616
  RMM-DIIS:  cpu time   54.7471: real time   54.9265
    ORTHCH:  cpu time    0.2308: real time    0.2312
       DOS:  cpu time    0.0005: real time    0.0005
    CHARGE:  cpu time    1.2011: real time    1.2062
    MIXING:  cpu time    0.0081: real time    0.0082
    --------------------------------------------
      LOOP:  cpu time   59.1409: real time   59.3360

 eigenvalue-minimisations  :  2590
 total energy-change (2. order) :-0.9955471E-03  (-0.7918494E-03)
 number of electron     323.9999985 magnetization 
 augmentation part      -21.2003132 magnetization 

 Broyden mixing:
  rms(total) = 0.88468E-02    rms(broyden)= 0.88468E-02
  rms(prec ) = 0.11315E-01
  weight for this iteration     100.00

 eigenvalues of (default mixing * dielectric matrix)
  average eigenvalue GAMMA=   1.2840
  3.0381  2.6281  1.5069  1.5069  0.7965  0.7965  0.5133  0.4001  0.3700

 Free energy of the ion-electron system (eV)
  ---------------------------------------------------
  alpha Z        PSCENC =       242.81581670
  Ewald energy   TEWEN  =     59501.61670717
  -Hartree energ DENC   =    -71322.28299619
  -exchange      EXHF   =         0.00000000
  -V(xc)+E(xc)   XCENC  =     -2090.41244904
  PAW double counting   =      8263.55672118    -5619.05290826
  entropy T*S    EENTRO =        -0.00000000
  eigenvalues    EBANDS =     -1252.79252516
  atomic energy  EATOM  =     11953.08265402
  Solvation  Ediel_sol  =         0.00000000
  ---------------------------------------------------
  free energy    TOTEN  =      -323.46897957 eV

  energy without entropy =     -323.46897957  energy(sigma->0) =     -323.46897957


--------------------------------------------------------------------------------------------------------




--------------------------------------- Iteration      1(  15)  ---------------------------------------


    POTLOK:  cpu time    0.2979: real time    0.3023
    SETDIJ:  cpu time    0.0123: real time    0.0123
    EDDIAG:  cpu time    2.6451: real time    2.6484
  RMM-DIIS:  cpu time   47.4587: real time   47.6264
    ORTHCH:  cpu time    0.2392: real time    0.2395
       DOS:  cpu time    0.0005: real time    0.0005
    CHARGE:  cpu time    1.2101: real time    1.2112
    MIXING:  cpu time    0.0081: real time    0.0081
    --------------------------------------------
      LOOP:  cpu time   51.8718: real time   52.0486

 eigenvalue-minimisations  :  2240
 total energy-change (2. order) :-0.3683535E-03  (-0.1783059E-03)
 number of electron     323.9999985 magnetization 
 augmentation part      -21.2162771 magnetization 

 Broyden mixing:
  rms(total) = 0.51486E-02    rms(broyden)= 0.51486E-02
  rms(prec ) = 0.66419E-02
  weight for this iteration     100.00

 eigenvalues of (default mixing * dielectric matrix)
  average eigenvalue GAMMA=   1.2732
  3.5146  2.5219  1.6141  1.6141  0.7928  0.7928  0.7009  0.3648  0.3932  0.4223

 Free energy of the ion-electron system (eV)
  ---------------------------------------------------
  alpha Z        PSCENC =       242.81581670
  Ewald energy   TEWEN  =     59501.61670717
  -Hartree energ DENC   =    -71327.76769799
  -exchange      EXHF   =         0.00000000
  -V(xc)+E(xc)   XCENC  =     -2090.38619817
  PAW double counting   =      8262.93596838    -5618.38761315
  entropy T*S    EENTRO =        -0.00000000
  eigenvalues    EBANDS =     -1247.37898490
  atomic energy  EATOM  =     11953.08265402
  Solvation  Ediel_sol  =         0.00000000
  ---------------------------------------------------
  free energy    TOTEN  =      -323.46934793 eV

  energy without entropy =     -323.46934793  energy(sigma->0) =     -323.46934793


--------------------------------------------------------------------------------------------------------




--------------------------------------- Iteration      1(  16)  ---------------------------------------


    POTLOK:  cpu time    0.2905: real time    0.2949
    SETDIJ:  cpu time    0.0187: real time    0.0188
    EDDIAG:  cpu time    2.6348: real time    2.6460
  RMM-DIIS:  cpu time   52.5104: real time   52.6609
    ORTHCH:  cpu time    0.2183: real time    0.2226
       DOS:  cpu time    0.0005: real time    0.0005
    CHARGE:  cpu time    1.2053: real time    1.2106
    MIXING:  cpu time    0.0083: real time    0.0083
    --------------------------------------------
      LOOP:  cpu time   56.8868: real time   57.0626

 eigenvalue-minimisations  :  2460
 total energy-change (2. order) :-0.6937202E-03  (-0.8302294E-04)
 number of electron     323.9999985 magnetization 
 augmentation part      -21.2260430 magnetization 

 Broyden mixing:
  rms(total) = 0.39859E-02    rms(broyden)= 0.39859E-02
  rms(prec ) = 0.49741E-02
  weight for this iteration     100.00

 eigenvalues of (default mixing * dielectric matrix)
  average eigenvalue GAMMA=   1.3084
  3.6334  2.4032  1.9794  1.9794  1.0343  0.8029  0.8029  0.5995  0.3648  0.4038
  0.3882

 Free energy of the ion-electron system (eV)
  ---------------------------------------------------
  alpha Z        PSCENC =       242.81581670
  Ewald energy   TEWEN  =     59501.61670717
  -Hartree energ DENC   =    -71329.90890423
  -exchange      EXHF   =         0.00000000
  -V(xc)+E(xc)   XCENC  =     -2090.37540347
  PAW double counting   =      8262.99002030    -5618.43973470
  entropy T*S    EENTRO =        -0.00000000
  eigenvalues    EBANDS =     -1245.25119745
  atomic energy  EATOM  =     11953.08265402
  Solvation  Ediel_sol  =         0.00000000
  ---------------------------------------------------
  free energy    TOTEN  =      -323.47004165 eV

  energy without entropy =     -323.47004165  energy(sigma->0) =     -323.47004165


--------------------------------------------------------------------------------------------------------




--------------------------------------- Iteration      1(  17)  ---------------------------------------


    POTLOK:  cpu time    0.2897: real time    0.2900
    SETDIJ:  cpu time    0.0189: real time    0.0189
    EDDIAG:  cpu time    2.6363: real time    2.6518
  RMM-DIIS:  cpu time   44.5438: real time   44.6514
    ORTHCH:  cpu time    0.2309: real time    0.2311
       DOS:  cpu time    0.0005: real time    0.0005
    CHARGE:  cpu time    1.2140: real time    1.2151
    MIXING:  cpu time    0.0123: real time    0.0123
    --------------------------------------------
      LOOP:  cpu time   48.9465: real time   49.0712

 eigenvalue-minimisations  :  2115
 total energy-change (2. order) :-0.1573983E-02  (-0.2753011E-04)
 number of electron     323.9999985 magnetization 
 augmentation part      -21.2232634 magnetization 

 Broyden mixing:
  rms(total) = 0.18807E-02    rms(broyden)= 0.18807E-02
  rms(prec ) = 0.26354E-02
  weight for this iteration     100.00

 eigenvalues of (default mixing * dielectric matrix)
  average eigenvalue GAMMA=   1.3962
  4.4599  2.6519  2.3113  1.5137  1.5137  0.9560  0.8060  0.8060  0.5803  0.3655
  0.4023  0.3880

 Free energy of the ion-electron system (eV)
  ---------------------------------------------------
  alpha Z        PSCENC =       242.81581670
  Ewald energy   TEWEN  =     59501.61670717
  -Hartree energ DENC   =    -71332.64863370
  -exchange      EXHF   =         0.00000000
  -V(xc)+E(xc)   XCENC  =     -2090.35846644
  PAW double counting   =      8262.29711210    -5617.76298390
  entropy T*S    EENTRO =        -0.00000000
  eigenvalues    EBANDS =     -1242.51382159
  atomic energy  EATOM  =     11953.08265402
  Solvation  Ediel_sol  =         0.00000000
  ---------------------------------------------------
  free energy    TOTEN  =      -323.47161563 eV

  energy without entropy =     -323.47161563  energy(sigma->0) =     -323.47161563


--------------------------------------------------------------------------------------------------------




--------------------------------------- Iteration      1(  18)  ---------------------------------------


    POTLOK:  cpu time    0.2839: real time    0.2878
    SETDIJ:  cpu time    0.0118: real time    0.0118
    EDDIAG:  cpu time    2.6376: real time    2.6407
  RMM-DIIS:  cpu time   43.9011: real time   44.0243
    ORTHCH:  cpu time    0.2250: real time    0.2252
       DOS:  cpu time    0.0005: real time    0.0005
    CHARGE:  cpu time    1.2025: real time    1.2038
    MIXING:  cpu time    0.0086: real time    0.0086
    --------------------------------------------
      LOOP:  cpu time   48.2710: real time   48.4027

 eigenvalue-minimisations  :  2098
 total energy-change (2. order) :-0.1247153E-02  (-0.3776268E-04)
 number of electron     323.9999985 magnetization 
 augmentation part      -21.2224481 magnetization 

 Broyden mixing:
  rms(total) = 0.17772E-02    rms(broyden)= 0.17772E-02
  rms(prec ) = 0.21446E-02
  weight for this iteration     100.00

 eigenvalues of (default mixing * dielectric matrix)
  average eigenvalue GAMMA=   1.4021
  5.0585  2.8091  2.3100  1.6469  1.6469  0.9763  0.8087  0.8087  0.5766  0.3659
  0.3859  0.4006  0.4327

 Free energy of the ion-electron system (eV)
  ---------------------------------------------------
  alpha Z        PSCENC =       242.81581670
  Ewald energy   TEWEN  =     59501.61670717
  -Hartree energ DENC   =    -71335.23375635
  -exchange      EXHF   =         0.00000000
  -V(xc)+E(xc)   XCENC  =     -2090.34824772
  PAW double counting   =      8261.49789128    -5616.96285940
  entropy T*S    EENTRO =        -0.00000000
  eigenvalues    EBANDS =     -1239.94106849
  atomic energy  EATOM  =     11953.08265402
  Solvation  Ediel_sol  =         0.00000000
  ---------------------------------------------------
  free energy    TOTEN  =      -323.47286278 eV

  energy without entropy =     -323.47286278  energy(sigma->0) =     -323.47286278


--------------------------------------------------------------------------------------------------------




--------------------------------------- Iteration      1(  19)  ---------------------------------------


    POTLOK:  cpu time    0.2867: real time    0.2884
    SETDIJ:  cpu time    0.0189: real time    0.0189
    EDDIAG:  cpu time    2.6132: real time    2.6161
  RMM-DIIS:  cpu time   48.6856: real time   48.8685
    ORTHCH:  cpu time    0.2488: real time    0.2490
       DOS:  cpu time    0.0005: real time    0.0005
    CHARGE:  cpu time    1.2075: real time    1.2086
    MIXING:  cpu time    0.0094: real time    0.0094
    --------------------------------------------
      LOOP:  cpu time   53.0706: real time   53.2595

 eigenvalue-minimisations  :  2330
 total energy-change (2. order) :-0.4674089E-03  (-0.1008253E-04)
 number of electron     323.9999985 magnetization 
 augmentation part      -21.2214989 magnetization 

 Broyden mixing:
  rms(total) = 0.12265E-02    rms(broyden)= 0.12265E-02
  rms(prec ) = 0.14976E-02
  weight for this iteration     100.00

 eigenvalues of (default mixing * dielectric matrix)
  average eigenvalue GAMMA=   1.5107
  6.2177  3.0283  2.3733  1.9110  1.9110  0.9930  0.9930  0.8025  0.8025  0.5905
  0.4031  0.3895  0.3658  0.3690

 Free energy of the ion-electron system (eV)
  ---------------------------------------------------
  alpha Z        PSCENC =       242.81581670
  Ewald energy   TEWEN  =     59501.61670717
  -Hartree energ DENC   =    -71335.99627980
  -exchange      EXHF   =         0.00000000
  -V(xc)+E(xc)   XCENC  =     -2090.34632024
  PAW double counting   =      8261.46627580    -5616.92990314
  entropy T*S    EENTRO =        -0.00000000
  eigenvalues    EBANDS =     -1239.18228071
  atomic energy  EATOM  =     11953.08265402
  Solvation  Ediel_sol  =         0.00000000
  ---------------------------------------------------
  free energy    TOTEN  =      -323.47333019 eV

  energy without entropy =     -323.47333019  energy(sigma->0) =     -323.47333019


--------------------------------------------------------------------------------------------------------




--------------------------------------- Iteration      1(  20)  ---------------------------------------


    POTLOK:  cpu time    0.2864: real time    0.2868
    SETDIJ:  cpu time    0.0111: real time    0.0111
    EDDIAG:  cpu time    2.6287: real time    2.6319
  RMM-DIIS:  cpu time   43.4909: real time   43.6487
    ORTHCH:  cpu time    0.2318: real time    0.2320
       DOS:  cpu time    0.0004: real time    0.0004
    CHARGE:  cpu time    1.2069: real time    1.2080
    MIXING:  cpu time    0.0132: real time    0.0132
    --------------------------------------------
      LOOP:  cpu time   47.8694: real time   48.0321

 eigenvalue-minimisations  :  2059
 total energy-change (2. order) :-0.5981392E-03  (-0.8724794E-05)
 number of electron     323.9999985 magnetization 
 augmentation part      -21.2196276 magnetization 

 Broyden mixing:
  rms(total) = 0.61273E-03    rms(broyden)= 0.61272E-03
  rms(prec ) = 0.71848E-03
  weight for this iteration     100.00

 eigenvalues of (default mixing * dielectric matrix)
  average eigenvalue GAMMA=   1.5236
  6.6481  3.2059  2.4777  1.8547  1.8547  1.1222  1.1222  0.8001  0.8001  0.8450
  0.5973  0.4027  0.3898  0.3638  0.3701

 Free energy of the ion-electron system (eV)
  ---------------------------------------------------
  alpha Z        PSCENC =       242.81581670
  Ewald energy   TEWEN  =     59501.61670717
  -Hartree energ DENC   =    -71336.58667013
  -exchange      EXHF   =         0.00000000
  -V(xc)+E(xc)   XCENC  =     -2090.34686703
  PAW double counting   =      8262.04485081    -5617.50777904
  entropy T*S    EENTRO =        -0.00000000
  eigenvalues    EBANDS =     -1238.59264084
  atomic energy  EATOM  =     11953.08265402
  Solvation  Ediel_sol  =         0.00000000
  ---------------------------------------------------
  free energy    TOTEN  =      -323.47392833 eV

  energy without entropy =     -323.47392833  energy(sigma->0) =     -323.47392833


--------------------------------------------------------------------------------------------------------




--------------------------------------- Iteration      1(  21)  ---------------------------------------


    POTLOK:  cpu time    0.2908: real time    0.2911
    SETDIJ:  cpu time    0.0121: real time    0.0121
    EDDIAG:  cpu time    2.6182: real time    2.6257
  RMM-DIIS:  cpu time   47.3048: real time   47.4350
    ORTHCH:  cpu time    0.2238: real time    0.2281
       DOS:  cpu time    0.0005: real time    0.0005
    CHARGE:  cpu time    1.2078: real time    1.2091
    MIXING:  cpu time    0.0088: real time    0.0088
    --------------------------------------------
      LOOP:  cpu time   51.6668: real time   51.8105

 eigenvalue-minimisations  :  2232
 total energy-change (2. order) :-0.1505353E-03  (-0.2534057E-05)
 number of electron     323.9999985 magnetization 
 augmentation part      -21.2206648 magnetization 

 Broyden mixing:
  rms(total) = 0.44320E-03    rms(broyden)= 0.44320E-03
  rms(prec ) = 0.53305E-03
  weight for this iteration     100.00

 eigenvalues of (default mixing * dielectric matrix)
  average eigenvalue GAMMA=   1.5445
  7.1116  3.4306  2.5612  1.8602  1.8103  1.8103  0.9994  0.9994  0.8000  0.8000
  0.5959  0.4055  0.4055  0.3898  0.3640  0.3691

 Free energy of the ion-electron system (eV)
  ---------------------------------------------------
  alpha Z        PSCENC =       242.81581670
  Ewald energy   TEWEN  =     59501.61670717
  -Hartree energ DENC   =    -71336.74011651
  -exchange      EXHF   =         0.00000000
  -V(xc)+E(xc)   XCENC  =     -2090.34798654
  PAW double counting   =      8262.21375100    -5617.67768472
  entropy T*S    EENTRO =        -0.00000000
  eigenvalues    EBANDS =     -1238.43721999
  atomic energy  EATOM  =     11953.08265402
  Solvation  Ediel_sol  =         0.00000000
  ---------------------------------------------------
  free energy    TOTEN  =      -323.47407886 eV

  energy without entropy =     -323.47407886  energy(sigma->0) =     -323.47407886


--------------------------------------------------------------------------------------------------------




--------------------------------------- Iteration      1(  22)  ---------------------------------------


    POTLOK:  cpu time    0.2931: real time    0.2974
    SETDIJ:  cpu time    0.0142: real time    0.0142
    EDDIAG:  cpu time    2.6249: real time    2.6324
  RMM-DIIS:  cpu time   43.2636: real time   43.3783
    ORTHCH:  cpu time    0.2698: real time    0.2701
       DOS:  cpu time    0.0005: real time    0.0005
    CHARGE:  cpu time    1.2030: real time    1.2042
    MIXING:  cpu time    0.0123: real time    0.0123
    --------------------------------------------
      LOOP:  cpu time   47.6815: real time   47.8094

 eigenvalue-minimisations  :  1945
 total energy-change (2. order) :-0.1064516E-03  (-0.1114371E-05)
 number of electron     323.9999985 magnetization 
 augmentation part      -21.2221669 magnetization 

 Broyden mixing:
[...]
 -0.000  -0.000   0.000  -0.000   0.000   0.011   0.000  -0.000
  0.000  -0.000  -0.000   0.000   0.000   0.000   0.011  -0.000
  0.000   0.000   0.000   0.000   0.000  -0.000  -0.000   0.011
 -0.000  -0.000  -0.001  -0.000   0.001   0.000   0.000  -0.000
 -0.000   0.000   0.013   0.001  -0.000   0.000  -0.000   0.000
 -0.009  -0.000  -0.000   0.018   0.000   0.000   0.000  -0.000
 -0.000  -0.000  -0.000  -0.001   0.014   0.000   0.000   0.000
  0.001   0.000  -0.001   0.000  -0.001  -0.000  -0.000   0.000
 total augmentation occupancy for first ion, spin component:           1
  1.936   0.192  -0.000  -0.200  -0.004  -0.012  -0.038   0.002  -0.000   0.002   0.007  -0.001  -0.001
  0.192   1.324   0.027   0.921   0.001  -0.015  -0.359   0.017  -0.002   0.004  -0.023   0.000   0.011
 -0.000   0.027   1.329   0.016  -0.001  -0.460  -0.016   0.005   0.002   0.111   0.001  -0.002   0.037
 -0.200   0.921   0.016   1.491  -0.008  -0.016  -0.536   0.004  -0.003   0.007   0.040  -0.004   0.002
 -0.004   0.001  -0.001  -0.008   1.337   0.005   0.003  -0.470   0.046  -0.002  -0.002   0.117  -0.001
 -0.012  -0.015  -0.460  -0.016   0.005   0.282   0.005  -0.002   0.001  -0.037   0.001   0.000  -0.006
 -0.038  -0.359  -0.016  -0.536   0.003   0.005   0.277  -0.001   0.000  -0.004  -0.043   0.001   0.000
  0.002   0.017   0.005   0.004  -0.470  -0.002  -0.001   0.305  -0.009   0.000  -0.002  -0.035   0.003
 -0.000  -0.002   0.002  -0.003   0.046   0.001   0.000  -0.009   0.019  -0.000   0.000   0.000   0.000
  0.002   0.004   0.111   0.007  -0.002  -0.037  -0.004   0.000  -0.000   0.017   0.001  -0.000  -0.001
  0.007  -0.023   0.001   0.040  -0.002   0.001  -0.043  -0.002   0.000   0.001   0.019  -0.000  -0.001
 -0.001   0.000  -0.002  -0.004   0.117   0.000   0.001  -0.035   0.000  -0.000  -0.000   0.018  -0.000
 -0.001   0.011   0.037   0.002  -0.001  -0.006   0.000   0.003   0.000  -0.001  -0.001  -0.000   0.020


------------------------ aborting loop because EDIFF is reached ----------------------------------------


    CHARGE:  cpu time    1.2145: real time    1.2157
    FORLOC:  cpu time    0.0816: real time    0.0857
    FORNL :  cpu time   14.5391: real time   14.5648
    STRESS:  cpu time   77.4024: real time   77.6212
    FORCOR:  cpu time    0.3279: real time    0.3282
    FORHAR:  cpu time    0.1386: real time    0.1388
    MIXING:  cpu time    0.0075: real time    0.0075
    OFIELD:  cpu time    0.0000: real time    0.0000

  Number of pair interactions contributing to vdW energy:  266353
  Edisp (eV):  -18.75284
    FORVDW:  cpu time    0.0295: real time    0.0295

  FORCE on cell =-STRESS in cart. coord.  units (eV):
  Direction    XX          YY          ZZ          XY          YZ          ZX
  --------------------------------------------------------------------------------------
  Alpha Z   242.81582   242.81582   242.81582
  Ewald   68688.10177 68530.11711-77708.37939    -5.34468    36.19771    -9.96422
  Hartree 70983.49674 70938.97327-70579.60806    -0.11829     1.91733    -3.66786
  E(xc)   -1351.65115 -1349.21115 -1368.95637     0.21298    -1.81165    -0.11543
  Local  ************************143234.60399     5.20153   -38.51041    12.86906
  n-local  3539.99141  3543.43095  3722.78478    -1.39473    13.19833     0.97533
  augment  -758.44567  -762.27720  -800.67998     0.16967    -2.30428    -0.32510
  Kinetic  3300.67922  3263.49940  3242.85762     0.80261     5.33816    -1.81171
  Fock        0.00000     0.00000     0.00000     0.00000     0.00000     0.00000
  vdW       -11.77341   -12.02284    -9.17701     0.04017    -0.90475    -0.39749
  -------------------------------------------------------------------------------------
  Total      10.05026   -30.41303   -23.73861    -0.43074    13.12045    -2.43743
  in kB       5.44807   -16.48636   -12.86828    -0.23349     7.11236    -1.32129
  external pressure =       -7.97 kB  Pullay stress =        0.00 kB

  kinetic pressure (ideal gas correction) =      0.22 kB
  total pressure  =     -7.75 kB
  Total+kin.     5.681     -16.283     -12.637      -0.246       7.079      -1.333

 VOLUME and BASIS-vectors are now :
 -----------------------------------------------------------------------------
  energy-cutoff  :      550.00
  volume of cell :     2955.60
      direct lattice vectors                 reciprocal lattice vectors
    10.366427261  0.000000000  0.000000000     0.096465250  0.053269266  0.001416244
    -5.179984024  9.380426860  0.000000000     0.000000000  0.106604957  0.002727659
    -0.016782370 -0.777690059 30.394415833     0.000000000  0.000000000  0.032900780

  length of vectors
    10.366427261 10.715626093 30.404368063     0.110205104  0.106639847  0.032900780


 FORCES acting on ions
    electron-ion (+dipol)            ewald-force                    non-local-force                 convergence-correction
 -----------------------------------------------------------------------------------------------
   -.189E+01 0.313E+01 0.818E+03   0.188E+01 -.300E+01 -.824E+03   0.357E+00 -.424E+00 0.551E+01   0.147E-03 -.231E-05 -.558E-03
   0.234E+01 0.318E+01 0.819E+03   -.232E+01 -.301E+01 -.824E+03   -.187E+00 -.633E+00 0.540E+01   -.870E-03 0.538E-03 0.306E-03
   -.266E+00 0.334E+01 0.817E+03   0.292E+00 -.316E+01 -.823E+03   0.116E+00 -.617E+00 0.542E+01   -.824E-04 -.100E-02 0.498E-03
   -.322E+00 0.436E+01 0.817E+03   0.305E+00 -.429E+01 -.822E+03   -.178E-01 -.469E+00 0.568E+01   0.629E-04 0.218E-03 0.435E-05
   -.102E-01 0.109E+01 0.818E+03   -.215E-01 -.101E+01 -.823E+03   -.549E-01 -.183E+00 0.551E+01   0.119E-02 0.507E-03 0.502E-03
   0.190E+00 0.106E+01 0.819E+03   -.236E+00 -.924E+00 -.824E+03   0.219E-03 -.418E+00 0.558E+01   -.498E-03 -.366E-03 -.512E-03
   0.155E+01 0.188E+01 0.817E+03   -.156E+01 -.176E+01 -.822E+03   -.705E-01 -.414E+00 0.554E+01   -.216E-03 0.691E-03 -.556E-03
   -.189E+01 0.180E+01 0.819E+03   0.192E+01 -.167E+01 -.824E+03   0.127E+00 -.357E+00 0.575E+01   -.271E-03 0.946E-03 0.153E-02
   -.813E+00 0.220E+01 0.818E+03   0.780E+00 -.213E+01 -.823E+03   0.175E+00 -.236E+00 0.576E+01   0.585E-03 -.163E-02 0.682E-04
   0.204E+00 0.309E+01 -.944E+02   -.209E+00 -.302E+01 0.891E+02   -.420E-01 -.322E+00 0.574E+01   0.256E-03 -.710E-03 0.572E-03
   -.669E+00 -.439E+00 -.944E+02   0.687E+00 0.590E+00 0.892E+02   -.199E-01 -.340E+00 0.559E+01   -.427E-03 0.776E-03 0.731E-03
   -.163E+01 0.334E+01 -.963E+02   0.159E+01 -.325E+01 0.910E+02   0.195E+00 -.489E+00 0.581E+01   0.476E-03 0.120E-03 0.204E-02
   0.140E+01 0.197E+01 -.959E+02   -.141E+01 -.189E+01 0.906E+02   -.168E+00 -.331E+00 0.571E+01   -.780E-03 -.163E-02 0.461E-03
   -.503E-01 0.273E+01 -.959E+02   -.442E-01 -.270E+01 0.906E+02   0.816E-01 -.405E+00 0.576E+01   -.740E-04 0.257E-03 0.290E-03
   0.137E+01 0.460E+01 -.959E+02   -.146E+01 -.448E+01 0.906E+02   -.641E-02 -.687E+00 0.560E+01   -.167E-02 -.483E-04 0.924E-03
   0.185E+00 0.495E+01 -.949E+02   -.233E+00 -.488E+01 0.896E+02   0.592E-01 -.603E+00 0.582E+01   0.498E-03 0.108E-03 -.638E-03
   0.101E+01 0.415E+01 -.936E+02   -.105E+01 -.404E+01 0.883E+02   -.110E-01 -.669E+00 0.555E+01   0.480E-03 0.139E-02 0.184E-03
   -.573E+00 0.553E+00 -.946E+02   0.491E+00 -.446E+00 0.893E+02   0.304E+00 -.233E+00 0.570E+01   0.112E-02 -.333E-03 0.279E-03
   -.159E+01 0.120E+01 0.923E+02   0.163E+01 -.122E+01 -.870E+02   0.146E+00 0.251E+00 -.570E+01   0.164E-03 -.195E-04 0.559E-03
   -.362E+00 -.179E+01 0.943E+02   0.397E+00 0.184E+01 -.891E+02   0.595E-01 0.311E+00 -.582E+01   -.918E-03 0.582E-03 -.324E-03
   0.142E+01 0.275E+01 0.941E+02   -.139E+01 -.278E+01 -.887E+02   -.727E-01 0.126E+00 -.544E+01   -.107E-03 -.109E-02 -.481E-03
   -.134E+01 0.876E+00 0.973E+02   0.139E+01 -.870E+00 -.919E+02   0.233E-01 0.166E+00 -.573E+01   0.582E-04 0.176E-03 -.105E-03
   -.244E+00 -.215E+01 0.970E+02   0.231E+00 0.214E+01 -.917E+02   -.644E-02 0.440E+00 -.575E+01   0.119E-02 0.594E-03 -.679E-03
   -.134E+01 0.196E+01 0.977E+02   0.132E+01 -.202E+01 -.924E+02   0.120E+00 0.136E+00 -.560E+01   -.513E-03 -.348E-03 0.293E-03
   0.191E+01 0.133E+01 0.971E+02   -.195E+01 -.134E+01 -.918E+02   0.245E-01 0.109E+00 -.574E+01   -.211E-03 0.747E-03 0.540E-03
   -.467E+00 -.820E+00 0.959E+02   0.481E+00 0.821E+00 -.907E+02   0.127E+00 0.254E+00 -.586E+01   -.240E-03 0.110E-02 -.147E-02
   -.203E+01 0.315E+01 0.958E+02   0.201E+01 -.319E+01 -.905E+02   0.394E+00 0.862E-01 -.584E+01   0.629E-03 -.165E-02 -.213E-03
   0.450E+01 0.186E+01 -.819E+03   -.458E+01 -.185E+01 0.825E+03   -.257E+00 0.109E+00 -.552E+01   0.238E-03 -.704E-03 -.792E-03
   -.104E+01 0.167E+01 -.820E+03   0.110E+01 -.167E+01 0.825E+03   0.813E-01 -.179E-01 -.540E+01   -.372E-03 0.752E-03 -.109E-02
   -.809E-01 0.235E+01 -.818E+03   0.850E-01 -.237E+01 0.823E+03   0.553E-01 0.654E-01 -.565E+01   0.484E-03 0.256E-03 -.250E-02
   -.309E+01 0.143E+01 -.818E+03   0.317E+01 -.144E+01 0.823E+03   0.227E+00 0.120E+00 -.535E+01   -.791E-03 -.169E-02 -.846E-03
   -.151E+01 -.326E+01 -.816E+03   0.146E+01 0.325E+01 0.822E+03   0.105E+00 0.488E+00 -.551E+01   -.140E-03 0.209E-03 -.603E-03
   -.572E+00 0.218E+01 -.817E+03   0.559E+00 -.218E+01 0.823E+03   -.181E-01 0.447E-01 -.522E+01   -.162E-02 0.581E-04 -.124E-02
   -.102E+01 0.132E+01 -.818E+03   0.102E+01 -.135E+01 0.823E+03   0.797E-01 0.217E+00 -.563E+01   0.523E-03 0.171E-04 0.389E-03
   0.202E+01 0.707E+00 -.818E+03   -.203E+01 -.720E+00 0.824E+03   -.142E+00 0.202E+00 -.557E+01   0.495E-03 0.135E-02 -.607E-03
   0.290E+00 0.146E+01 -.819E+03   -.310E+00 -.150E+01 0.824E+03   0.524E-01 0.210E+00 -.564E+01   0.113E-02 -.161E-03 -.717E-03
   0.287E+01 -.104E+01 0.452E+03   -.301E+01 0.110E+01 -.452E+03   -.410E+00 -.469E-01 -.165E+00   0.384E-03 -.134E-02 -.139E-03
   0.156E+01 -.490E+01 0.454E+03   -.157E+01 0.501E+01 -.454E+03   -.182E+00 0.239E+00 -.534E-01   -.346E-03 0.812E-03 -.172E-03
   0.241E+01 -.132E+01 0.456E+03   -.246E+01 0.133E+01 -.456E+03   -.229E+00 0.128E-01 -.149E-01   -.926E-03 0.833E-04 -.423E-04
   -.176E+01 -.574E+01 0.455E+03   0.175E+01 0.584E+01 -.455E+03   0.162E+00 0.419E+00 -.281E+00   -.545E-03 -.464E-03 -.119E-03
   -.459E+00 -.127E+01 0.457E+03   0.369E+00 0.125E+01 -.457E+03   -.201E-01 -.189E+00 0.377E-02   0.668E-03 0.555E-03 -.144E-03
   -.161E+01 -.368E+01 0.461E+03   0.165E+01 0.375E+01 -.460E+03   0.263E+00 0.300E-02 0.452E+00   -.340E-04 -.717E-04 0.721E-05
   0.482E+00 -.277E+01 0.460E+03   -.512E+00 0.284E+01 -.460E+03   -.127E+00 0.860E-01 0.114E+00   0.899E-04 -.685E-03 -.633E-04
   -.695E-01 -.352E+01 0.459E+03   0.576E-01 0.361E+01 -.459E+03   0.718E-01 0.913E-01 0.127E+00   -.329E-03 0.130E-02 -.904E-04
   -.112E+01 -.500E+01 0.455E+03   0.113E+01 0.506E+01 -.455E+03   -.603E-01 0.431E-01 0.966E-01   0.853E-03 -.348E-03 -.590E-05
   -.694E+00 -.400E+01 -.454E+03   0.654E+00 0.405E+01 0.454E+03   0.216E+00 -.390E-01 -.487E+00   -.290E-03 -.860E-03 -.160E-03
   -.811E+00 -.452E+01 -.457E+03   0.777E+00 0.453E+01 0.457E+03   0.903E-01 0.364E+00 -.324E+00   -.899E-03 0.496E-03 -.176E-03
   0.189E+01 -.160E+01 -.460E+03   -.196E+01 0.167E+01 0.460E+03   -.374E+00 0.398E-01 -.454E+00   -.124E-02 -.911E-03 -.262E-03
   -.361E+00 -.377E+01 -.457E+03   0.390E+00 0.385E+01 0.457E+03   -.145E-01 0.302E+00 -.150E+00   -.297E-03 -.268E-04 -.130E-03
   0.195E+01 -.247E+01 -.455E+03   -.195E+01 0.254E+01 0.455E+03   -.309E+00 -.184E+00 0.241E+00   0.543E-03 0.501E-03 -.105E-03
   -.262E+01 -.564E+01 -.458E+03   0.269E+01 0.580E+01 0.458E+03   0.103E+00 0.239E+00 -.282E+00   -.254E-03 -.512E-03 -.137E-03
   0.381E+00 0.364E-01 -.458E+03   -.332E+00 -.952E-02 0.458E+03   -.755E-01 -.918E-01 -.262E-01   0.644E-03 0.337E-03 -.979E-04
   -.508E+00 -.646E+01 -.456E+03   0.508E+00 0.660E+01 0.456E+03   0.117E+00 0.290E+00 -.149E+00   0.392E-03 0.152E-02 -.182E-03
   0.206E+01 -.265E+01 -.456E+03   -.217E+01 0.271E+01 0.456E+03   -.234E+00 0.361E-01 -.584E-01   0.138E-02 -.620E-03 -.131E-03
 -----------------------------------------------------------------------------------------------
   -.817E+00 0.290E+01 0.985E+00   0.622E-14 0.431E-13 -.148E-11   0.820E+00 -.289E+01 -.976E+00   -.289E-03 -.231E-03 -.590E-02
 
 
 POSITION                                       TOTAL-FORCE (eV/Angst)
 -----------------------------------------------------------------------------------
     -0.03229      1.82775      9.60276         0.323208     -0.285002      0.330548
     -1.71636      4.96604      9.60191        -0.170423     -0.448274      0.184938
     -3.47223      8.09963      9.61634         0.135578     -0.429497      0.198156
      3.44906      1.83242      9.59801        -0.035506     -0.391474      0.400174
      1.74422      4.93271      9.60292        -0.078090     -0.104001      0.228605
      0.00071      8.09160      9.59284        -0.044950     -0.272382      0.288398
      6.92624      1.83991      9.60788        -0.072835     -0.276583      0.253090
      5.17644      4.95778      9.57857         0.154636     -0.217142      0.526123
      3.45946      8.07518      9.58583         0.143330     -0.161871      0.542253
      9.48846      1.11178     17.10910        -0.061608     -0.257966      0.444275
      7.75366      4.22752     17.12293        -0.016818     -0.197405      0.286943
      6.03658      7.38529     17.12520         0.147367     -0.405133      0.439260
      2.58410      1.10616     17.13158        -0.185572     -0.256082      0.329512
      0.84823      4.25058     17.12294        -0.025713     -0.376204      0.354600
     -0.86461      7.39044     17.13960        -0.104934     -0.555666      0.212136
      6.02919      1.14680     17.10710        -0.001698     -0.525596      0.500739
      4.31285      4.26558     17.11518        -0.055989     -0.549991      0.230554
      2.55877      7.36598     17.11567         0.198742     -0.133863      0.351251
     -0.00464      1.74835     13.29848         0.198879      0.227781     -0.367240
     -1.72231      4.85903     13.28773         0.108670      0.344877     -0.479230
     -3.44619      7.99692     13.26632        -0.030075      0.087384     -0.042126
      3.44850      1.74900     13.26416         0.078768      0.166352     -0.315036
      1.72548      4.86252     13.26403        -0.007661      0.421563     -0.370659
      0.00052      8.00291     13.24933         0.118311      0.073834     -0.207294
      6.90737      1.76213     13.26903        -0.004086      0.094429     -0.360410
      5.17166      4.87158     13.28545         0.146871      0.251843     -0.520006
      3.41606      8.02529     13.28471         0.369855      0.048917     -0.480675
     -0.85404      1.04180     20.80139        -0.319306      0.105979     -0.282687
      7.73864      4.17553     20.79030         0.123018     -0.029652     -0.128937
     -4.32791      7.29846     20.79571         0.057110      0.033509     -0.325030
      2.54455      1.04657     20.77883         0.281348      0.090611     -0.009737
      0.86132      4.13936     20.77599         0.062769      0.455640     -0.187819
     -0.85444      7.27871     20.76466        -0.025895      0.036311      0.171268
      6.02649      1.03202     20.79373         0.082935      0.169064     -0.339423
      4.31658      4.15210     20.79185        -0.142771      0.173683     -0.304406
      2.59648      7.28872     20.80044         0.037748      0.155861     -0.392194
      0.01983     -0.27393     11.45893        -0.559402      0.001899     -0.119223
     -1.71028      2.82974     11.45172        -0.217259      0.359975     -0.005365
     -3.44267      5.96308     11.43993        -0.294327      0.024771     -0.001121
     -1.73603      9.06893     11.45352         0.187204      0.536800     -0.336493
      1.72008      2.85022     11.43684        -0.086372     -0.207115     -0.000520
     -0.00858      5.96787     11.40073         0.322696      0.074882      0.598906
      6.91755     -0.28039     11.42092        -0.158654      0.164883      0.115931
      5.17932      2.84507     11.42449         0.065305      0.187290      0.165721
      3.46324      5.97260     11.43143        -0.056013      0.123863      0.175828
      0.83274      2.12525     18.97905         0.204226      0.017795     -0.705069
     -0.88891      5.22592     18.97495         0.080167      0.399496     -0.357165
     -2.57286      8.37975     18.99151        -0.465659      0.103793     -0.506424
      4.29812      2.11591     18.96441         0.017425      0.390012     -0.108918
      2.60638      5.27164     18.93851        -0.355316     -0.116446      0.360736
      0.86045      8.36831     18.97511         0.182699      0.403458     -0.260033
      7.76518      2.13414     18.96060        -0.047266     -0.073077      0.043065
      6.02673      5.23550     18.96601         0.134585      0.452215     -0.154192
      4.32364      8.38983     18.96106        -0.336685      0.099689     -0.062476
 -----------------------------------------------------------------------------------
    total drift:                                0.002569      0.008037      0.003102


--------------------------------------------------------------------------------------------------------



  FREE ENERGIE OF THE ION-ELECTRON SYSTEM (eV)
  ---------------------------------------------------
  free  energy   TOTEN  =      -342.13598871 eV

  energy  without entropy=     -342.13598871  energy(sigma->0) =     -342.13598871
 
 d Force =-0.1616014E-01[-0.183E-01,-0.140E-01]  d Energy =-0.1611672E-01-0.434E-04
 d Force =-0.6816641E+01[-0.682E+01,-0.681E+01]  d Ewald  =-0.6816644E+01 0.307E-05


--------------------------------------------------------------------------------------------------------


    POTLOK:  cpu time    0.3084: real time    0.3086


--------------------------------------------------------------------------------------------------------


           RANDOM_SEED =         259565210              324                0
   IONSTEP:  cpu time    0.0001: real time    0.0001

  ENERGY OF THE ELECTRON-ION-THERMOSTAT SYSTEM (eV)
  ---------------------------------------------------
% ion-electron   TOTEN  =      -342.135989  see above
  kinetic energy EKIN   =         0.609836
  kin. lattice  EKIN_LAT=         0.000000  (temperature   89.02 K)
  nose potential ES     =        -0.014575
  nose kinetic   EPS    =         0.001177
  ---------------------------------------------------
  total energy   ETOTAL =      -341.539551 eV

  maximum distance moved by ions :      0.46E-03


 mean value of Nose-termostat <S>:     0.984 mean value of <T> :    89.016
 mean temperature <T/S>/<1/S>  :    89.016

    WAVPRE:  cpu time    0.1092: real time    0.1122
    FEWALD:  cpu time    0.0024: real time    0.0024
    ORTHCH:  cpu time    8.6585: real time    8.6760
    POTLOK:  cpu time    0.3053: real time    0.3096
    EDDIAG:  cpu time    2.6432: real time    2.6460
     LOOP+:  cpu time  503.2661: real time  504.6836
    4ORBIT:  cpu time    0.0000: real time    0.0000

 total amount of memory used by VASP MPI-rank0   365551. kBytes
=======================================================================

   base      :      30000. kBytes
   nonl-proj :     199618. kBytes
   fftplans  :      17372. kBytes
   grid      :      82746. kBytes
   one-center:        839. kBytes
   wavefun   :      34976. kBytes
 
  
  
 General timing and accounting informations for this job:
 ========================================================
  
                  Total CPU time used (sec):     6030.764
                            User time (sec):     6018.679
                          System time (sec):       12.085
                         Elapsed time (sec):     6047.477
  
                   Maximum memory used (kb):      804704.
                   Average memory used (kb):           0.
  
                          Minor page faults:       374414
                          Major page faults:            0
                 Voluntary context switches:          728
