0.000000000000000000e+00 2.032270000000000021e+00 9.546279999999999433e+00 -1.760000000000000009e+00 5.080680000000000085e+00 9.546279999999999433e+00 -3.520000000000000018e+00 8.129089999999999705e+00 9.546279999999999433e+00 3.520000000000000018e+00 2.032270000000000021e+00 9.546279999999999433e+00 1.760000000000000009e+00 5.080680000000000085e+00 9.546279999999999433e+00 0.000000000000000000e+00 8.129089999999999705e+00 9.546279999999999433e+00 7.040000000000000036e+00 2.032270000000000021e+00 9.546279999999999433e+00 5.280000000000000249e+00 5.080680000000000085e+00 9.546279999999999433e+00 3.520000000000000018e+00 8.129089999999999705e+00 9.546279999999999433e+00 1.760000000000000009e+00 2.032270000000000021e+00 1.683342000000000027e+01 0.000000000000000000e+00 5.080680000000000085e+00 1.683342000000000027e+01 -1.760000000000000009e+00 8.129089999999999705e+00 1.683342000000000027e+01 5.280000000000000249e+00 2.032270000000000021e+00 1.683342000000000027e+01 3.520000000000000018e+00 5.080680000000000085e+00 1.683342000000000027e+01 1.760000000000000009e+00 8.129089999999999705e+00 1.683342000000000027e+01 8.800000000000000711e+00 2.032270000000000021e+00 1.683342000000000027e+01 7.040000000000000036e+00 5.080680000000000085e+00 1.683342000000000027e+01 5.280000000000000249e+00 8.129089999999999705e+00 1.683342000000000027e+01 0.000000000000000000e+00 2.032270000000000021e+00 1.316660000000000075e+01 -1.760000000000000009e+00 5.080680000000000085e+00 1.316660000000000075e+01 -3.520000000000000018e+00 8.129089999999999705e+00 1.316660000000000075e+01 3.520000000000000018e+00 2.032270000000000021e+00 1.316660000000000075e+01 1.760000000000000009e+00 5.080680000000000085e+00 1.316660000000000075e+01 0.000000000000000000e+00 8.129089999999999705e+00 1.316660000000000075e+01 7.040000000000000036e+00 2.032270000000000021e+00 1.316660000000000075e+01 5.280000000000000249e+00 5.080680000000000085e+00 1.316660000000000075e+01 3.520000000000000018e+00 8.129089999999999705e+00 1.316660000000000075e+01 1.760000000000000009e+00 2.032270000000000021e+00 2.045373000000000019e+01 0.000000000000000000e+00 5.080680000000000085e+00 2.045373000000000019e+01 -1.760000000000000009e+00 8.129089999999999705e+00 2.045373000000000019e+01 5.280000000000000249e+00 2.032270000000000021e+00 2.045373000000000019e+01 3.520000000000000018e+00 5.080680000000000085e+00 2.045373000000000019e+01 1.760000000000000009e+00 8.129089999999999705e+00 2.045373000000000019e+01 8.800000000000000711e+00 2.032270000000000021e+00 2.045373000000000019e+01 7.040000000000000036e+00 5.080680000000000085e+00 2.045373000000000019e+01 5.280000000000000249e+00 8.129089999999999705e+00 2.045373000000000019e+01 0.000000000000000000e+00 0.000000000000000000e+00 1.135605999999999938e+01 -1.760000000000000009e+00 3.048410000000000064e+00 1.135605999999999938e+01 -3.520000000000000018e+00 6.096820000000000128e+00 1.135605999999999938e+01 3.520000000000000018e+00 0.000000000000000000e+00 1.135605999999999938e+01 1.760000000000000009e+00 3.048410000000000064e+00 1.135605999999999938e+01 0.000000000000000000e+00 6.096820000000000128e+00 1.135605999999999938e+01 7.040000000000000036e+00 0.000000000000000000e+00 1.135605999999999938e+01 5.280000000000000249e+00 3.048410000000000064e+00 1.135605999999999938e+01 3.520000000000000018e+00 6.096820000000000128e+00 1.135605999999999938e+01 1.760000000000000009e+00 0.000000000000000000e+00 1.864395999999999987e+01 0.000000000000000000e+00 3.048410000000000064e+00 1.864395999999999987e+01 -1.760000000000000009e+00 6.096820000000000128e+00 1.864395999999999987e+01 5.280000000000000249e+00 0.000000000000000000e+00 1.864395999999999987e+01 3.520000000000000018e+00 3.048410000000000064e+00 1.864395999999999987e+01 1.760000000000000009e+00 6.096820000000000128e+00 1.864395999999999987e+01 8.800000000000000711e+00 0.000000000000000000e+00 1.864395999999999987e+01 7.040000000000000036e+00 3.048410000000000064e+00 1.864395999999999987e+01 5.280000000000000249e+00 6.096820000000000128e+00 1.864395999999999987e+01
-4.000000000000000192e-04 2.034469999999999779e+00 9.545510000000000161e+00 -1.757220000000000004e+00 5.078079999999999927e+00 9.547330000000000538e+00 -3.521500000000000075e+00 8.127349999999999852e+00 9.545930000000000248e+00 3.516939999999999955e+00 2.033259999999999845e+00 9.545709999999999695e+00 1.761349999999999971e+00 5.077910000000000146e+00 9.548700000000000188e+00 2.569999999999999802e-03 8.131130000000000635e+00 9.548420000000000130e+00 7.037329999999999863e+00 2.031489999999999796e+00 9.544700000000000628e+00 5.280190000000000161e+00 5.083580000000000432e+00 9.546889999999999432e+00 3.521739999999999871e+00 8.125640000000000640e+00 9.546369999999999578e+00 1.759989999999999943e+00 2.032529999999999948e+00 1.683064999999999856e+01 -1.379999999999999933e-03 5.081299999999999706e+00 1.683254000000000161e+01 -1.759100000000000108e+00 8.128209999999999269e+00 1.683558999999999983e+01 5.280549999999999855e+00 2.029409999999999936e+00 1.683520000000000039e+01 3.518879999999999786e+00 5.081039999999999779e+00 1.683130999999999844e+01 1.760170000000000012e+00 8.129220000000000113e+00 1.683205999999999847e+01 8.796110000000000539e+00 2.031080000000000219e+00 1.683406000000000091e+01 7.040680000000000049e+00 5.080420000000000158e+00 1.683537000000000106e+01 5.278719999999999857e+00 8.130190000000000694e+00 1.683259999999999934e+01 4.800000000000000122e-04 2.032729999999999926e+00 1.316752999999999929e+01 -1.762799999999999923e+00 5.079240000000000421e+00 1.316503999999999941e+01 -3.520070000000000032e+00 8.127980000000000871e+00 1.316520000000000046e+01 3.519210000000000171e+00 2.031769999999999854e+00 1.316441999999999979e+01 1.760480000000000045e+00 5.079769999999999897e+00 1.316591999999999985e+01 -1.639999999999999965e-03 8.128700000000000259e+00 1.316616999999999926e+01 7.041920000000000179e+00 2.033469999999999889e+00 1.316868999999999978e+01 5.280020000000000380e+00 5.080219999999999736e+00 1.316920000000000002e+01 3.520430000000000170e+00 8.129379999999999384e+00 1.316625999999999941e+01 1.761200000000000099e+00 2.034219999999999917e+00 2.045295000000000130e+01 -1.440000000000000091e-03 5.082429999999999559e+00 2.045355999999999952e+01 -1.760180000000000078e+00 8.130639999999999645e+00 2.045380000000000109e+01 5.279569999999999652e+00 2.033650000000000180e+00 2.044981999999999900e+01 3.521399999999999864e+00 5.081089999999999662e+00 2.045461999999999847e+01 1.762780000000000014e+00 8.132600000000000051e+00 2.045337999999999923e+01 8.802030000000000243e+00 2.031280000000000197e+00 2.045485000000000042e+01 7.041680000000000383e+00 5.079920000000000435e+00 2.045431999999999917e+01 5.282409999999999606e+00 8.129229999999999734e+00 2.045460999999999885e+01 -5.278769999999999740e+00 9.144249999999999545e+00 1.135490000000000066e+01 -1.760150000000000103e+00 3.052290000000000170e+00 1.135671999999999926e+01 -3.519890000000000185e+00 6.097290000000000099e+00 1.135571000000000019e+01 3.520480000000000054e+00 2.269999999999999882e-03 1.135430000000000028e+01 1.759570000000000078e+00 3.047149999999999803e+00 1.135444999999999993e+01 -2.540000000000000157e-03 6.096260000000000012e+00 1.135660000000000025e+01 1.760920000000000041e+00 9.143399999999999750e+00 1.135378000000000043e+01 5.281600000000000072e+00 3.045739999999999892e+00 1.135940000000000083e+01 3.517739999999999867e+00 6.094369999999999621e+00 1.135823000000000071e+01 -3.518670000000000186e+00 9.143739999999999313e+00 1.864276999999999873e+01 5.599999999999999509e-04 3.047849999999999948e+00 1.864383000000000123e+01 -1.762329999999999952e+00 6.098090000000000011e+00 1.864706999999999937e+01 5.279989999999999739e+00 1.010000000000000047e-03 1.864129000000000147e+01 3.520420000000000105e+00 3.048329999999999984e+00 1.864408999999999850e+01 1.761160000000000059e+00 6.099459999999999660e+00 1.864791999999999916e+01 3.516849999999999810e+00 9.143380000000000507e+00 1.864555999999999969e+01 7.040659999999999918e+00 3.052189999999999959e+00 1.864263000000000048e+01 5.278319999999999901e+00 6.095139999999999780e+00 1.864223000000000141e+01
-8.000000000000000383e-04 2.036659999999999915e+00 9.544739999999999114e+00 -1.754440000000000000e+00 5.075490000000000279e+00 9.548370000000000246e+00 -3.522990000000000066e+00 8.125609999999999999e+00 9.545560000000000045e+00 3.513889999999999958e+00 2.034240000000000048e+00 9.545139999999999958e+00 1.762690000000000090e+00 5.075140000000000207e+00 9.551099999999999923e+00 5.130000000000000011e-03 8.133169999999999789e+00 9.550549999999999429e+00 7.034670000000000201e+00 2.030710000000000015e+00 9.543129999999999669e+00 5.280369999999999564e+00 5.086470000000000269e+00 9.547499999999999432e+00 3.523470000000000102e+00 8.122189999999999799e+00 9.546450000000000102e+00 1.759980000000000100e+00 2.032779999999999809e+00 1.682789000000000001e+01 -2.759999999999999867e-03 5.081920000000000215e+00 1.683167999999999864e+01 -1.758199999999999985e+00 8.127330000000000609e+00 1.683775999999999939e+01 5.281100000000000350e+00 2.026559999999999917e+00 1.683697000000000088e+01 3.517759999999999998e+00 5.081400000000000361e+00 1.682920999999999978e+01 1.760350000000000081e+00 8.129350000000000520e+00 1.683070000000000022e+01 8.792229999999999990e+00 2.029879999999999907e+00 1.683470000000000155e+01 7.041360000000000063e+00 5.080169999999999852e+00 1.683730999999999867e+01 5.277429999999999843e+00 8.131280000000000285e+00 1.683176999999999879e+01 9.600000000000000243e-04 2.033180000000000209e+00 1.316845999999999961e+01 -1.765589999999999993e+00 5.077799999999999869e+00 1.316350000000000087e+01 -3.520140000000000047e+00 8.126870000000000260e+00 1.316380999999999979e+01 3.518419999999999881e+00 2.031270000000000131e+00 1.316224000000000061e+01 1.760950000000000015e+00 5.078850000000000087e+00 1.316524000000000072e+01 -3.279999999999999930e-03 8.128299999999999415e+00 1.316573999999999955e+01 7.043849999999999945e+00 2.034660000000000135e+00 1.317076999999999920e+01 5.280050000000000132e+00 5.079760000000000275e+00 1.317181000000000068e+01 3.520869999999999944e+00 8.129670000000000840e+00 1.316592999999999947e+01 1.762389999999999901e+00 2.036150000000000126e+00 2.045216999999999885e+01 -2.880000000000000181e-03 5.084179999999999922e+00 2.045338999999999885e+01 -1.760359999999999925e+00 8.132199999999999207e+00 2.045386999999999844e+01 5.279149999999999565e+00 2.035019999999999829e+00 2.044592000000000098e+01 3.522790000000000088e+00 5.081500000000000128e+00 2.045551000000000030e+01 1.765540000000000109e+00 8.136100000000000776e+00 2.045304000000000144e+01 8.804050000000000153e+00 2.030289999999999928e+00 2.045596000000000103e+01 7.043350000000000222e+00 5.079150000000000276e+00 2.045492000000000132e+01 5.284810000000000230e+00 8.129360000000000142e+00 2.045548000000000144e+01 -5.277549999999999741e+00 9.143280000000000740e+00 1.135375999999999941e+01 -1.760310000000000041e+00 3.056130000000000013e+00 1.135736999999999952e+01 -3.519779999999999909e+00 6.097760000000000069e+00 1.135535999999999923e+01 3.520950000000000024e+00 4.519999999999999712e-03 1.135256000000000043e+01 1.759130000000000082e+00 3.045889999999999986e+00 1.135286999999999935e+01 -5.069999999999999854e-03 6.095710000000000406e+00 1.135713999999999935e+01 1.761849999999999916e+00 9.141600000000000392e+00 1.135153000000000034e+01 5.283190000000000275e+00 3.043089999999999851e+00 1.136273000000000089e+01 3.515489999999999782e+00 6.091940000000000133e+00 1.136040000000000028e+01 -3.517349999999999977e+00 9.142269999999999897e+00 1.864159000000000077e+01 1.110000000000000092e-03 3.047299999999999898e+00 1.864368999999999943e+01 -1.764650000000000052e+00 6.099350000000000271e+00 1.865015000000000001e+01 5.279980000000000118e+00 2.010000000000000068e-03 1.863863999999999876e+01 3.520830000000000126e+00 3.048259999999999970e+00 1.864420000000000144e+01 1.762310000000000043e+00 6.102089999999999570e+00 1.865184999999999960e+01 3.513720000000000176e+00 9.141540000000000887e+00 1.864714999999999989e+01 7.041319999999999801e+00 3.055950000000000166e+00 1.864132000000000033e+01 5.276650000000000063e+00 6.093469999999999942e+00 1.864050999999999902e+01
-1.209999999999999921e-03 2.038839999999999986e+00 9.543969999999999843e+00 -1.751689999999999969e+00 5.072919999999999874e+00 9.549379999999999313e+00 -3.524459999999999926e+00 8.123879999999999768e+00 9.545189999999999841e+00 3.510870000000000157e+00 2.035229999999999873e+00 9.544560000000000599e+00 1.764019999999999921e+00 5.072390000000000398e+00 9.553480000000000416e+00 7.669999999999999735e-03 8.135189999999999699e+00 9.552649999999999864e+00 7.032020000000000159e+00 2.029939999999999856e+00 9.541560000000000485e+00 5.280549999999999855e+00 5.089330000000000354e+00 9.548109999999999431e+00 3.525199999999999889e+00 8.118750000000000355e+00 9.546530000000000626e+00 1.759970000000000034e+00 2.033030000000000115e+00 1.682514000000000109e+01 -4.129999999999999991e-03 5.082539999999999836e+00 1.683083999999999847e+01 -1.757309999999999928e+00 8.126440000000000552e+00 1.683990000000000009e+01 5.281649999999999956e+00 2.023730000000000029e+00 1.683871999999999858e+01 3.516640000000000210e+00 5.081760000000000055e+00 1.682713000000000036e+01 1.760520000000000085e+00 8.129469999999999530e+00 1.682933999999999841e+01 8.788370000000000459e+00 2.028680000000000039e+00 1.683534999999999826e+01 7.042029999999999568e+00 5.079930000000000057e+00 1.683923000000000059e+01 5.276150000000000340e+00 8.132360000000000255e+00 1.683096000000000103e+01 1.440000000000000091e-03 2.033619999999999983e+00 1.316937000000000069e+01 -1.768380000000000063e+00 5.076369999999999827e+00 1.316197999999999979e+01 -3.520210000000000061e+00 8.125769999999999271e+00 1.316241999999999912e+01 3.517640000000000100e+00 2.030769999999999964e+00 1.316009000000000029e+01 1.761409999999999920e+00 5.077930000000000277e+00 1.316458000000000084e+01 -4.910000000000000302e-03 8.127919999999999590e+00 1.316530000000000022e+01 7.045770000000000088e+00 2.035829999999999806e+00 1.317285000000000039e+01 5.280070000000000263e+00 5.079290000000000305e+00 1.317440000000000033e+01 3.521300000000000097e+00 8.129949999999999122e+00 1.316559999999999953e+01 1.763579999999999925e+00 2.038079999999999892e+00 2.045138999999999996e+01 -4.320000000000000055e-03 5.085919999999999774e+00 2.045323000000000135e+01 -1.760529999999999928e+00 8.133760000000000545e+00 2.045394999999999897e+01 5.278730000000000366e+00 2.036389999999999922e+00 2.044202999999999903e+01 3.524179999999999868e+00 5.081909999999999705e+00 2.045639999999999858e+01 1.768270000000000008e+00 8.139590000000000103e+00 2.045271999999999935e+01 8.806060000000000443e+00 2.029319999999999791e+00 2.045705999999999847e+01 7.044990000000000308e+00 5.078400000000000247e+00 2.045553999999999917e+01 5.287200000000000344e+00 8.129490000000000549e+00 2.045634000000000086e+01 -5.276349999999999874e+00 9.142329999999999401e+00 1.135261999999999993e+01 -1.760469999999999979e+00 3.059909999999999908e+00 1.135800000000000054e+01 -3.519670000000000076e+00 6.098200000000000287e+00 1.135501000000000005e+01 3.521399999999999864e+00 6.740000000000000331e-03 1.135082000000000058e+01 1.758699999999999930e+00 3.044630000000000170e+00 1.135131999999999941e+01 -7.570000000000000340e-03 6.095150000000000290e+00 1.135768999999999984e+01 1.762799999999999923e+00 9.139820000000000277e+00 1.134933000000000014e+01 5.284760000000000346e+00 3.040480000000000071e+00 1.136599999999999966e+01 3.513279999999999959e+00 6.089520000000000266e+00 1.136256000000000022e+01 -3.516049999999999898e+00 9.140840000000000742e+00 1.864040999999999926e+01 1.649999999999999991e-03 3.046749999999999847e+00 1.864352999999999838e+01 -1.766939999999999955e+00 6.100609999999999644e+00 1.865319999999999823e+01 5.279989999999999739e+00 2.969999999999999984e-03 1.863604000000000127e+01 3.521220000000000017e+00 3.048210000000000086e+00 1.864427999999999841e+01 1.763439999999999896e+00 6.104709999999999859e+00 1.865571999999999875e+01 3.510639999999999983e+00 9.139730000000000132e+00 1.864871000000000123e+01 7.041979999999999684e+00 3.059660000000000046e+00 1.864004999999999868e+01 5.275000000000000355e+00 6.091809999999999725e+00 1.863880999999999943e+01
-1.639999999999999965e-03 2.040999999999999925e+00 9.543200000000000571e+00 -1.748960000000000070e+00 5.070380000000000109e+00 9.550369999999999138e+00 -3.525910000000000100e+00 8.122159999999999158e+00 9.544800000000000395e+00 3.507880000000000109e+00 2.036220000000000141e+00 9.543960000000000221e+00 1.765320000000000000e+00 5.069659999999999833e+00 9.555839999999999890e+00 1.018999999999999941e-02 8.137180000000000746e+00 9.554729999999999279e+00 7.029399999999999871e+00 2.029180000000000206e+00 9.540020000000000167e+00 5.280730000000000146e+00 5.092139999999999667e+00 9.548750000000000071e+00 3.526920000000000055e+00 8.115309999999999135e+00 9.546599999999999753e+00 1.759970000000000034e+00 2.033279999999999976e+00 1.682241000000000142e+01 -5.490000000000000088e-03 5.083169999999999966e+00 1.683004000000000033e+01 -1.756429999999999936e+00 8.125550000000000495e+00 1.684199999999999875e+01 5.282199999999999562e+00 2.020950000000000024e+00 1.684044000000000096e+01 3.515499999999999847e+00 5.082110000000000127e+00 1.682506000000000057e+01 1.760680000000000023e+00 8.129569999999999297e+00 1.682798999999999978e+01 8.784539999999999793e+00 2.027480000000000171e+00 1.683598999999999890e+01 7.042699999999999960e+00 5.079710000000000392e+00 1.684111000000000047e+01 5.274869999999999948e+00 8.133440000000000225e+00 1.683015999999999934e+01 1.910000000000000022e-03 2.034060000000000201e+00 1.317027000000000037e+01 -1.771160000000000068e+00 5.074970000000000425e+00 1.316050000000000075e+01 -3.520259999999999945e+00 8.124689999999999301e+00 1.316103999999999985e+01 3.516849999999999810e+00 2.030269999999999797e+00 1.315797000000000061e+01 1.761830000000000007e+00 5.076999999999999957e+00 1.316394000000000020e+01 -6.539999999999999807e-03 8.127539999999999765e+00 1.316487000000000052e+01 7.047699999999999854e+00 2.036970000000000169e+00 1.317491000000000057e+01 5.280100000000000016e+00 5.078820000000000334e+00 1.317698000000000036e+01 3.521729999999999805e+00 8.130229999999999180e+00 1.316526999999999958e+01 1.764769999999999950e+00 2.039989999999999970e+00 2.045061000000000107e+01 -5.729999999999999850e-03 5.087650000000000006e+00 2.045307999999999993e+01 -1.760699999999999932e+00 8.135320000000000107e+00 2.045403999999999911e+01 5.278330000000000410e+00 2.037770000000000081e+00 2.043817999999999913e+01 3.525570000000000093e+00 5.082309999999999661e+00 2.045730000000000004e+01 1.770969999999999933e+00 8.143079999999999430e+00 2.045243999999999929e+01 8.808059999999999334e+00 2.028350000000000097e+00 2.045814999999999984e+01 7.046610000000000262e+00 5.077659999999999840e+00 2.045616000000000057e+01 5.289579999999999949e+00 8.129599999999999937e+00 2.045717000000000141e+01 -5.275179999999999758e+00 9.141410000000000480e+00 1.135149999999999970e+01 -1.760650000000000048e+00 3.063579999999999970e+00 1.135862000000000016e+01 -3.519559999999999800e+00 6.098629999999999995e+00 1.135467000000000048e+01 3.521830000000000016e+00 8.920000000000000845e-03 1.134909000000000034e+01 1.758259999999999934e+00 3.043379999999999974e+00 1.134980999999999973e+01 -1.001999999999999939e-02 6.094599999999999795e+00 1.135823000000000071e+01 1.763759999999999994e+00 9.138090000000000046e+00 1.134720000000000084e+01 5.286290000000000155e+00 3.037929999999999797e+00 1.136918999999999969e+01 3.511130000000000084e+00 6.087130000000000152e+00 1.136471000000000053e+01 -3.514780000000000015e+00 9.139459999999999695e+00 1.863925000000000054e+01 2.190000000000000106e-03 3.046199999999999797e+00 1.864336000000000126e+01 -1.769200000000000106e+00 6.101849999999999774e+00 1.865619999999999834e+01 5.280030000000000001e+00 3.889999999999999795e-03 1.863350000000000151e+01 3.521580000000000155e+00 3.048200000000000021e+00 1.864431000000000083e+01 1.764559999999999906e+00 6.107300000000000395e+00 1.865950000000000131e+01 3.507629999999999804e+00 9.137959999999999638e+00 1.865024000000000015e+01 7.042650000000000077e+00 3.063299999999999912e+00 1.863881999999999906e+01 5.273390000000000022e+00 6.090189999999999770e+00 1.863714999999999833e+01
-2.079999999999999818e-03 2.043130000000000113e+00 9.542439999999999145e+00 -1.746259999999999923e+00 5.067890000000000228e+00 9.551310000000000855e+00 -3.527330000000000076e+00 8.120459999999999567e+00 9.544389999999999930e+00 3.504939999999999944e+00 2.037220000000000031e+00 9.543359999999999843e+00 1.766599999999999948e+00 5.066970000000000418e+00 9.558170000000000499e+00 1.268000000000000030e-02 8.139139999999999375e+00 9.556760000000000588e+00 7.026810000000000223e+00 2.028439999999999799e+00 9.538500000000000867e+00 5.280890000000000306e+00 5.094909999999999606e+00 9.549409999999999954e+00 3.528640000000000221e+00 8.111879999999999313e+00 9.546670000000000655e+00 1.759959999999999969e+00 2.033510000000000151e+00 1.681971000000000060e+01 -6.830000000000000134e-03 5.083820000000000228e+00 1.682929000000000030e+01 -1.755549999999999944e+00 8.124639999999999418e+00 1.684406999999999854e+01 5.282740000000000435e+00 2.018209999999999837e+00 1.684211000000000169e+01 3.514359999999999928e+00 5.082460000000000200e+00 1.682301000000000002e+01 1.760839999999999961e+00 8.129659999999999442e+00 1.682664000000000115e+01 8.780749999999999389e+00 2.026289999999999925e+00 1.683663999999999916e+01 7.043359999999999843e+00 5.079509999999999970e+00 1.684294999999999831e+01 5.273579999999999934e+00 8.134499999999999176e+00 1.682937000000000083e+01 2.370000000000000145e-03 2.034489999999999910e+00 1.317115000000000080e+01 -1.773910000000000098e+00 5.073610000000000397e+00 1.315906999999999982e+01 -3.520300000000000207e+00 8.123620000000000729e+00 1.315967000000000020e+01 3.516070000000000029e+00 2.029760000000000009e+00 1.315588999999999942e+01 1.762219999999999898e+00 5.076060000000000016e+00 1.316332000000000058e+01 -8.139999999999999666e-03 8.127169999999999561e+00 1.316442999999999941e+01 7.049629999999999619e+00 2.038069999999999826e+00 1.317694999999999972e+01 5.280120000000000147e+00 5.078350000000000364e+00 1.317953999999999937e+01 3.522159999999999958e+00 8.130499999999999616e+00 1.316493000000000002e+01 1.765949999999999909e+00 2.041869999999999852e+00 2.044982999999999862e+01 -7.139999999999999646e-03 5.089360000000000106e+00 2.045294000000000167e+01 -1.760850000000000026e+00 8.136900000000000688e+00 2.045414999999999850e+01 5.277949999999999697e+00 2.039140000000000175e+00 2.043436000000000163e+01 3.526949999999999807e+00 5.082709999999999617e+00 2.045820000000000149e+01 1.773609999999999909e+00 8.146549999999999514e+00 2.045220000000000127e+01 8.810029999999999362e+00 2.027410000000000156e+00 2.045921999999999841e+01 7.048189999999999955e+00 5.076939999999999564e+00 2.045680000000000121e+01 5.291940000000000310e+00 8.129699999999999704e+00 2.045798999999999879e+01 -5.274049999999999905e+00 9.140520000000000422e+00 1.135040000000000049e+01 -1.760850000000000026e+00 3.067110000000000003e+00 1.135920999999999914e+01 -3.519439999999999902e+00 6.099020000000000330e+00 1.135431999999999952e+01 3.522209999999999841e+00 1.103999999999999947e-02 1.134737999999999936e+01 1.757830000000000004e+00 3.042149999999999910e+00 1.134838000000000058e+01 -1.242000000000000048e-02 6.094039999999999679e+00 1.135877999999999943e+01 1.764750000000000041e+00 9.136430000000000717e+00 1.134515999999999991e+01 5.287770000000000081e+00 3.035449999999999982e+00 1.137227999999999994e+01 3.509049999999999780e+00 6.084780000000000300e+00 1.136683000000000021e+01 -3.513539999999999885e+00 9.138149999999999551e+00 1.863810000000000144e+01 2.700000000000000143e-03 3.045659999999999812e+00 1.864314999999999856e+01 -1.771409999999999929e+00 6.103089999999999904e+00 1.865914000000000073e+01 5.280100000000000016e+00 4.740000000000000289e-03 1.863106000000000151e+01 3.521910000000000096e+00 3.048220000000000152e+00 1.864429000000000158e+01 1.765660000000000007e+00 6.109849999999999781e+00 1.866317000000000093e+01 3.504719999999999835e+00 9.136240000000000805e+00 1.865172000000000097e+01 7.043319999999999581e+00 3.066860000000000142e+00 1.863765000000000072e+01 5.271819999999999951e+00 6.088589999999999947e+00 1.863553999999999888e+01
-2.550000000000000183e-03 2.045230000000000103e+00 9.541679999999999495e+00 -1.743610000000000104e+00 5.065439999999999721e+00 9.552210000000000534e+00 -3.528719999999999857e+00 8.118790000000000617e+00 9.543960000000000221e+00 3.502060000000000173e+00 2.038219999999999921e+00 9.542749999999999844e+00 1.767849999999999921e+00 5.064300000000000246e+00 9.560470000000000468e+00 1.512999999999999935e-02 8.141069999999999141e+00 9.558740000000000236e+00 7.024250000000000327e+00 2.027699999999999836e+00 9.537010000000000431e+00 5.281049999999999578e+00 5.097610000000000419e+00 9.550100000000000477e+00 3.530339999999999812e+00 8.108459999999999113e+00 9.546739999999999782e+00 1.759959999999999969e+00 2.033739999999999881e+00 1.681702999999999903e+01 -8.170000000000000179e-03 5.084480000000000111e+00 1.682861000000000118e+01 -1.754690000000000083e+00 8.123720000000000496e+00 1.684608000000000061e+01 5.283280000000000420e+00 2.015530000000000044e+00 1.684373000000000076e+01 3.513189999999999813e+00 5.082799999999999763e+00 1.682100000000000151e+01 1.760990000000000055e+00 8.129730000000000345e+00 1.682528999999999897e+01 8.776999999999999247e+00 2.025090000000000057e+00 1.683728999999999942e+01 7.044010000000000105e+00 5.079349999999999810e+00 1.684474000000000160e+01 5.272289999999999921e+00 8.135540000000000660e+00 1.682860000000000156e+01 2.820000000000000024e-03 2.034920000000000062e+00 1.317201000000000022e+01 -1.776659999999999906e+00 5.072280000000000122e+00 1.315770000000000017e+01 -3.520329999999999959e+00 8.122569999999999624e+00 1.315831000000000017e+01 3.515289999999999804e+00 2.029259999999999842e+00 1.315385000000000026e+01 1.762569999999999970e+00 5.075099999999999945e+00 1.316272000000000020e+01 -9.740000000000000394e-03 8.126810000000000755e+00 1.316398000000000046e+01 7.051560000000000272e+00 2.039120000000000044e+00 1.317896999999999963e+01 5.280149999999999899e+00 5.077869999999999884e+00 1.318207999999999913e+01 3.522590000000000110e+00 8.130770000000000053e+00 1.316459000000000046e+01 1.767120000000000024e+00 2.043719999999999981e+00 2.044904999999999973e+01 -8.519999999999999796e-03 5.091059999999999697e+00 2.045281999999999911e+01 -1.760979999999999990e+00 8.138489999999999114e+00 2.045428000000000068e+01 5.277599999999999625e+00 2.040500000000000203e+00 2.043057999999999907e+01 3.528329999999999966e+00 5.083099999999999952e+00 2.045911999999999864e+01 1.776189999999999936e+00 8.150009999999999977e+00 2.045201000000000136e+01 8.811989999999999768e+00 2.026479999999999837e+00 2.046027000000000129e+01 7.049719999999999764e+00 5.076240000000000308e+00 2.045747000000000071e+01 5.294290000000000163e+00 8.129780000000000229e+00 2.045876000000000161e+01 -5.272960000000000313e+00 9.139680000000000248e+00 1.134933000000000014e+01 -1.761069999999999913e+00 3.070479999999999876e+00 1.135975999999999964e+01 -3.519330000000000069e+00 6.099370000000000402e+00 1.135397999999999996e+01 3.522549999999999848e+00 1.307999999999999961e-02 1.134568999999999939e+01 1.757390000000000008e+00 3.040919999999999845e+00 1.134702000000000055e+01 -1.474999999999999922e-02 6.093490000000000073e+00 1.135932000000000031e+01 1.765770000000000062e+00 9.134840000000000515e+00 1.134323999999999977e+01 5.289200000000000124e+00 3.033059999999999867e+00 1.137526000000000082e+01 3.507050000000000001e+00 6.082480000000000331e+00 1.136894000000000027e+01 -3.512340000000000018e+00 9.136939999999999173e+00 1.863697000000000159e+01 3.200000000000000153e-03 3.045119999999999827e+00 1.864290000000000092e+01 -1.773570000000000091e+00 6.104309999999999903e+00 1.866198999999999941e+01 5.280210000000000292e+00 5.510000000000000141e-03 1.862873000000000090e+01 3.522180000000000089e+00 3.048299999999999788e+00 1.864418999999999826e+01 1.766729999999999912e+00 6.112370000000000303e+00 1.866669999999999874e+01 3.501910000000000078e+00 9.134579999999999700e+00 1.865313000000000088e+01 7.043999999999999595e+00 3.070310000000000095e+00 1.863656999999999897e+01 5.270310000000000272e+00 6.087030000000000385e+00 1.863397000000000148e+01