2.199999999999999943e-05 2.631000000000000092e-03 -1.164800000000000037e-02 1.900000000000000105e-05 2.631000000000000092e-03 -1.164699999999999937e-02 2.099999999999999884e-05 2.631999999999999791e-03 -1.164600000000000010e-02 1.200000000000000030e-05 2.628000000000000128e-03 -1.162799999999999945e-02 1.800000000000000046e-05 2.625999999999999862e-03 -1.162700000000000018e-02 6.000000000000000152e-06 2.625999999999999862e-03 -1.163199999999999998e-02 -1.000000000000000082e-05 2.622000000000000199e-03 -1.164300000000000057e-02 -1.399999999999999979e-05 2.615000000000000137e-03 -1.163800000000000077e-02 -3.000000000000000076e-06 2.606999999999999942e-03 -1.164399999999999984e-02 -5.000000000000000409e-06 -2.768000000000000061e-03 -1.140500000000000021e-02 -3.000000000000000076e-06 -2.772999999999999857e-03 -1.139800000000000015e-02 -3.000000000000000076e-06 -2.775000000000000123e-03 -1.140799999999999974e-02 2.199999999999999943e-05 -2.755000000000000070e-03 -1.140500000000000021e-02 1.699999999999999987e-05 -2.759000000000000168e-03 -1.140200000000000068e-02 2.199999999999999943e-05 -2.759999999999999867e-03 -1.140299999999999994e-02 1.000000000000000082e-05 -2.762999999999999831e-03 -1.138499999999999929e-02 1.299999999999999920e-05 -2.766999999999999928e-03 -1.138699999999999955e-02 6.999999999999999895e-06 -2.762999999999999831e-03 -1.139100000000000008e-02 1.900000000000000105e-05 -2.758000000000000035e-03 1.140000000000000041e-02 1.699999999999999987e-05 -2.762999999999999831e-03 1.139899999999999941e-02 1.599999999999999928e-05 -2.756000000000000203e-03 1.139699999999999915e-02 7.999999999999999638e-06 -2.760999999999999999e-03 1.137799999999999923e-02 1.500000000000000038e-05 -2.765999999999999796e-03 1.137799999999999923e-02 5.000000000000000409e-06 -2.765999999999999796e-03 1.137999999999999949e-02 -1.000000000000000082e-05 -2.766999999999999928e-03 1.139599999999999988e-02 -1.599999999999999928e-05 -2.775999999999999822e-03 1.139000000000000082e-02 -3.999999999999999819e-06 -2.782000000000000185e-03 1.139500000000000061e-02 -6.000000000000000152e-06 2.621000000000000066e-03 1.166400000000000076e-02 -3.999999999999999819e-06 2.618000000000000101e-03 1.165899999999999923e-02 -3.000000000000000076e-06 2.612999999999999871e-03 1.166799999999999955e-02 1.800000000000000046e-05 2.632999999999999924e-03 1.166500000000000002e-02 1.299999999999999920e-05 2.629999999999999959e-03 1.166200000000000049e-02 2.000000000000000164e-05 2.628000000000000128e-03 1.166299999999999976e-02 9.000000000000000228e-06 2.625999999999999862e-03 1.164600000000000010e-02 1.200000000000000030e-05 2.622000000000000199e-03 1.164699999999999937e-02 3.999999999999999819e-06 2.626999999999999995e-03 1.165199999999999916e-02 -1.200000000000000030e-05 1.710000000000000094e-04 -2.759999999999999867e-04 -1.399999999999999979e-05 1.720000000000000066e-04 -2.759999999999999867e-04 -1.599999999999999928e-05 1.689999999999999879e-04 -2.799999999999999755e-04 -6.000000000000000152e-06 1.779999999999999898e-04 -2.869999999999999830e-04 -1.999999999999999909e-06 1.789999999999999870e-04 -2.880000000000000073e-04 -3.999999999999999819e-06 1.720000000000000066e-04 -2.840000000000000185e-04 -2.599999999999999840e-05 1.620000000000000075e-04 -2.860000000000000129e-04 -2.799999999999999958e-05 1.669999999999999935e-04 -2.849999999999999886e-04 -2.400000000000000061e-05 1.579999999999999916e-04 -2.869999999999999830e-04 -2.699999999999999899e-05 1.649999999999999991e-04 2.680000000000000090e-04 -2.699999999999999899e-05 1.679999999999999907e-04 2.660000000000000146e-04 -2.199999999999999943e-05 1.600000000000000131e-04 2.669999999999999847e-04 -6.999999999999999895e-06 1.730000000000000038e-04 2.599999999999999772e-04 -1.200000000000000030e-05 1.759999999999999954e-04 2.629999999999999959e-04 -1.200000000000000030e-05 1.700000000000000122e-04 2.669999999999999847e-04 -7.999999999999999638e-06 1.769999999999999926e-04 2.700000000000000035e-04 -3.999999999999999819e-06 1.800000000000000113e-04 2.709999999999999735e-04 -9.000000000000000228e-06 1.720000000000000066e-04 2.669999999999999847e-04
-1.441300000000000046e-02 -2.098399999999999918e-02 -4.585999999999999799e-03 -3.026799999999999977e-02 3.948900000000000327e-02 -4.160400000000000209e-02 2.707000000000000031e-02 1.862400000000000166e-02 -2.313700000000000132e-02 4.184199999999999725e-02 5.709999999999999798e-03 -1.642700000000000063e-02 -2.346399999999999875e-02 2.860899999999999901e-02 -3.527700000000000280e-02 -2.712300000000000127e-02 -2.570000000000000062e-02 -4.398699999999999832e-02 2.898299999999999835e-02 1.353599999999999942e-02 1.564700000000000119e-02 -7.666000000000000071e-03 -4.586099999999999899e-02 1.199300000000000019e-02 -8.751999999999999363e-03 1.108400000000000010e-02 -1.233300000000000021e-02 1.079000000000000098e-03 -8.299000000000000821e-03 1.641899999999999957e-02 1.240400000000000010e-02 7.767999999999999731e-03 3.685700000000000087e-02 -9.856999999999999443e-03 -9.259999999999999135e-03 -4.532900000000000124e-02 -3.420999999999999996e-03 4.078799999999999787e-02 -4.492999999999999772e-02 -9.903000000000000344e-03 -6.739000000000000198e-03 1.494700000000000022e-02 -4.726000000000000166e-03 -1.700000000000000122e-02 -4.144000000000000114e-03 3.465399999999999731e-02 1.150000000000000035e-04 -5.753000000000000301e-03 -7.733000000000000290e-03 1.892200000000000132e-02 -4.545600000000000335e-02 -7.759999999999999971e-04 -1.435499999999999970e-02 5.493999999999999752e-03 -6.438000000000000146e-03 -9.669999999999999776e-03 -1.068999999999999985e-02 1.509600000000000004e-02 2.495500000000000149e-02 4.997399999999999759e-02 1.136999999999999990e-02 1.345000000000000015e-02 1.684000000000000080e-02 2.213999999999999822e-03 -3.465000000000000198e-03 4.163399999999999740e-02 -2.925399999999999875e-02 -1.137299999999999943e-02 2.679399999999999837e-02 1.196499999999999994e-02 7.623999999999999701e-03 4.387000000000000274e-03 1.730000000000000038e-04 -3.609699999999999714e-02 -1.017099999999999949e-02 1.716000000000000077e-03 -4.938999999999999814e-03 -9.350000000000000672e-03 -2.164999999999999824e-03 -6.564000000000000390e-03 6.991999999999999951e-03 -6.232999999999999825e-03 -2.025400000000000117e-02 9.133999999999999758e-03 1.485500000000000015e-02 -1.114599999999999966e-02 1.816299999999999859e-02 1.097399999999999938e-02 8.658000000000000765e-03 2.034000000000000044e-02 1.657600000000000046e-02 -7.979999999999999897e-04 4.066800000000000276e-02 -4.826000000000000428e-03 -3.207000000000000215e-03 1.342899999999999996e-02 -4.523200000000000137e-02 -1.105500000000000059e-02 4.308800000000000130e-02 -1.853799999999999892e-02 1.742799999999999905e-02 -8.845999999999999697e-03 -3.498199999999999921e-02 1.738999999999999921e-02 2.292100000000000040e-02 -1.495800000000000081e-02 -1.095699999999999973e-02 -1.502599999999999943e-02 -2.534700000000000147e-02 2.395299999999999860e-02 1.379700000000000024e-02 -1.148000000000000062e-02 -8.725800000000000223e-02 -1.920399999999999885e-02 1.583999999999999905e-03 -2.091799999999999909e-02 3.440000000000000132e-04 -2.485100000000000156e-02 -3.792600000000000138e-02 1.105700000000000086e-02 -4.300000000000000165e-05 7.395999999999999797e-03 4.163100000000000134e-02 3.765899999999999803e-02 2.380000000000000117e-04 1.710000000000000094e-04 1.541599999999999915e-02 4.184899999999999731e-02 6.042399999999999854e-02 -3.108700000000000005e-02 4.936999999999999722e-02 -6.672500000000000653e-02 4.670099999999999946e-02 2.525900000000000020e-02 -1.263599999999999966e-02 -2.336999999999999841e-02 4.756900000000000017e-02 1.085500000000000007e-02 -9.773000000000000437e-03 4.093000000000000284e-03 -1.910600000000000145e-02 3.059800000000000020e-02 -9.338000000000000814e-03 -4.479600000000000248e-02 2.090499999999999997e-02 -4.017899999999999944e-02 5.883300000000000335e-02 -2.468100000000000155e-02 2.646000000000000088e-02 -3.759599999999999748e-02 -1.527500000000000038e-02 -2.330300000000000080e-02 -7.654400000000000093e-02 5.906499999999999945e-02 3.307299999999999823e-02 -3.076100000000000015e-02 4.048000000000000383e-03 -5.759199999999999736e-02 4.131800000000000056e-02 2.988999999999999990e-02 2.137100000000000111e-02 3.028799999999999895e-02
-2.863399999999999973e-02 -4.457499999999999657e-02 2.360000000000000119e-03 -6.036899999999999905e-02 7.647299999999999931e-02 -7.226299999999999391e-02 5.385000000000000203e-02 3.456599999999999950e-02 -3.478599999999999748e-02 8.320900000000000518e-02 8.430999999999999259e-03 -2.182299999999999865e-02 -4.674999999999999989e-02 5.473599999999999993e-02 -5.892200000000000215e-02 -5.453399999999999914e-02 -5.421700000000000130e-02 -7.653500000000000580e-02 5.736399999999999832e-02 2.413099999999999967e-02 4.213700000000000084e-02 -1.531300000000000022e-02 -9.340700000000000391e-02 3.462300000000000100e-02 -1.752899999999999944e-02 1.956400000000000153e-02 -1.284800000000000005e-02 1.977000000000000025e-03 -1.368300000000000072e-02 4.382300000000000084e-02 2.442100000000000173e-02 1.774699999999999889e-02 8.397899999999999809e-02 -1.963300000000000115e-02 -1.585200000000000151e-02 -7.940400000000000236e-02 -6.801999999999999887e-03 8.474399999999999988e-02 -7.882699999999999430e-02 -1.945799999999999960e-02 -1.052999999999999943e-02 4.093299999999999716e-02 -9.390000000000000777e-03 -3.106400000000000133e-02 2.981999999999999842e-03 6.915999999999999925e-02 2.942000000000000171e-03 -3.719999999999999891e-04 -1.538600000000000037e-02 4.095499999999999835e-02 -7.974100000000000632e-02 -1.440000000000000091e-03 -2.593900000000000025e-02 2.217500000000000027e-02 -1.279100000000000029e-02 -1.657700000000000146e-02 -3.247200000000000086e-02 3.020799999999999874e-02 5.295300000000000007e-02 8.894399999999999529e-02 2.247800000000000145e-02 2.966099999999999987e-02 2.239599999999999924e-02 4.218000000000000395e-03 -4.180999999999999821e-03 7.193199999999999594e-02 -5.861199999999999743e-02 -2.005799999999999944e-02 4.236499999999999988e-02 2.383100000000000149e-02 1.789200000000000165e-02 -2.514000000000000175e-03 2.939999999999999905e-04 -6.875000000000000555e-02 -3.105099999999999874e-02 3.291000000000000088e-03 -7.087999999999999683e-03 -2.976900000000000032e-02 -4.224000000000000324e-03 -1.029500000000000033e-02 2.530999999999999830e-03 -1.261900000000000001e-02 -4.273699999999999721e-02 6.890000000000000291e-03 2.976200000000000026e-02 -2.491900000000000018e-02 2.453800000000000078e-02 2.189899999999999833e-02 1.465999999999999942e-02 2.918099999999999861e-02 3.324300000000000171e-02 -4.366000000000000089e-03 6.963400000000000145e-02 -9.717999999999999208e-03 -8.932000000000000703e-03 1.521400000000000009e-02 -9.090499999999999969e-02 -2.523399999999999949e-02 7.531200000000000394e-02 -3.647399999999999948e-02 3.202399999999999691e-02 -2.896999999999999922e-02 -6.970899999999999319e-02 3.178899999999999781e-02 3.459700000000000275e-02 -2.993699999999999833e-02 -2.428999999999999909e-02 -4.123700000000000282e-02 -5.046300000000000091e-02 4.736400000000000332e-02 2.764600000000000043e-02 -2.242800000000000002e-02 -1.745309999999999917e-01 -3.751000000000000167e-02 3.203000000000000118e-03 -4.163700000000000040e-02 9.290000000000000297e-04 -4.940100000000000047e-02 -7.575199999999999989e-02 2.224599999999999841e-02 -3.359999999999999814e-04 1.431400000000000033e-02 8.357699999999999851e-02 7.509200000000000597e-02 4.159999999999999744e-04 8.239999999999999712e-04 3.132100000000000162e-02 8.293899999999999884e-02 1.204439999999999955e-01 -6.147400000000000087e-02 9.759099999999999719e-02 -1.316879999999999995e-01 9.329600000000000393e-02 5.037699999999999817e-02 -2.496999999999999914e-02 -4.661900000000000072e-02 9.439999999999999780e-02 2.130800000000000055e-02 -1.946000000000000160e-02 7.988000000000000309e-03 -3.809699999999999892e-02 6.085900000000000337e-02 -1.857200000000000170e-02 -8.944900000000000073e-02 4.173299999999999926e-02 -8.069500000000000284e-02 1.174400000000000027e-01 -4.930899999999999866e-02 5.267800000000000260e-02 -7.531000000000000194e-02 -3.004899999999999932e-02 -4.624099999999999738e-02 -1.517969999999999875e-01 1.182359999999999939e-01 6.616600000000000259e-02 -6.234399999999999664e-02 7.841000000000000747e-03 -1.151289999999999952e-01 8.205400000000000194e-02 5.918400000000000050e-02 4.231700000000000045e-02 5.972500000000000031e-02
-4.258300000000000279e-02 -6.806700000000000250e-02 8.994999999999999524e-03 -9.029299999999999826e-02 1.133989999999999998e-01 -1.032219999999999943e-01 8.033700000000000563e-02 5.035400000000000292e-02 -4.642799999999999705e-02 1.240699999999999997e-01 1.065699999999999981e-02 -2.759999999999999953e-02 -6.968299999999999494e-02 8.100400000000000655e-02 -8.270900000000000474e-02 -8.215400000000000480e-02 -8.274399999999999811e-02 -1.090700000000000003e-01 8.497399999999999398e-02 3.441099999999999715e-02 6.794200000000000239e-02 -2.285200000000000078e-02 -1.399370000000000058e-01 5.612199999999999828e-02 -2.644099999999999923e-02 2.814300000000000135e-02 -1.322699999999999917e-02 2.652999999999999976e-03 -1.895700000000000163e-02 7.073000000000000120e-02 3.605200000000000071e-02 2.705400000000000166e-02 1.296569999999999945e-01 -2.936400000000000121e-02 -2.231599999999999903e-02 -1.132810000000000067e-01 -1.015500000000000083e-02 1.288640000000000063e-01 -1.129050000000000054e-01 -2.849700000000000150e-02 -1.408300000000000003e-02 6.626500000000000445e-02 -1.395399999999999939e-02 -4.483199999999999685e-02 1.002100000000000039e-02 1.035129999999999939e-01 5.808999999999999928e-03 4.634000000000000098e-03 -2.295600000000000071e-02 6.312600000000000156e-02 -1.141390000000000043e-01 -1.770000000000000089e-03 -3.745600000000000318e-02 3.847600000000000325e-02 -1.912700000000000164e-02 -2.339199999999999960e-02 -5.361799999999999899e-02 4.533299999999999830e-02 8.098400000000000043e-02 1.279369999999999952e-01 3.331900000000000139e-02 4.570899999999999963e-02 2.803200000000000136e-02 6.237999999999999622e-03 -4.923000000000000292e-03 1.020689999999999931e-01 -8.781600000000000517e-02 -2.868499999999999869e-02 5.820499999999999979e-02 3.554100000000000315e-02 2.804600000000000148e-02 -9.199999999999999845e-03 7.299999999999999903e-05 -1.004219999999999974e-01 -5.131600000000000050e-02 4.785000000000000191e-03 -9.289999999999999647e-03 -4.993600000000000122e-02 -6.179999999999999730e-03 -1.404099999999999966e-02 -1.726000000000000104e-03 -1.919699999999999879e-02 -6.475499999999999312e-02 4.745000000000000086e-03 4.473200000000000093e-02 -3.871100000000000235e-02 3.071099999999999872e-02 3.257499999999999979e-02 2.057099999999999901e-02 3.796700000000000075e-02 4.980300000000000005e-02 -8.097999999999999296e-03 9.868100000000000482e-02 -1.475300000000000049e-02 -1.450100000000000000e-02 1.684400000000000133e-02 -1.367200000000000082e-01 -4.005700000000000233e-02 1.080969999999999986e-01 -5.365600000000000230e-02 4.642099999999999699e-02 -4.861599999999999949e-02 -1.039709999999999940e-01 4.577900000000000025e-02 4.662100000000000272e-02 -4.478700000000000042e-02 -3.722400000000000014e-02 -6.684199999999999864e-02 -7.512800000000000034e-02 7.015299999999999314e-02 4.116199999999999720e-02 -3.295399999999999718e-02 -2.609600000000000253e-01 -5.506899999999999989e-02 4.782999999999999925e-03 -6.194100000000000300e-02 1.474999999999999966e-03 -7.336800000000000266e-02 -1.130670000000000008e-01 3.318200000000000316e-02 -7.929999999999999766e-04 2.097299999999999859e-02 1.251780000000000115e-01 1.120749999999999941e-01 7.820000000000000345e-04 1.608000000000000054e-03 4.732800000000000201e-02 1.232020000000000060e-01 1.792100000000000082e-01 -9.094399999999999706e-02 1.445690000000000031e-01 -1.946450000000000125e-01 1.395260000000000111e-01 7.534000000000000419e-02 -3.725400000000000239e-02 -6.954499999999999571e-02 1.404100000000000070e-01 3.156699999999999784e-02 -2.901400000000000159e-02 1.183400000000000077e-02 -5.648899999999999755e-02 9.059000000000000385e-02 -2.749899999999999914e-02 -1.333040000000000058e-01 6.217299999999999910e-02 -1.210269999999999957e-01 1.755770000000000108e-01 -7.376499999999999724e-02 7.846200000000000396e-02 -1.124799999999999967e-01 -4.431800000000000322e-02 -6.860199999999999632e-02 -2.248310000000000031e-01 1.771959999999999924e-01 9.929499999999999438e-02 -9.421499999999999320e-02 1.136999999999999990e-02 -1.721270000000000022e-01 1.220720000000000000e-01 8.779099999999999404e-02 6.294800000000000395e-02 8.836399999999999810e-02
-5.617300000000000071e-02 -9.142799999999999538e-02 1.534699999999999953e-02 -1.198720000000000063e-01 1.500180000000000125e-01 -1.340649999999999897e-01 1.062830000000000025e-01 6.593799999999999661e-02 -5.790900000000000214e-02 1.642230000000000079e-01 1.231499999999999956e-02 -3.371199999999999891e-02 -9.225300000000000167e-02 1.073500000000000010e-01 -1.065649999999999931e-01 -1.098390000000000061e-01 -1.112400000000000055e-01 -1.414489999999999914e-01 1.118119999999999947e-01 4.437100000000000072e-02 9.297600000000000309e-02 -3.018099999999999949e-02 -1.852719999999999922e-01 7.628699999999999370e-02 -3.540599999999999997e-02 3.694999999999999674e-02 -1.352899999999999936e-02 3.380999999999999891e-03 -2.418700000000000017e-02 9.700300000000000589e-02 4.717699999999999672e-02 3.584600000000000286e-02 1.733560000000000101e-01 -3.910000000000000281e-02 -2.852599999999999927e-02 -1.467160000000000131e-01 -1.354799999999999928e-02 1.729890000000000039e-01 -1.468490000000000073e-01 -3.680699999999999944e-02 -1.743600000000000011e-02 9.100500000000000256e-02 -1.828499999999999917e-02 -5.809500000000000081e-02 1.693100000000000160e-02 1.374380000000000046e-01 8.633000000000000049e-03 8.859999999999999820e-03 -3.040700000000000000e-02 8.525599999999999845e-02 -1.483700000000000019e-01 -1.673000000000000008e-03 -4.889000000000000290e-02 5.452599999999999808e-02 -2.555400000000000033e-02 -3.014599999999999919e-02 -7.405799999999999883e-02 6.054099999999999759e-02 1.087930000000000008e-01 1.665099999999999913e-01 4.372899999999999704e-02 6.148100000000000093e-02 3.369699999999999779e-02 8.378999999999999296e-03 -5.699000000000000073e-03 1.320330000000000115e-01 -1.167460000000000025e-01 -3.706199999999999772e-02 7.432999999999999330e-02 4.704699999999999854e-02 3.793099999999999944e-02 -1.561500000000000041e-02 -6.080000000000000335e-04 -1.308100000000000096e-01 -7.095300000000000218e-02 6.289999999999999584e-03 -1.155300000000000077e-02 -6.983999999999999930e-02 -7.889999999999999444e-03 -1.780599999999999891e-02 -5.519999999999999733e-03 -2.564500000000000113e-02 -8.628600000000000159e-02 2.716999999999999797e-03 5.964499999999999663e-02 -5.227099999999999802e-02 3.689400000000000318e-02 4.276200000000000140e-02 2.622199999999999878e-02 4.647300000000000042e-02 6.593000000000000249e-02 -1.186599999999999981e-02 1.276940000000000019e-01 -1.992000000000000021e-02 -1.999599999999999989e-02 1.800799999999999970e-02 -1.822270000000000001e-01 -5.555800000000000322e-02 1.412770000000000137e-01 -7.020099999999999951e-02 6.038199999999999817e-02 -6.747400000000000619e-02 -1.375149999999999983e-01 5.940299999999999747e-02 5.874800000000000161e-02 -5.948099999999999915e-02 -4.962899999999999950e-02 -9.197199999999999820e-02 -9.915000000000000202e-02 9.217200000000000393e-02 5.432700000000000029e-02 -4.294499999999999706e-02 -3.458930000000000060e-01 -7.180100000000000371e-02 6.392000000000000112e-03 -8.174900000000000222e-02 2.046000000000000076e-03 -9.661899999999999655e-02 -1.498200000000000087e-01 4.396300000000000208e-02 -1.502999999999999996e-03 2.743299999999999905e-02 1.661090000000000066e-01 1.483760000000000079e-01 1.263000000000000017e-03 2.439000000000000196e-03 6.314899999999999680e-02 1.624349999999999961e-01 2.363649999999999918e-01 -1.192870000000000041e-01 1.901740000000000097e-01 -2.553670000000000107e-01 1.851740000000000053e-01 1.001230000000000037e-01 -4.962400000000000144e-02 -9.183199999999999696e-02 1.852000000000000035e-01 4.170900000000000302e-02 -3.832200000000000190e-02 1.556500000000000071e-02 -7.404900000000000371e-02 1.194370000000000015e-01 -3.592399999999999760e-02 -1.761900000000000133e-01 8.185099999999999321e-02 -1.607230000000000047e-01 2.329160000000000119e-01 -9.760099999999999332e-02 1.034879999999999967e-01 -1.486629999999999896e-01 -5.787699999999999789e-02 -9.030399999999999539e-02 -2.953520000000000034e-01 2.356530000000000014e-01 1.321060000000000012e-01 -1.261510000000000131e-01 1.427699999999999976e-02 -2.282760000000000067e-01 1.611120000000000052e-01 1.156689999999999940e-01 8.319799999999999418e-02 1.161739999999999995e-01
-6.904000000000000414e-02 -1.145560000000000050e-01 2.153899999999999912e-02 -1.489250000000000018e-01 1.861520000000000119e-01 -1.647730000000000028e-01 1.315320000000000100e-01 8.133200000000000152e-02 -6.915000000000000313e-02 2.031189999999999940e-01 1.335599999999999982e-02 -4.000299999999999689e-02 -1.142350000000000032e-01 1.334849999999999925e-01 -1.300099999999999867e-01 -1.372929999999999984e-01 -1.394330000000000014e-01 -1.731769999999999976e-01 1.378379999999999883e-01 5.368200000000000055e-02 1.168389999999999984e-01 -3.734599999999999725e-02 -2.290790000000000048e-01 9.468000000000000027e-02 -4.453000000000000014e-02 4.606400000000000078e-02 -1.349999999999999985e-02 3.726000000000000145e-03 -2.900200000000000000e-02 1.221799999999999969e-01 5.791099999999999720e-02 4.387100000000000027e-02 2.152590000000000059e-01 -4.848399999999999932e-02 -3.445499999999999952e-02 -1.797009999999999996e-01 -1.668400000000000091e-02 2.166849999999999887e-01 -1.802709999999999868e-01 -4.453300000000000314e-02 -2.030699999999999866e-02 1.147870000000000001e-01 -2.242699999999999902e-02 -7.090100000000000569e-02 2.394200000000000148e-02 1.709370000000000056e-01 1.168499999999999921e-02 1.270400000000000001e-02 -3.760399999999999854e-02 1.069050000000000000e-01 -1.821210000000000051e-01 -1.273999999999999959e-03 -6.019200000000000245e-02 6.968799999999999994e-02 -3.183199999999999918e-02 -3.680400000000000338e-02 -9.376700000000000312e-02 7.587900000000000200e-02 1.361590000000000023e-01 2.045730000000000048e-01 5.360399999999999887e-02 7.700500000000000400e-02 3.938799999999999940e-02 1.036199999999999968e-02 -6.553999999999999930e-03 1.615350000000000119e-01 -1.451469999999999982e-01 -4.529699999999999699e-02 9.036500000000000088e-02 5.839600000000000346e-02 4.762700000000000267e-02 -2.186099999999999849e-02 -1.796000000000000070e-03 -1.600109999999999866e-01 -8.967300000000000271e-02 7.718000000000000034e-03 -1.368399999999999998e-02 -8.910500000000000365e-02 -9.388999999999999777e-03 -2.153599999999999959e-02 -8.972000000000000808e-03 -3.235600000000000281e-02 -1.068319999999999964e-01 1.038000000000000077e-03 7.462299999999999489e-02 -6.573099999999999776e-02 4.242599999999999844e-02 5.272700000000000303e-02 3.144299999999999873e-02 5.491399999999999754e-02 8.173999999999999322e-02 -1.579399999999999901e-02 1.564419999999999977e-01 -2.556100000000000039e-02 -2.516300000000000134e-02 1.880199999999999927e-02 -2.271690000000000098e-01 -7.188700000000000645e-02 1.742249999999999910e-01 -8.589199999999999613e-02 7.408499999999999808e-02 -8.586100000000000676e-02 -1.700119999999999965e-01 7.237200000000000577e-02 7.086000000000000631e-02 -7.418099999999999694e-02 -6.141800000000000037e-02 -1.159369999999999984e-01 -1.222290000000000043e-01 1.133200000000000041e-01 6.689699999999999813e-02 -5.204199999999999798e-02 -4.286619999999999875e-01 -8.754699999999999982e-02 7.943999999999999673e-03 -1.006159999999999971e-01 2.635000000000000189e-03 -1.190370000000000039e-01 -1.855279999999999985e-01 5.432399999999999729e-02 -2.546000000000000086e-03 3.355400000000000049e-02 2.058979999999999977e-01 1.838780000000000137e-01 1.850000000000000082e-03 3.299999999999999982e-03 7.865999999999999381e-02 2.000989999999999991e-01 2.912399999999999989e-01 -1.464979999999999893e-01 2.338349999999999873e-01 -3.131479999999999819e-01 2.295740000000000003e-01 1.244890000000000024e-01 -6.181799999999999795e-02 -1.133770000000000056e-01 2.285069999999999879e-01 5.151499999999999829e-02 -4.757000000000000117e-02 1.949700000000000044e-02 -9.055900000000000061e-02 1.475789999999999880e-01 -4.420700000000000324e-02 -2.175449999999999884e-01 1.010530000000000039e-01 -1.995979999999999976e-01 2.887350000000000194e-01 -1.208039999999999947e-01 1.277959999999999929e-01 -1.835459999999999869e-01 -7.088999999999999468e-02 -1.111309999999999937e-01 -3.624140000000000139e-01 2.926480000000000192e-01 1.644349999999999978e-01 -1.577459999999999973e-01 1.704299999999999912e-02 -2.831020000000000203e-01 1.986930000000000085e-01 1.423480000000000023e-01 1.027529999999999971e-01 1.428159999999999985e-01
-8.140100000000000113e-02 -1.373499999999999999e-01 2.728600000000000123e-02 -1.775450000000000084e-01 2.214210000000000067e-01 -1.949490000000000112e-01 1.560020000000000018e-01 9.630900000000000571e-02 -8.011200000000000265e-02 2.410740000000000105e-01 1.381300000000000062e-02 -4.628299999999999775e-02 -1.354080000000000006e-01 1.595270000000000021e-01 -1.533210000000000128e-01 -1.643789999999999973e-01 -1.671269999999999978e-01 -2.042730000000000101e-01 1.628449999999999898e-01 6.262500000000000011e-02 1.399219999999999908e-01 -4.421100000000000030e-02 -2.714889999999999803e-01 1.115909999999999958e-01 -5.385700000000000209e-02 5.546800000000000341e-02 -1.332999999999999984e-02 3.972999999999999969e-03 -3.380899999999999878e-02 1.464699999999999891e-01 6.808799999999999575e-02 5.119900000000000145e-02 2.545540000000000025e-01 -5.785400000000000265e-02 -3.972300000000000136e-02 -2.117239999999999955e-01 -1.985100000000000059e-02 2.596539999999999959e-01 -2.130319999999999991e-01 -5.116400000000000114e-02 -2.273700000000000027e-02 1.377079999999999971e-01 -2.626099999999999962e-02 -8.290400000000000547e-02 3.073999999999999996e-02 2.039559999999999984e-01 1.474999999999999922e-02 1.551199999999999975e-02 -4.478599999999999942e-02 1.282189999999999996e-01 -2.151929999999999954e-01 -1.949999999999999965e-04 -7.141400000000000525e-02 8.466899999999999427e-02 -3.830599999999999977e-02 -4.331700000000000134e-02 -1.123239999999999933e-01 9.119199999999999529e-02 1.626569999999999960e-01 2.416969999999999952e-01 6.291900000000000270e-02 9.202100000000000557e-02 4.519499999999999906e-02 1.277499999999999990e-02 -7.408999999999999787e-03 1.904019999999999879e-01 -1.727029999999999954e-01 -5.306999999999999912e-02 1.066689999999999999e-01 6.954000000000000459e-02 5.717599999999999766e-02 -2.763699999999999837e-02 -3.838999999999999965e-03 -1.875360000000000082e-01 -1.079610000000000014e-01 9.175000000000000863e-03 -1.595999999999999849e-02 -1.082660000000000011e-01 -1.063300000000000009e-02 -2.535700000000000107e-02 -1.170599999999999939e-02 -3.898900000000000282e-02 -1.267060000000000131e-01 -5.940000000000000184e-04 8.947099999999999498e-02 -7.900100000000000178e-02 4.780999999999999833e-02 6.197699999999999737e-02 3.635399999999999743e-02 6.281399999999999484e-02 9.668799999999999617e-02 -1.987600000000000131e-02 1.850779999999999925e-01 -3.129699999999999843e-02 -3.009500000000000022e-02 1.893099999999999991e-02 -2.711230000000000029e-01 -8.884799999999999642e-02 2.069789999999999963e-01 -1.006950000000000067e-01 8.722900000000000098e-02 -1.032209999999999933e-01 -2.015149999999999997e-01 8.503399999999999848e-02 8.282000000000000473e-02 -8.856300000000000283e-02 -7.255499999999999450e-02 -1.394150000000000111e-01 -1.442829999999999946e-01 1.332820000000000116e-01 7.876199999999999868e-02 -6.075599999999999751e-02 -5.084039999999999671e-01 -1.022399999999999975e-01 9.308000000000000301e-03 -1.188580000000000053e-01 3.275000000000000133e-03 -1.401640000000000108e-01 -2.198970000000000091e-01 6.424199999999999355e-02 -3.680999999999999810e-03 3.939000000000000140e-02 2.441750000000000032e-01 2.181259999999999866e-01 2.540999999999999856e-03 4.125000000000000194e-03 9.345399999999999541e-02 2.362660000000000038e-01 3.434249999999999803e-01 -1.720710000000000017e-01 2.754079999999999862e-01 -3.676499999999999768e-01 2.726629999999999887e-01 1.480730000000000102e-01 -7.377999999999999836e-02 -1.338739999999999930e-01 2.698220000000000063e-01 6.097600000000000242e-02 -5.640499999999999681e-02 2.315299999999999997e-02 -1.058579999999999938e-01 1.741820000000000035e-01 -5.174600000000000033e-02 -2.570760000000000267e-01 1.190329999999999999e-01 -2.370589999999999919e-01 3.425679999999999836e-01 -1.429819999999999980e-01 1.508639999999999981e-01 -2.167860000000000065e-01 -8.289499999999999647e-02 -1.309349999999999958e-01 -4.256530000000000036e-01 3.482080000000000175e-01 1.957450000000000023e-01 -1.887020000000000086e-01 1.923700000000000063e-02 -3.360029999999999961e-01 2.345180000000000042e-01 1.679279999999999939e-01 1.217590000000000061e-01 1.682019999999999904e-01