1.674843025490461601e+00 -1.103060079409610723e-03 1.808295212146902902e-05 -1.103060079409610723e-03 -2.131799225599983749e-01 3.616590424293805804e-05 1.808295212146902902e-05 3.616590424293805804e-05 4.386743355147171841e-01
1.720592894357778180e+00 3.831777554539287506e-02 -1.324395413376391606e-01 3.831777554539287506e-02 -1.671045605544952961e-01 -1.377559292613510511e-01 -1.324395413376391606e-01 -1.377559292613510511e-01 5.550742983206133907e-01
1.777970101439199535e+00 7.905866667506260270e-02 -2.639026032607189598e-01 7.905866667506260270e-02 -1.067075004687887407e-01 -2.762351766075609172e-01 -2.639026032607189598e-01 -2.762351766075609172e-01 6.891955542055491213e-01
1.846793817213510547e+00 1.207941201714131108e-01 -3.944072687213610040e-01 1.207941201714131108e-01 -3.222382068045780840e-02 -4.152749954695362233e-01 -3.944072687213610040e-01 -4.152749954695362233e-01 8.408572736483098664e-01
1.920065939209702810e+00 1.630539792792862486e-01 -5.239535377195650989e-01 1.630539792792862486e-01 4.905904910554547554e-02 -5.549477176557630065e-01 -5.239535377195650989e-01 -5.549477176557630065e-01 9.974013901638671964e-01
2.002994357638759659e+00 2.053680872435237614e-01 -6.523424977819952675e-01 2.053680872435237614e-01 1.417160957759527606e-01 -6.947108546025971831e-01 -6.523424977819952675e-01 -6.947108546025971831e-01 1.168809693323272336e+00
2.091926316172144418e+00 2.475013656865465983e-01 -7.795379830044083524e-01 2.475013656865465983e-01 2.427093833743573237e-01 -8.341846643154877672e-01 -7.795379830044083524e-01 -8.341846643154877672e-01 1.346709776294284344e+00
2.185234349118924779e+00 2.888209112841033099e-01 -9.056846570037763167e-01 2.888209112841033099e-01 3.487116487104087725e-01 -9.734053126986778048e-01 -9.056846570037763167e-01 -9.734053126986778048e-01 1.528624274636262825e+00
2.280983580602103267e+00 3.290373968022504703e-01 -1.030782519780099049e+00 3.290373968022504703e-01 4.590719055077341904e-01 -1.111993057757616477e+00 -1.030782519780099049e+00 -1.111993057757616477e+00 1.712292819334023886e+00
2.377582710834991175e+00 3.675179189167365745e-01 -1.155012400854591448e+00 3.675179189167365745e-01 5.695044941135456451e-01 -1.249712821114724592e+00 -1.155012400854591448e+00 -1.249712821114724592e+00 1.891910782756575760e+00
3.914158137049098229e+01 1.311622337535421856e+01 1.916238366623250400e+01 1.311622337535421856e+01 2.320765650501789779e+01 -7.709921210334336195e+00 1.916238366623250400e+01 -7.709921210334336195e+00 1.509490583341358771e+01
3.911541245177217974e+01 1.302742093870990914e+01 1.906204024532748420e+01 1.302742093870990914e+01 2.301844048950954047e+01 -7.693118379146256736e+00 1.906204024532748420e+01 -7.693118379146256736e+00 1.481611564371157286e+01
3.906672282820421316e+01 1.292649871464288047e+01 1.892379398705561755e+01 1.292649871464288047e+01 2.282748806451514767e+01 -7.658968992587601221e+00 1.892379398705561755e+01 -7.658968992587601221e+00 1.449053009533544234e+01
3.899474076223773977e+01 1.281468446743618905e+01 1.874817107610964584e+01 1.281468446743618905e+01 2.263550080962503941e+01 -7.607245037291517242e+00 1.874817107610964584e+01 -7.607245037291517242e+00 1.411988559777124053e+01
3.889837880550777527e+01 1.269313580341385617e+01 1.853575031565156550e+01 1.269313580341385617e+01 2.244260150126751796e+01 -7.537823736829699861e+00 1.853575031565156550e+01 -7.537823736829699861e+00 1.370412953254968436e+01
3.877711077332156719e+01 1.256316818430772564e+01 1.828714558782291633e+01 1.256316818430772564e+01 2.224922862668653423e+01 -7.450757709671423257e+00 1.828714558782291633e+01 -7.450757709671423257e+00 1.324389332130206398e+01
3.862970890139607150e+01 1.242606199287012458e+01 1.800304093272425376e+01 1.242606199287012458e+01 2.205476830374056263e+01 -7.346239890204023126e+00 1.800304093272425376e+01 -7.346239890204023126e+00 1.273835260800975355e+01
3.845487526748920004e+01 1.228300991440459100e+01 1.768410285096637224e+01 1.228300991440459100e+01 2.185839617641097021e+01 -7.224498291794353655e+00 1.768410285096637224e+01 -7.224498291794353655e+00 1.218670057614389357e+01
3.825148734425644648e+01 1.213515201574538871e+01 1.733096276418056547e+01 1.213515201574538871e+01 2.165913003327133168e+01 -7.085813546278541430e+00 1.733096276418056547e+01 -7.085813546278541430e+00 1.158786731682924831e+01
3.802033440873692172e+01 1.198347050831896254e+01 1.694384868573368053e+01 1.198347050831896254e+01 2.145756621697340094e+01 -6.930466285492710377e+00 1.694384868573368053e+01 -6.930466285492710377e+00 1.094227377782000943e+01
-2.596883245127624917e+01 -7.172895111557959780e+00 -1.845011702690133504e+01 -7.172895111557959780e+00 -3.106442974978274663e+01 -1.333601735948080069e+01 -1.845011702690133504e+01 -1.333601735948080069e+01 -1.118474748709050992e+01
-2.603651856930555653e+01 -7.165617637839496901e+00 -1.856453612526154728e+01 -7.165617637839496901e+00 -3.103363612062955923e+01 -1.338690355103406660e+01 -1.856453612526154728e+01 -1.338690355103406660e+01 -1.125149819718685329e+01
-2.608349475569903220e+01 -7.153569583662914511e+00 -1.865096781826746053e+01 -7.153569583662914511e+00 -3.097724973043046504e+01 -1.341687402120624739e+01 -1.865096781826746053e+01 -1.341687402120624739e+01 -1.126863487051876334e+01
-2.610702961929241894e+01 -7.136638700076257891e+00 -1.871012301594813110e+01 -7.136638700076257891e+00 -3.089313784909830218e+01 -1.342596618631466221e+01 -1.871012301594813110e+01 -1.342596618631466221e+01 -1.123221008560912715e+01
-2.610858239646113788e+01 -7.114899819714164408e+00 -1.874129080827450622e+01 -7.114899819714164408e+00 -3.078333966592693116e+01 -1.341371234239282728e+01 -1.874129080827450622e+01 -1.341371234239282728e+01 -1.114504877441549979e+01
-2.609036064992699266e+01 -7.088352942576633176e+00 -1.874467698499183754e+01 -7.088352942576633176e+00 -3.065047432312865894e+01 -1.337985057521951582e+01 -1.874467698499183754e+01 -1.337985057521951582e+01 -1.101057452997252994e+01
-2.605049356382404824e+01 -7.056923236029027713e+00 -1.871953321975375673e+01 -7.056923236029027713e+00 -3.049381220251577673e+01 -1.332376351555896754e+01 -1.871953321975375673e+01 -1.332376351555896754e+01 -1.082558825714948192e+01
-2.599463100206740762e+01 -7.020966155085874405e+00 -1.866585951256025311e+01 -7.020966155085874405e+00 -3.031883479457544439e+01 -1.324528278998324993e+01 -1.866585951256025311e+01 -1.324528278998324993e+01 -1.060279279567600952e+01
-2.592006028165148379e+01 -6.980294618160580278e+00 -1.858283270443033075e+01 -6.980294618160580278e+00 -3.012413898740822660e+01 -1.314309882738621482e+01 -1.858283270443033075e+01 -1.314309882738621482e+01 -1.033335789466493182e+01
-2.583153327487572781e+01 -6.934908625253145331e+00 -1.847004121587347569e+01 -6.934908625253145331e+00 -2.991352253722195442e+01 -1.301700583802260702e+01 -1.847004121587347569e+01 -1.301700583802260702e+01 -1.002892002880232170e+01
1.640676196662285236e+01 7.295609788716132194e+00 2.203350303659234655e+01 7.295609788716132194e+00 -3.562803488430406063e+00 7.106192964647036980e+00 2.203350303659234655e+01 7.106192964647036980e+00 1.265942658596622294e+01
1.635300975704299020e+01 7.362669845706178329e+00 2.220451156970943529e+01 7.362669845706178329e+00 -3.542365795646616355e+00 7.100266392925902892e+00 2.220451156970943529e+01 7.100266392925902892e+00 1.261653975787510795e+01
1.628022068072251471e+01 7.416493892519023134e+00 2.232905937239448235e+01 7.416493892519023134e+00 -3.519826863798060756e+00 7.076613983966104193e+00 2.232905937239448235e+01 7.076613983966104193e+00 1.253699798165418855e+01
1.618431797468961619e+01 7.456668865065014806e+00 2.240739787496292834e+01 7.456668865065014806e+00 -3.500394892276039283e+00 7.034517365437805481e+00 2.240739787496292834e+01 7.034517365437805481e+00 1.241015138751367175e+01
1.607058167556857953e+01 7.482655984096776791e+00 2.243904217609213347e+01 7.482655984096776791e+00 -3.478682088606793066e+00 6.972827141613272772e+00 2.243904217609213347e+01 6.972827141613272772e+00 1.224810454921126635e+01
1.593486318315460615e+01 7.493682999359734254e+00 2.242374084546666424e+01 7.493682999359734254e+00 -3.460597065203210754e+00 6.891453515951276643e+00 2.242374084546666424e+01 6.891453515951276643e+00 1.204076433551280090e+01
1.577637228788488244e+01 7.490342568026004066e+00 2.236174531340195060e+01 7.490342568026004066e+00 -3.448133305280583372e+00 6.789085458949868368e+00 2.236174531340195060e+01 6.789085458949868368e+00 1.178644257144316221e+01
1.559695879850873013e+01 7.471269782668900739e+00 2.225266047511658840e+01 7.471269782668900739e+00 -3.440392843426617109e+00 6.666046238157473880e+00 2.225266047511658840e+01 6.666046238157473880e+00 1.149074256117506110e+01
1.539365942916558438e+01 7.438009143797565059e+00 2.209693531331673100e+01 7.438009143797565059e+00 -3.442530001107874771e+00 6.521060742688638001e+00 2.209693531331673100e+01 6.521060742688638001e+00 1.114297851630220926e+01
1.516783908728212715e+01 7.388944313669873587e+00 2.189431839768692356e+01 7.388944313669873587e+00 -3.453431301213112370e+00 6.354757548331964934e+00 2.189431839768692356e+01 6.354757548331964934e+00 1.075004681119101413e+01
-7.434468337004457972e+00 6.095916998452286073e+00 1.403146221540149163e+01 6.095916998452286073e+00 1.577603697371505653e+01 -2.045459156530776923e+01 1.403146221540149163e+01 -2.045459156530776923e+01 -2.866904029516389585e+01
-7.317042937283114945e+00 6.056375050033110163e+00 1.393566302390020262e+01 6.056375050033110163e+00 1.584544455198900970e+01 -2.065242862738476148e+01 1.393566302390020262e+01 -2.065242862738476148e+01 -2.840856180238053597e+01
-7.137612706760957160e+00 6.013522782105060749e+00 1.382043844099519880e+01 6.013522782105060749e+00 1.595566727849324629e+01 -2.081305187784002442e+01 1.382043844099519880e+01 -2.081305187784002442e+01 -2.803134907548757937e+01
-6.907527312325549396e+00 5.967487514649248759e+00 1.368537012960568688e+01 5.967487514649248759e+00 1.609561012630241805e+01 -2.093707972801038153e+01 1.368537012960568688e+01 -2.093707972801038153e+01 -2.755471763191604850e+01
-6.624331297198331470e+00 5.918614830471546462e+00 1.353023982690690374e+01 5.918614830471546462e+00 1.626772855219508784e+01 -2.102367550373425686e+01 1.353023982690690374e+01 -2.102367550373425686e+01 -2.697468417511406003e+01
-6.289807141114851063e+00 5.867122992396713421e+00 1.335472013866171181e+01 5.867122992396713421e+00 1.647036739641681535e+01 -2.107247543363703457e+01 1.335472013866171181e+01 -2.107247543363703457e+01 -2.629546845302699154e+01
-5.905355363867323959e+00 5.813321206093161386e+00 1.315864736775153609e+01 5.813321206093161386e+00 1.670239896770634047e+01 -2.108297023779428869e+01 1.315864736775153609e+01 -2.108297023779428869e+01 -2.552008976806402885e+01
-5.472758445191296950e+00 5.757645997210411259e+00 1.294174868564543068e+01 5.757645997210411259e+00 1.696255006625255746e+01 -2.105483252196886923e+01 1.294174868564543068e+01 -2.105483252196886923e+01 -2.465238590822722387e+01
-4.994453653296599072e+00 5.700533891397985720e+00 1.270376945238117194e+01 5.700533891397985720e+00 1.724885632663261958e+01 -2.098775308049236443e+01 1.270376945238117194e+01 -2.098775308049236443e+01 -2.369697676997401459e+01
-4.472951010667981286e+00 5.642348660030486407e+00 1.244440046229034813e+01 5.642348660030486407e+00 1.755955345767970499e+01 -2.088144089626509370e+01 1.244440046229034813e+01 -2.088144089626509370e+01 -2.265806391268104392e+01
-2.215377252441032496e+01 5.353484763758067366e-01 -1.376839884292250282e+01 5.353484763758067366e-01 2.881981050242041764e+00 2.143756034377803488e+01 -1.376839884292250282e+01 2.143756034377803488e+01 -1.830113113881313325e+01
-2.218553718351746795e+01 5.832160529469910815e-01 -1.370569672937245898e+01 5.832160529469910815e-01 2.930896419387940988e+00 2.130382892305784637e+01 -1.370569672937245898e+01 2.130382892305784637e+01 -1.829392526707123068e+01
-2.217208132097902507e+01 6.328299504760335203e-01 -1.362365640900487129e+01 6.328299504760335203e-01 2.998028673473180916e+00 2.112710124212260610e+01 -1.362365640900487129e+01 2.112710124212260610e+01 -1.821425626674115605e+01
-2.211531669868569949e+01 6.842636982664228595e-01 -1.352255361670782463e+01 6.842636982664228595e-01 3.081576344562287240e+00 2.090770818283801447e+01 -1.352255361670782463e+01 2.090770818283801447e+01 -1.806394398808425805e+01
-2.201590508036889560e+01 7.372047967783317279e-01 -1.340273761667288710e+01 7.372047967783317279e-01 3.181024727530838536e+00 2.064664239080116204e+01 -1.340273761667288710e+01 2.064664239080116204e+01 -1.784401784134936619e+01
-2.187509646418791576e+01 7.914326581012939288e-01 -1.326452090843988429e+01 7.914326581012939288e-01 3.295381176781735810e+00 2.034480459997979196e+01 -1.326452090843988429e+01 2.034480459997979196e+01 -1.755605870656150103e+01
-2.169371805480701099e+01 8.467266943248432653e-01 -1.310808731526754300e+01 8.467266943248432653e-01 3.424149369516431562e+00 2.000320583829687493e+01 -1.310808731526754300e+01 2.000320583829687493e+01 -1.720201511026311181e+01
-2.147369999644276461e+01 9.027008766056636713e-01 -1.293371257204394276e+01 9.027008766056636713e-01 3.565711661058171167e+00 1.962285713367537809e+01 -1.293371257204394276e+01 1.962285713367537809e+01 -1.678499366552659566e+01
-2.121651287516494477e+01 9.591713816850331309e-01 -1.274145182574670088e+01 9.591713816850331309e-01 3.719406287675556477e+00 1.920493495497112590e+01 -1.274145182574670088e+01 1.920493495497112590e+01 -1.630760466262580621e+01
-2.092438095240408913e+01 1.015660269090274959e+00 -1.253145213498279631e+01 1.015660269090274959e+00 3.883321487477880307e+00 1.875037680080359692e+01 -1.253145213498279631e+01 1.875037680080359692e+01 -1.577363486069041443e+01
4.614752318472534753e+00 -1.201239911014023498e+01 -9.919393265746205834e-01 -1.201239911014023498e+01 3.491305749541026415e+01 6.115140097755193516e+00 -9.919393265746205834e-01 6.115140097755193516e+00 1.178250141273531115e+00
4.706370097211031833e+00 -1.206874919911986943e+01 -9.473925369900896287e-01 -1.206874919911986943e+01 3.472886203105476000e+01 5.847468287075277438e+00 -9.473925369900896287e-01 5.847468287075277438e+00 1.046725122863337631e+00
4.824865268548016672e+00 -1.211718894437838756e+01 -8.965708005885836274e-01 -1.211718894437838756e+01 3.453908488596119497e+01 5.566464436415953010e+00 -8.965708005885836274e-01 5.566464436415953010e+00 9.252257985176595145e-01
4.968015825820254250e+00 -1.215743392906289699e+01 -8.396163257965496562e-01 -1.215743392906289699e+01 3.434409935724902141e+01 5.272981796335902693e+00 -8.396163257965496562e-01 5.272981796335902693e+00 8.118679065860735511e-01
5.134559669243028424e+00 -1.218918196026719514e+01 -7.767602013069639932e-01 -1.218918196026719514e+01 3.414506088838309950e+01 4.967944721607031155e+00 -7.767602013069639932e-01 4.967944721607031155e+00 7.070602962946150871e-01
5.321741510553926524e+00 -1.221216639719169450e+01 -7.084112763458618733e-01 -1.221216639719169450e+01 3.394179171883038748e+01 4.652313119107855499e+00 -7.084112763458618733e-01 4.652313119107855499e+00 6.094342115387314518e-01
5.526841613597150982e+00 -1.222620947930333912e+01 -6.350672804058080656e-01 -1.222620947930333912e+01 3.373438072885739558e+01 4.326993567556977283e+00 -6.350672804058080656e-01 4.326993567556977283e+00 5.173009272543642734e-01
5.746535856404500819e+00 -1.223115122212237438e+01 -5.572970471925905445e-01 -1.223115122212237438e+01 3.352229463686496302e+01 3.992750437246547879e+00 -5.572970471925905445e-01 3.992750437246547879e+00 4.285095409915022358e-01
5.977180148048272024e+00 -1.222679608906243409e+01 -4.757760667318325920e-01 -1.222679608906243409e+01 3.330444910360142075e+01 3.650241442148884463e+00 -4.757760667318325920e-01 3.650241442148884463e+00 3.403225405410399973e-01
6.215699231306546224e+00 -1.221298409564376541e+01 -3.911976051024636525e-01 -1.221298409564376541e+01 3.308023974325438132e+01 3.299804327276799842e+00 -3.911976051024636525e-01 3.299804327276799842e+00 2.502690544934605410e-01
-3.984911232715133167e+01 -4.316767916998387911e+00 -1.060205986402303502e+01 -4.316767916998387911e+00 -4.566343998612351385e+01 7.250567013150759799e+00 -1.060205986402303502e+01 7.250567013150759799e+00 -3.810906266998604508e+01
-3.985372043861332969e+01 -4.342504506325602698e+00 -1.042924612380062577e+01 -4.342504506325602698e+00 -4.561483492663631267e+01 7.345444395202495258e+00 -1.042924612380062577e+01 7.345444395202495258e+00 -3.804451086792909109e+01
-3.980180748168659477e+01 -4.363613863396363257e+00 -1.024430979989809032e+01 -4.363613863396363257e+00 -4.550404904360371461e+01 7.429518528391024113e+00 -1.024430979989809032e+01 7.429518528391024113e+00 -3.782693534790355017e+01
-3.969918617788335524e+01 -4.379541485171674964e+00 -1.004650518133194659e+01 -4.379541485171674964e+00 -4.533569044848771767e+01 7.502885016688587427e+00 -1.004650518133194659e+01 7.502885016688587427e+00 -3.746593474872241814e+01
-3.954486224589231114e+01 -4.390210888473744966e+00 -9.835870509691092778e+00 -4.390210888473744966e+00 -4.510941496698827535e+01 7.565008477850637014e+00 -9.835870509691092778e+00 7.565008477850637014e+00 -3.695997940682984506e+01
-3.933952403431359812e+01 -4.395029328674679547e+00 -9.611927765114323563e+00 -4.395029328674679547e+00 -4.482459161288858951e+01 7.615582979166002353e+00 -9.611927765114323563e+00 7.615582979166002353e+00 -3.630906932222581673e+01
-3.908508362259203039e+01 -4.394168892924511738e+00 -9.374982880312810352e+00 -4.394168892924511738e+00 -4.448449004203929036e+01 7.654130500773479007e+00 -9.374982880312810352e+00 7.654130500773479007e+00 -3.552062336315621849e+01
-3.878414143877254361e+01 -4.387055957389798699e+00 -9.124232781919729973e+00 -4.387055957389798699e+00 -4.408987508621830642e+01 7.680517197111930372e+00 -9.124232781919729973e+00 7.680517197111930372e+00 -3.459626679714915554e+01
-3.843838011276659472e+01 -4.374034696370607378e+00 -8.860040765029598475e+00 -4.374034696370607378e+00 -4.364424585080965358e+01 7.694150323553463622e+00 -8.860040765029598475e+00 7.694150323553463622e+00 -3.354376266675056684e+01
-3.805051479738580866e+01 -4.354722693977972625e+00 -8.581641997864489113e+00 -4.354722693977972625e+00 -4.314882606665800324e+01 7.694953396920285904e+00 -8.581641997864489113e+00 7.694953396920285904e+00 -3.236632326542774507e+01
3.713797490931888490e+01 5.990262601568415057e+00 -2.241238121041103426e+01 5.990262601568415057e+00 5.089592354755333226e+00 7.174853184296175357e+00 -2.241238121041103426e+01 7.174853184296175357e+00 3.576805796665923509e+01
3.698640033058238430e+01 6.015624906080255130e+00 -2.225345702710092155e+01 6.015624906080255130e+00 5.071103781139684408e+00 7.192777759479316302e+00 -2.225345702710092155e+01 7.192777759479316302e+00 3.553667760972286516e+01
3.676194657939525712e+01 6.031839861014856474e+00 -2.204079436814340909e+01 6.031839861014856474e+00 5.018528552259338582e+00 7.194540254580903849e+00 -2.204079436814340909e+01 7.194540254580903849e+00 3.515444529704165433e+01
3.647162838626181980e+01 6.038290593086665936e+00 -2.177520398128523738e+01 6.038290593086665936e+00 4.937330402929217321e+00 7.180634168229381054e+00 -2.177520398128523738e+01 7.180634168229381054e+00 3.463665948609737200e+01
3.611562200069221973e+01 6.034765602883490843e+00 -2.145857173628510139e+01 6.034765602883490843e+00 4.824495466525605458e+00 7.151482499249129710e+00 -2.145857173628510139e+01 7.151482499249129710e+00 3.398161055664148478e+01
3.569641254077971837e+01 6.021123890797206002e+00 -2.109313600192201577e+01 6.021123890797206002e+00 4.679160120448726978e+00 7.107578746268591985e+00 -2.109313600192201577e+01 7.107578746268591985e+00 3.319315837294645632e+01
3.521689049849088349e+01 5.997435956631875342e+00 -2.068139952124023395e+01 5.997435956631875342e+00 4.500055368225438279e+00 7.049469282769262435e+00 -2.068139952124023395e+01 7.049469282769262435e+00 3.227486317511750258e+01
3.467966436657609819e+01 5.963842799995623167e+00 -2.022621753630432551e+01 5.963842799995623167e+00 4.285841713578531831e+00 6.977577107575521964e+00 -2.022621753630432551e+01 6.977577107575521964e+00 3.123111357595757553e+01
3.408787138631616642e+01 5.920749794761817064e+00 -1.973067441354207574e+01 5.920749794761817064e+00 4.034985785769627853e+00 6.892395719315813629e+00 -1.973067441354207574e+01 6.892395719315813629e+00 3.006631581322063695e+01
3.344514229762037161e+01 5.868579939754836161e+00 -1.919804839384243067e+01 5.868579939754836161e+00 3.746588712296917478e+00 6.794330491863503241e+00 -1.919804839384243067e+01 6.794330491863503241e+00 2.878651524510514292e+01
3.233438751068493389e+01 9.342056167630470753e+00 -1.190684483444417552e+01 9.342056167630470753e+00 9.221181977900586801e+00 9.024568251799175655e+00 -1.190684483444417552e+01 9.024568251799175655e+00 -5.179561164619311819e-01
3.231555920192465692e+01 9.260295124966743785e+00 -1.202876701494467859e+01 9.260295124966743785e+00 9.214005905505159078e+00 8.944086113126713755e+00 -1.202876701494467859e+01 8.944086113126713755e+00 -5.617585781627240094e-01
3.229838281081975992e+01 9.169919242917419666e+00 -1.212560846717206076e+01 9.169919242917419666e+00 9.231626360495909012e+00 8.855220048289298873e+00 -1.212560846717206076e+01 8.855220048289298873e+00 -5.887221373118740608e-01
3.228209454748658658e+01 9.071390347923786734e+00 -1.219701394001763539e+01 9.071390347923786734e+00 9.272906539325042274e+00 8.757899007065191199e+00 -1.219701394001763539e+01 8.757899007065191199e+00 -5.985625930224333091e-01
3.226641021103816342e+01 8.965330129426043015e+00 -1.224266370748358845e+01 8.965330129426043015e+00 9.336620825667599988e+00 8.651749975790277603e+00 -1.224266370748358845e+01 8.651749975790277603e+00 -5.926654246182714303e-01
3.225035286092562359e+01 8.852342514308954691e+00 -1.226245119423731111e+01 8.852342514308954691e+00 9.421081776757326054e+00 8.536169027579791901e+00 -1.226245119423731111e+01 8.536169027579791901e+00 -5.727891250873763385e-01
3.223308765704356205e+01 8.732942616680109182e+00 -1.225614548705816276e+01 8.732942616680109182e+00 9.523980260387778785e+00 8.410321322328323745e+00 -1.225614548705816276e+01 8.410321322328323745e+00 -5.412961143024996868e-01
3.221351332095504461e+01 8.607823176201444326e+00 -1.222406631194395565e+01 8.607823176201444326e+00 9.643344632905755276e+00 8.273141106709823944e+00 -1.222406631194395565e+01 8.273141106709823944e+00 -5.005843372472614794e-01
3.218933848300907385e+01 8.477623644868593544e+00 -1.216610709356208986e+01 8.477623644868593544e+00 9.775196081893989586e+00 8.123278426511287620e+00 -1.216610709356208986e+01 8.123278426511287620e+00 -4.554496838889018351e-01
3.216075853131540896e+01 8.342876899344579655e+00 -1.208271189579841298e+01 8.342876899344579655e+00 9.918486616581862592e+00 7.959365564964279827e+00 -1.208271189579841298e+01 7.959365564964279827e+00 -4.059987295600260837e-01
-3.336472319622827598e+01 1.427038919267585582e-02 -1.288927116483443669e+01 1.427038919267585582e-02 -4.008111621026991855e+01 1.268099597925095745e+00 -1.288927116483443669e+01 1.268099597925095745e+00 -5.386984161157213435e+01
-3.342678412676807653e+01 1.646436614074768198e-02 -1.287784340664404326e+01 1.646436614074768198e-02 -4.008794615589957289e+01 1.348895183795392860e+00 -1.287784340664404326e+01 1.348895183795392860e+00 -5.398249755834051911e+01
-3.342071730355515768e+01 1.835309412213124991e-02 -1.285393859694026908e+01 1.835309412213124991e-02 -4.002016180723436634e+01 1.431560419586655364e+00 -1.285393859694026908e+01 1.431560419586655364e+00 -5.389914551237420426e+01
-3.334585499447485546e+01 1.995565119724458311e-02 -1.281757581378353272e+01 1.995565119724458311e-02 -3.987711451022008191e+01 1.516114383359301820e+00 -1.281757581378353272e+01 1.516114383359301820e+00 -5.361720993551676884e+01
-3.320246429237305108e+01 2.146281797026783345e-02 -1.276848796432797783e+01 2.146281797026783345e-02 -3.965918582606508380e+01 1.602347216448733347e+00 -1.276848796432797783e+01 1.602347216448733347e+00 -5.313758749660784986e+01
-3.299167080281439723e+01 2.285551638078298781e-02 -1.270648426796942587e+01 2.285551638078298781e-02 -3.936776845317989171e+01 1.690029982129934272e+00 -1.270648426796942587e+01 1.690029982129934272e+00 -5.246293004604554966e+01
-3.271467644360522087e+01 2.436268315380624161e-02 -1.263116408543909941e+01 2.436268315380624161e-02 -3.900429324609584825e+01 1.778800197254962079e+00 -1.263116408543909941e+01 1.778800197254962079e+00 -5.159646177604052752e+01
-3.237274036673312594e+01 2.598431828933759138e-02 -1.254222216777030852e+01 2.598431828933759138e-02 -3.857030552770682874e+01 1.868238144494620334e+00 -1.254222216777030852e+01 1.868238144494620334e+00 -5.054133056656174006e+01
-3.196731250478987363e+01 2.804474881448330154e-02 -1.243885723642550012e+01 2.804474881448330154e-02 -3.806759863569211433e+01 1.957828716217622667e+00 -1.243885723642550012e+01 1.957828716217622667e+00 -4.930238224495537480e+01
-3.150020527351517075e+01 3.037227218548123678e-02 -1.232116468170675994e+01 3.037227218548123678e-02 -3.749840470312060603e+01 2.046923258369756748e+00 -1.232116468170675994e+01 2.046923258369756748e+00 -4.788503498038014783e+01
-2.831453102318685922e+01 1.276237062357047369e+00 -1.373522470214701308e+01 1.276237062357047369e+00 -2.981293513449633181e+01 -1.793342356328306053e+01 -1.373522470214701308e+01 -1.793342356328306053e+01 -3.921395977461418880e+00
-2.835071208706956014e+01 1.345349058415899357e+00 -1.383455918729322320e+01 1.345349058415899357e+00 -2.985049843830021388e+01 -1.780991855843410931e+01 -1.383455918729322320e+01 -1.780991855843410931e+01 -4.032572896526902539e+00
-2.837542429539006150e+01 1.410445087136196873e+00 -1.391084388780791414e+01 1.410445087136196873e+00 -2.987597648225272096e+01 -1.765673275311555557e+01 -1.391084388780791414e+01 -1.765673275311555557e+01 -4.125444476095717405e+00
-2.838653825151304133e+01 1.471039496653741896e+00 -1.396377994100542352e+01 1.471039496653741896e+00 -2.988766948482916419e+01 -1.747349256897032888e+01 -1.396377994100542352e+01 -1.747349256897032888e+01 -4.193940067865395527e+00
-2.838558562670250041e+01 1.527468507489901928e+00 -1.399338602580360735e+01 1.527468507489901928e+00 -2.988737062214350004e+01 -1.725997385898418202e+01 -1.399338602580360735e+01 -1.725997385898418202e+01 -4.242916190477911798e+00
-2.837282792580839086e+01 1.578592705655598838e+00 -1.399910177466685290e+01 1.578592705655598838e+00 -2.987491178393505464e+01 -1.701630737558209461e+01 -1.399910177466685290e+01 -1.701630737558209461e+01 -4.270859851587112566e+00
-2.834880683744847829e+01 1.625663578647033258e+00 -1.398109529785584471e+01 1.625663578647033258e+00 -2.985223557766061120e+01 -1.674197010906415883e+01 -1.398109529785584471e+01 -1.674197010906415883e+01 -4.280666283460328181e+00
-2.831555836366881351e+01 1.666719840089562199e+00 -1.393852604406716189e+01 1.666719840089562199e+00 -2.981965954492368098e+01 -1.643671923349827679e+01 -1.393852604406716189e+01 -1.643671923349827679e+01 -4.272746422290340185e+00
-2.827291439420871555e+01 1.704040317961342366e+00 -1.387214117001495595e+01 1.704040317961342366e+00 -2.977983609205950088e+01 -1.610005041810239845e+01 -1.387214117001495595e+01 -1.610005041810239845e+01 -4.250294363030140410e+00
-2.822352733540341774e+01 1.734879211337873484e+00 -1.378057711469590352e+01 1.734879211337873484e+00 -2.973224220936816309e+01 -1.573144065317661600e+01 -1.378057711469590352e+01 -1.573144065317661600e+01 -4.213422179186850691e+00
5.430397084346296310e+01 1.037471809521235144e+01 6.503542651506297290e+00 1.037471809521235144e+01 5.459993482689756661e+01 -1.997310475415129005e+01 6.503542651506297290e+00 -1.997310475415129005e+01 4.269568538117529499e+01
5.413872129857935533e+01 1.040027373247379217e+01 6.711794634774380874e+00 1.040027373247379217e+01 5.428003697342919764e+01 -1.983793472353266196e+01 6.711794634774380874e+00 -1.983793472353266196e+01 4.209136369843981385e+01
5.391449064031013449e+01 1.041563784305181350e+01 6.905143430781784275e+00 1.041563784305181350e+01 5.389310038413873372e+01 -1.965276304859956014e+01 6.905143430781784275e+00 -1.965276304859956014e+01 4.131725152258323419e+01
5.363259335367140324e+01 1.042060557213870808e+01 7.082598907957923906e+00 1.042060557213870808e+01 5.344170281535647860e+01 -1.941907492670786439e+01 7.082598907957923906e+00 -1.941907492670786439e+01 4.037763373333340411e+01
5.329405371270170377e+01 1.041517691973447235e+01 7.243170934732216182e+00 1.041517691973447235e+01 5.292845616588071778e+01 -1.913856041002115660e+01 7.243170934732216182e+00 -1.913856041002115660e+01 3.927747805977724482e+01
5.290394187389178171e+01 1.039955674064681901e+01 7.386074234341784006e+00 1.039955674064681901e+01 5.236025721423755641e+01 -1.881304612057482473e+01 7.386074234341784006e+00 -1.881304612057482473e+01 3.802572982851794592e+01
5.245054697073438632e+01 1.037420595819308389e+01 7.510216247812190993e+00 1.037420595819308389e+01 5.172739242829490536e+01 -1.844545123937869135e+01 7.510216247812190993e+00 -1.844545123937869135e+01 3.661692624468332014e+01
5.194836248087479902e+01 1.033936356964892944e+01 7.615340906633804252e+00 1.033936356964892944e+01 5.104616483649944314e+01 -1.803734631995850890e+01 7.615340906633804252e+00 -1.803734631995850890e+01 3.507005052045421678e+01
5.139820782354382800e+01 1.029578070930927680e+01 7.701038501191209029e+00 1.029578070930927680e+01 5.031969847466869794e+01 -1.759122376247471564e+01 7.701038501191209029e+00 -1.759122376247471564e+01 3.339046302329897031e+01
5.079284479553583509e+01 1.024437922380881005e+01 7.767018820506820020e+00 1.024437922380881005e+01 4.954292318631191705e+01 -1.711053195619037481e+01 7.767018820506820020e+00 -1.711053195619037481e+01 3.158051958350619870e+01