0.000000000000000000e+00 2.032270000000000021e+00 9.640620000000000189e+00 -1.760000000000000009e+00 5.080680000000000085e+00 9.640620000000000189e+00 -3.520000000000000018e+00 8.129089999999999705e+00 9.640620000000000189e+00 3.520000000000000018e+00 2.032270000000000021e+00 9.640620000000000189e+00 1.760000000000000009e+00 5.080680000000000085e+00 9.640620000000000189e+00 0.000000000000000000e+00 8.129089999999999705e+00 9.640620000000000189e+00 7.040000000000000036e+00 2.032270000000000021e+00 9.640620000000000189e+00 5.280000000000000249e+00 5.080680000000000085e+00 9.640620000000000189e+00 3.520000000000000018e+00 8.129089999999999705e+00 9.640620000000000189e+00 0.000000000000000000e+00 2.032299999999999940e-01 1.674099000000000004e+01 -1.760000000000000009e+00 3.251640000000000086e+00 1.674099000000000004e+01 -3.520000000000000018e+00 6.300049999999999706e+00 1.674099000000000004e+01 3.520000000000000018e+00 2.032299999999999940e-01 1.674099000000000004e+01 1.760000000000000009e+00 3.251640000000000086e+00 1.674099000000000004e+01 0.000000000000000000e+00 6.300049999999999706e+00 1.674099000000000004e+01 7.040000000000000036e+00 2.032299999999999940e-01 1.674099000000000004e+01 5.280000000000000249e+00 3.251640000000000086e+00 1.674099000000000004e+01 3.520000000000000018e+00 6.300049999999999706e+00 1.674099000000000004e+01 0.000000000000000000e+00 2.032270000000000021e+00 1.325979000000000063e+01 -1.760000000000000009e+00 5.080680000000000085e+00 1.325979000000000063e+01 -3.520000000000000018e+00 8.129089999999999705e+00 1.325979000000000063e+01 3.520000000000000018e+00 2.032270000000000021e+00 1.325979000000000063e+01 1.760000000000000009e+00 5.080680000000000085e+00 1.325979000000000063e+01 0.000000000000000000e+00 8.129089999999999705e+00 1.325979000000000063e+01 7.040000000000000036e+00 2.032270000000000021e+00 1.325979000000000063e+01 5.280000000000000249e+00 5.080680000000000085e+00 1.325979000000000063e+01 3.520000000000000018e+00 8.129089999999999705e+00 1.325979000000000063e+01 0.000000000000000000e+00 2.032299999999999940e-01 2.035970000000000013e+01 -1.760000000000000009e+00 3.251640000000000086e+00 2.035970000000000013e+01 -3.520000000000000018e+00 6.300049999999999706e+00 2.035970000000000013e+01 3.520000000000000018e+00 2.032299999999999940e-01 2.035970000000000013e+01 1.760000000000000009e+00 3.251640000000000086e+00 2.035970000000000013e+01 0.000000000000000000e+00 6.300049999999999706e+00 2.035970000000000013e+01 7.040000000000000036e+00 2.032299999999999940e-01 2.035970000000000013e+01 5.280000000000000249e+00 3.251640000000000086e+00 2.035970000000000013e+01 3.520000000000000018e+00 6.300049999999999706e+00 2.035970000000000013e+01 0.000000000000000000e+00 0.000000000000000000e+00 1.145030000000000037e+01 -1.760000000000000009e+00 3.048410000000000064e+00 1.145030000000000037e+01 -3.520000000000000018e+00 6.096820000000000128e+00 1.145030000000000037e+01 3.520000000000000018e+00 0.000000000000000000e+00 1.145030000000000037e+01 1.760000000000000009e+00 3.048410000000000064e+00 1.145030000000000037e+01 0.000000000000000000e+00 6.096820000000000128e+00 1.145030000000000037e+01 7.040000000000000036e+00 0.000000000000000000e+00 1.145030000000000037e+01 5.280000000000000249e+00 3.048410000000000064e+00 1.145030000000000037e+01 3.520000000000000018e+00 6.096820000000000128e+00 1.145030000000000037e+01 1.760000000000000009e+00 1.219359999999999999e+00 1.854864999999999853e+01 0.000000000000000000e+00 4.267769999999999619e+00 1.854864999999999853e+01 -1.760000000000000009e+00 7.316180000000000128e+00 1.854864999999999853e+01 5.280000000000000249e+00 1.219359999999999999e+00 1.854864999999999853e+01 3.520000000000000018e+00 4.267769999999999619e+00 1.854864999999999853e+01 1.760000000000000009e+00 7.316180000000000128e+00 1.854864999999999853e+01 8.800000000000000711e+00 1.219359999999999999e+00 1.854864999999999853e+01 7.040000000000000036e+00 4.267769999999999619e+00 1.854864999999999853e+01 5.280000000000000249e+00 7.316180000000000128e+00 1.854864999999999853e+01
-3.000000000000000076e-05 2.030899999999999928e+00 9.639960000000000306e+00 -1.759660000000000002e+00 5.079989999999999561e+00 9.640930000000000888e+00 -3.521230000000000082e+00 8.127309999999999590e+00 9.639200000000000657e+00 3.520309999999999828e+00 2.033889999999999976e+00 9.640829999999999345e+00 1.760860000000000092e+00 5.082150000000000389e+00 9.640430000000000277e+00 -1.619999999999999912e-03 8.129160000000000608e+00 9.640150000000000219e+00 7.038759999999999906e+00 2.035950000000000149e+00 9.642369999999999663e+00 5.278690000000000104e+00 5.081080000000000041e+00 9.640150000000000219e+00 3.519519999999999982e+00 8.127570000000000405e+00 9.640200000000000102e+00 1.619999999999999912e-03 2.016000000000000014e-01 1.673974000000000117e+01 -1.759249999999999980e+00 3.251409999999999911e+00 1.674076000000000164e+01 -3.518559999999999910e+00 6.301580000000000403e+00 1.673958000000000013e+01 3.519379999999999953e+00 2.011199999999999932e-01 1.674271999999999849e+01 1.759220000000000006e+00 3.247679999999999900e+00 1.673739000000000132e+01 -1.830000000000000029e-03 6.298540000000000028e+00 1.674092999999999876e+01 7.041800000000000281e+00 2.053899999999999892e-01 1.674206999999999823e+01 5.278050000000000352e+00 3.252670000000000172e+00 1.673956000000000088e+01 3.521040000000000170e+00 6.300679999999999836e+00 1.674390000000000001e+01 -1.809999999999999977e-03 2.030790000000000095e+00 1.326254999999999917e+01 -1.758340000000000014e+00 5.078759999999999941e+00 1.326013999999999982e+01 -3.519080000000000208e+00 8.130179999999999296e+00 1.325806000000000040e+01 3.518260000000000165e+00 2.032029999999999781e+00 1.325714999999999932e+01 1.758559999999999901e+00 5.082810000000000272e+00 1.325896000000000008e+01 -1.520000000000000084e-03 8.130259999999999820e+00 1.326019999999999932e+01 7.037670000000000314e+00 2.032869999999999955e+00 1.326041000000000025e+01 5.281340000000000146e+00 5.078330000000000233e+00 1.326046000000000014e+01 3.518920000000000048e+00 8.128450000000000841e+00 1.326045000000000051e+01 2.919999999999999853e-03 2.021499999999999964e-01 2.036045999999999978e+01 -1.760739999999999972e+00 3.250999999999999890e+00 2.036046999999999940e+01 -3.521469999999999878e+00 6.299050000000000260e+00 2.035901000000000138e+01 3.521349999999999980e+00 2.033500000000000030e-01 2.035763000000000034e+01 1.760259999999999936e+00 3.254010000000000069e+00 2.036298000000000030e+01 8.000000000000000654e-05 6.298309999999999853e+00 2.036064000000000007e+01 7.042309999999999626e+00 2.038999999999999979e-01 2.035933999999999955e+01 5.279270000000000351e+00 3.251560000000000006e+00 2.035885999999999996e+01 3.521279999999999966e+00 6.302349999999999675e+00 2.036238000000000170e+01 -5.100000000000000366e-04 2.650000000000000012e-03 1.145157000000000025e+01 -1.760000000000000009e+00 3.049370000000000136e+00 1.145293999999999990e+01 7.038660000000000139e+00 6.094829999999999970e+00 1.144870000000000054e+01 3.520849999999999813e+00 3.989999999999999623e-03 1.145246000000000031e+01 1.761589999999999989e+00 3.049780000000000157e+00 1.144910999999999923e+01 2.969999999999999984e-03 6.097030000000000172e+00 1.145316000000000045e+01 1.761039999999999939e+00 9.143489999999999895e+00 1.145044000000000040e+01 5.279259999999999842e+00 3.051769999999999872e+00 1.144683999999999990e+01 3.517710000000000115e+00 6.097819999999999574e+00 1.144729000000000063e+01 1.759060000000000068e+00 1.218050000000000077e+00 1.854797999999999902e+01 2.409999999999999816e-03 4.264560000000000350e+00 1.854606000000000066e+01 -1.761980000000000102e+00 7.315030000000000143e+00 1.855174999999999841e+01 5.279709999999999681e+00 1.218069999999999986e+00 1.854626999999999981e+01 3.520950000000000024e+00 4.270209999999999617e+00 1.854785000000000039e+01 1.758110000000000062e+00 7.318100000000000271e+00 1.854741999999999891e+01 8.801230000000000331e+00 1.219999999999999973e+00 1.855255000000000010e+01 7.042089999999999961e+00 4.266449999999999854e+00 1.855056000000000083e+01 5.281710000000000349e+00 7.313550000000000217e+00 1.854605000000000103e+01
-6.999999999999999387e-05 2.029529999999999834e+00 9.639300000000000423e+00 -1.759309999999999929e+00 5.079290000000000305e+00 9.641249999999999432e+00 -3.522460000000000147e+00 8.125550000000000495e+00 9.637779999999999347e+00 3.520610000000000017e+00 2.035499999999999865e+00 9.641030000000000655e+00 1.761710000000000109e+00 5.083619999999999806e+00 9.640230000000000743e+00 -3.239999999999999825e-03 8.129229999999999734e+00 9.639689999999999870e+00 7.037530000000000285e+00 2.039610000000000145e+00 9.644130000000000535e+00 5.277370000000000339e+00 5.081479999999999997e+00 9.639680000000000248e+00 3.519050000000000011e+00 8.126060000000000727e+00 9.639780000000000015e+00 3.229999999999999798e-03 1.999700000000000089e-01 1.673849999999999838e+01 -1.758510000000000018e+00 3.251180000000000181e+00 1.674053999999999931e+01 -3.517110000000000181e+00 6.303099999999999703e+00 1.673817999999999984e+01 3.518759999999999888e+00 1.990099999999999925e-01 1.674444000000000088e+01 1.758440000000000003e+00 3.243720000000000159e+00 1.673380999999999830e+01 -3.670000000000000085e-03 6.297030000000000349e+00 1.674087000000000103e+01 7.043610000000000149e+00 2.075500000000000123e-01 1.674315999999999960e+01 5.276110000000000078e+00 3.253690000000000193e+00 1.673815000000000097e+01 3.522069999999999812e+00 6.301319999999999588e+00 1.674680000000000035e+01 -3.619999999999999954e-03 2.029319999999999791e+00 1.326529000000000025e+01 -1.756680000000000019e+00 5.076859999999999928e+00 1.326049000000000078e+01 -3.518159999999999954e+00 8.131259999999999266e+00 1.325632000000000055e+01 3.516529999999999934e+00 2.031800000000000050e+00 1.325450999999999979e+01 1.757139999999999924e+00 5.084950000000000081e+00 1.325812999999999953e+01 -3.020000000000000115e-03 8.131429999999999936e+00 1.326061999999999941e+01 7.035339999999999705e+00 2.033469999999999889e+00 1.326102000000000025e+01 5.282680000000000042e+00 5.075999999999999623e+00 1.326112000000000002e+01 3.517850000000000144e+00 8.127810000000000201e+00 1.326110000000000078e+01 5.839999999999999705e-03 2.010599999999999887e-01 2.036122999999999905e+01 -1.761479999999999935e+00 3.250370000000000203e+00 2.036124999999999829e+01 -3.522930000000000117e+00 6.298060000000000436e+00 2.035832999999999871e+01 3.522699999999999942e+00 2.034799999999999942e-01 2.035557000000000016e+01 1.760520000000000085e+00 3.256369999999999987e+00 2.036626000000000047e+01 1.600000000000000131e-04 6.296570000000000000e+00 2.036158000000000001e+01 7.044620000000000104e+00 2.045599999999999918e-01 2.035897999999999897e+01 5.278539999999999566e+00 3.251479999999999926e+00 2.035802999999999940e+01 3.522549999999999848e+00 6.304649999999999643e+00 2.036505999999999972e+01 -1.030000000000000100e-03 5.279999999999999971e-03 1.145283000000000051e+01 -1.759989999999999943e+00 3.050320000000000142e+00 1.145556999999999981e+01 7.037320000000000242e+00 6.092859999999999943e+00 1.144711000000000034e+01 3.521689999999999987e+00 7.950000000000000469e-03 1.145458999999999961e+01 1.763149999999999995e+00 3.051159999999999872e+00 1.144792999999999950e+01 5.919999999999999915e-03 6.097240000000000215e+00 1.145599999999999952e+01 1.762080000000000091e+00 9.141759999999999664e+00 1.145058000000000042e+01 5.278520000000000323e+00 3.055120000000000058e+00 1.144341999999999970e+01 3.515449999999999964e+00 6.098819999999999908e+00 1.144430999999999976e+01 1.758119999999999905e+00 1.216749999999999998e+00 1.854731999999999914e+01 4.810000000000000039e-03 4.261350000000000193e+00 1.854347999999999885e+01 -1.763940000000000063e+00 7.313869999999999649e+00 1.855481999999999942e+01 5.279420000000000002e+00 1.216790000000000038e+00 1.854390000000000072e+01 3.521879999999999900e+00 4.272630000000000372e+00 1.854705999999999833e+01 1.756240000000000023e+00 7.320000000000000284e+00 1.854619999999999891e+01 8.802479999999999194e+00 1.220630000000000104e+00 1.855640999999999963e+01 7.044170000000000265e+00 4.265139999999999709e+00 1.855243000000000109e+01 5.283419999999999561e+00 7.310920000000000307e+00 1.854345999999999961e+01
-1.100000000000000039e-04 2.028169999999999806e+00 9.638650000000000162e+00 -1.758950000000000014e+00 5.078599999999999781e+00 9.641579999999999373e+00 -3.523670000000000080e+00 8.123789999999999623e+00 9.636390000000000455e+00 3.520910000000000206e+00 2.037100000000000133e+00 9.641220000000000567e+00 1.762550000000000061e+00 5.085069999999999979e+00 9.640019999999999811e+00 -4.850000000000000144e-03 8.129310000000000258e+00 9.639250000000000540e+00 7.036310000000000286e+00 2.043250000000000011e+00 9.645880000000000010e+00 5.276060000000000194e+00 5.081889999999999574e+00 9.639189999999999259e+00 3.518580000000000041e+00 8.124560000000000670e+00 9.639359999999999928e+00 4.830000000000000092e-03 1.983399999999999885e-01 1.673727999999999838e+01 -1.757770000000000055e+00 3.250929999999999875e+00 1.674032000000000053e+01 -3.515660000000000007e+00 6.304590000000000138e+00 1.673677999999999955e+01 3.518139999999999823e+00 1.968999999999999917e-01 1.674615999999999971e+01 1.757689999999999975e+00 3.239770000000000039e+00 1.673023999999999845e+01 -5.490000000000000088e-03 6.295519999999999783e+00 1.674082999999999899e+01 7.045410000000000394e+00 2.096999999999999975e-01 1.674424000000000134e+01 5.274189999999999934e+00 3.254710000000000214e+00 1.673675000000000068e+01 3.523089999999999833e+00 6.301949999999999719e+00 1.674968000000000146e+01 -5.409999999999999878e-03 2.027880000000000127e+00 1.326802999999999955e+01 -1.755030000000000090e+00 5.074970000000000425e+00 1.326083999999999996e+01 -3.517250000000000210e+00 8.132339999999999236e+00 1.325459000000000032e+01 3.514819999999999833e+00 2.031610000000000138e+00 1.325189999999999912e+01 1.755730000000000013e+00 5.087069999999999759e+00 1.325731000000000037e+01 -4.519999999999999712e-03 8.132619999999999294e+00 1.326103999999999949e+01 7.033009999999999984e+00 2.034069999999999823e+00 1.326162000000000063e+01 5.283990000000000187e+00 5.073690000000000033e+00 1.326176000000000066e+01 3.516779999999999795e+00 8.127169999999999561e+00 1.326174999999999926e+01 8.750000000000000833e-03 1.999700000000000089e-01 2.036198999999999870e+01 -1.762189999999999923e+00 3.249750000000000139e+00 2.036204000000000036e+01 -3.524399999999999977e+00 6.297060000000000102e+00 2.035765999999999920e+01 3.524039999999999839e+00 2.036100000000000132e-01 2.035351999999999961e+01 1.760790000000000077e+00 3.258710000000000218e+00 2.036949999999999861e+01 2.400000000000000061e-04 6.294830000000000148e+00 2.036250000000000071e+01 7.046909999999999563e+00 2.052299999999999958e-01 2.035863000000000156e+01 5.277809999999999668e+00 3.251399999999999846e+00 2.035718999999999923e+01 3.523810000000000109e+00 6.306949999999999612e+00 2.036770999999999887e+01 -1.559999999999999972e-03 7.870000000000000259e-03 1.145406999999999975e+01 -1.759959999999999969e+00 3.051260000000000083e+00 1.145817000000000085e+01 7.036010000000000097e+00 6.090900000000000425e+00 1.144555000000000078e+01 3.522520000000000095e+00 1.187000000000000034e-02 1.145665999999999940e+01 1.764669999999999961e+00 3.052529999999999966e+00 1.144677000000000078e+01 8.819999999999999715e-03 6.097470000000000390e+00 1.145879000000000048e+01 1.763079999999999981e+00 9.140069999999999695e+00 1.145069999999999943e+01 5.277759999999999785e+00 3.058440000000000047e+00 1.144004999999999939e+01 3.513230000000000075e+00 6.099809999999999732e+00 1.144139000000000017e+01 1.757209999999999939e+00 1.215479999999999894e+00 1.854666999999999888e+01 7.190000000000000210e-03 4.258160000000000167e+00 1.854093999999999909e+01 -1.765879999999999894e+00 7.312700000000000422e+00 1.855786000000000158e+01 5.279139999999999944e+00 1.215529999999999999e+00 1.854154000000000124e+01 3.522769999999999957e+00 4.275009999999999977e+00 1.854628999999999905e+01 1.754389999999999894e+00 7.321869999999999656e+00 1.854501000000000133e+01 8.803729999999999833e+00 1.221249999999999947e+00 1.856021000000000143e+01 7.046219999999999928e+00 4.263840000000000074e+00 1.855425999999999931e+01 5.285120000000000040e+00 7.308329999999999771e+00 1.854091999999999985e+01
-1.499999999999999869e-04 2.026839999999999975e+00 9.638019999999999143e+00 -1.758569999999999967e+00 5.077910000000000146e+00 9.641930000000000334e+00 -3.524880000000000013e+00 8.122059999999999391e+00 9.635040000000000049e+00 3.521209999999999951e+00 2.038699999999999957e+00 9.641389999999999461e+00 1.763370000000000104e+00 5.086520000000000152e+00 9.639799999999999258e+00 -6.450000000000000004e-03 8.129379999999999384e+00 9.638830000000000453e+00 7.035110000000000419e+00 2.046860000000000124e+00 9.647619999999999862e+00 5.274740000000000428e+00 5.082309999999999661e+00 9.638669999999999405e+00 3.518120000000000136e+00 8.123089999999999478e+00 9.638930000000000220e+00 6.400000000000000307e-03 1.967099999999999960e-01 1.673607000000000156e+01 -1.757030000000000092e+00 3.250659999999999883e+00 1.674011000000000138e+01 -3.514209999999999834e+00 6.306040000000000312e+00 1.673538999999999888e+01 3.517529999999999824e+00 1.947699999999999987e-01 1.674785999999999930e+01 1.756960000000000077e+00 3.235840000000000050e+00 1.672670000000000101e+01 -7.320000000000000118e-03 6.294010000000000105e+00 1.674079000000000050e+01 7.047220000000000262e+00 2.118400000000000005e-01 1.674530999999999992e+01 5.272289999999999921e+00 3.255710000000000104e+00 1.673536000000000001e+01 3.524080000000000101e+00 6.302570000000000228e+00 1.675253000000000014e+01 -7.179999999999999750e-03 2.026460000000000150e+00 1.327074999999999960e+01 -1.753390000000000004e+00 5.073120000000000296e+00 1.326118999999999915e+01 -3.516350000000000087e+00 8.133419999999999206e+00 1.325285000000000046e+01 3.513119999999999798e+00 2.031449999999999978e+00 1.324930999999999948e+01 1.754359999999999919e+00 5.089190000000000325e+00 1.325652000000000008e+01 -6.009999999999999717e-03 8.133810000000000429e+00 1.326146999999999920e+01 7.030680000000000263e+00 2.034679999999999822e+00 1.326220999999999961e+01 5.285280000000000200e+00 5.071419999999999817e+00 1.326238999999999990e+01 3.515719999999999956e+00 8.126549999999999940e+00 1.326238999999999990e+01 1.166000000000000023e-02 1.988699999999999912e-01 2.036274999999999835e+01 -1.762890000000000068e+00 3.249140000000000139e+00 2.036283999999999850e+01 -3.525860000000000216e+00 6.296059999999999768e+00 2.035701999999999856e+01 3.525370000000000115e+00 2.037400000000000044e-01 2.035150000000000148e+01 1.761069999999999913e+00 3.261039999999999939e+00 2.037269999999999825e+01 3.200000000000000262e-04 6.293079999999999785e+00 2.036339999999999861e+01 7.049170000000000158e+00 2.058899999999999897e-01 2.035828000000000060e+01 5.277090000000000281e+00 3.251300000000000079e+00 2.035634999999999906e+01 3.525059999999999860e+00 6.309249999999999581e+00 2.037031999999999954e+01 -2.099999999999999870e-03 1.041000000000000085e-02 1.145528000000000013e+01 -1.759929999999999994e+00 3.052160000000000206e+00 1.146072000000000024e+01 7.034720000000000084e+00 6.088969999999999771e+00 1.144402999999999970e+01 3.523330000000000073e+00 1.573000000000000093e-02 1.145865000000000045e+01 1.766129999999999978e+00 3.053889999999999993e+00 1.144562999999999953e+01 1.165000000000000063e-02 6.097710000000000186e+00 1.146149999999999913e+01 1.764059999999999961e+00 9.138429999999999609e+00 1.145082000000000022e+01 5.276989999999999625e+00 3.061729999999999841e+00 1.143675999999999959e+01 3.511060000000000070e+00 6.100789999999999935e+00 1.143854999999999933e+01 1.756320000000000103e+00 1.214250000000000052e+00 1.854605000000000103e+01 9.539999999999999869e-03 4.254979999999999762e+00 1.853845000000000098e+01 -1.767800000000000038e+00 7.311510000000000176e+00 1.856084999999999852e+01 5.278889999999999638e+00 1.214299999999999935e+00 1.853922999999999988e+01 3.523610000000000131e+00 4.277350000000000207e+00 1.854553999999999903e+01 1.752569999999999961e+00 7.323719999999999786e+00 1.854385999999999868e+01 8.805009999999999337e+00 1.221840000000000037e+00 1.856393999999999878e+01 7.048239999999999839e+00 4.262559999999999683e+00 1.855602000000000018e+01 5.286810000000000009e+00 7.305780000000000385e+00 1.853844000000000136e+01
-2.000000000000000096e-04 2.025529999999999831e+00 9.637409999999999144e+00 -1.758180000000000076e+00 5.077230000000000132e+00 9.642289999999999139e+00 -3.526079999999999881e+00 8.120359999999999800e+00 9.633729999999999905e+00 3.521510000000000140e+00 2.040290000000000159e+00 9.641529999999999490e+00 1.764159999999999950e+00 5.087959999999999816e+00 9.639549999999999841e+00 -8.040000000000000271e-03 8.129459999999999908e+00 9.638429999999999609e+00 7.033940000000000303e+00 2.050429999999999975e+00 9.649359999999999715e+00 5.273419999999999774e+00 5.082749999999999879e+00 9.638120000000000687e+00 3.517669999999999852e+00 8.121660000000000323e+00 9.638489999999999114e+00 7.950000000000000469e-03 1.950800000000000034e-01 1.673488000000000042e+01 -1.756299999999999972e+00 3.250370000000000203e+00 1.673990999999999829e+01 -3.512739999999999974e+00 6.307450000000000223e+00 1.673402000000000100e+01 3.516900000000000137e+00 1.926299999999999957e-01 1.674953999999999965e+01 1.756259999999999932e+00 3.231920000000000126e+00 1.672318999999999889e+01 -9.140000000000000555e-03 6.292500000000000426e+00 1.674077000000000126e+01 7.049030000000000129e+00 2.139600000000000113e-01 1.674635999999999925e+01 5.270410000000000039e+00 3.256709999999999994e+00 1.673400000000000176e+01 3.525049999999999795e+00 6.303200000000000358e+00 1.675533000000000072e+01 -8.920000000000000845e-03 2.025090000000000057e+00 1.327344000000000079e+01 -1.751779999999999893e+00 5.071310000000000429e+00 1.326154999999999973e+01 -3.515470000000000095e+00 8.134479999999999933e+00 1.325112000000000023e+01 3.511449999999999960e+00 2.031350000000000211e+00 1.324676000000000009e+01 1.753020000000000023e+00 5.091280000000000250e+00 1.325575000000000081e+01 -7.470000000000000077e-03 8.135020000000000806e+00 1.326190000000000069e+01 7.028349999999999653e+00 2.035280000000000200e+00 1.326276000000000010e+01 5.286539999999999573e+00 5.069189999999999863e+00 1.326299999999999990e+01 3.514679999999999804e+00 8.125930000000000319e+00 1.326301999999999914e+01 1.455000000000000043e-02 1.977500000000000091e-01 2.036348999999999876e+01 -1.763540000000000108e+00 3.248549999999999827e+00 2.036364000000000019e+01 -3.527309999999999945e+00 6.295049999999999812e+00 2.035641000000000034e+01 3.526689999999999880e+00 2.038800000000000057e-01 2.034949999999999903e+01 1.761370000000000102e+00 3.263349999999999973e+00 2.037584999999999980e+01 4.099999999999999912e-04 6.291330000000000311e+00 2.036428000000000083e+01 7.051389999999999603e+00 2.065400000000000014e-01 2.035794999999999888e+01 5.276360000000000383e+00 3.251199999999999868e+00 2.035548999999999964e+01 3.526289999999999925e+00 6.311550000000000438e+00 2.037289000000000172e+01 -2.670000000000000064e-03 1.286999999999999950e-02 1.145645000000000024e+01 -1.759870000000000045e+00 3.053030000000000133e+00 1.146321999999999974e+01 7.033479999999999954e+00 6.087069999999999759e+00 1.144256999999999991e+01 3.524119999999999919e+00 1.949000000000000038e-02 1.146050999999999931e+01 1.767500000000000071e+00 3.055250000000000021e+00 1.144453000000000031e+01 1.439000000000000001e-02 6.097959999999999603e+00 1.146411999999999942e+01 1.764990000000000059e+00 9.136850000000000804e+00 1.145092999999999961e+01 5.276209999999999845e+00 3.064960000000000129e+00 1.143357999999999919e+01 3.508980000000000210e+00 6.101740000000000386e+00 1.143582999999999927e+01 1.755460000000000020e+00 1.213060000000000027e+00 1.854545999999999850e+01 1.186000000000000075e-02 4.251839999999999620e+00 1.853603000000000023e+01 -1.769670000000000076e+00 7.310299999999999798e+00 1.856377000000000166e+01 5.278649999999999842e+00 1.213109999999999911e+00 1.853695000000000093e+01 3.524379999999999846e+00 4.279620000000000424e+00 1.854483000000000104e+01 1.750799999999999912e+00 7.325520000000000032e+00 1.854276000000000124e+01 8.806319999999999482e+00 1.222409999999999997e+00 1.856755000000000067e+01 7.050209999999999866e+00 4.261309999999999931e+00 1.855768000000000129e+01 5.288490000000000357e+00 7.303300000000000125e+00 1.853603000000000023e+01
-2.599999999999999772e-04 2.024259999999999948e+00 9.636829999999999785e+00 -1.757749999999999924e+00 5.076550000000000118e+00 9.642680000000000362e+00 -3.527260000000000062e+00 8.118700000000000472e+00 9.632469999999999644e+00 3.521790000000000198e+00 2.041879999999999917e+00 9.641629999999999256e+00 1.764930000000000110e+00 5.089380000000000237e+00 9.639279999999999404e+00 -9.620000000000000079e-03 8.129540000000000433e+00 9.638070000000000803e+00 7.032799999999999940e+00 2.053960000000000008e+00 9.651080000000000325e+00 5.272100000000000009e+00 5.083219999999999850e+00 9.637520000000000309e+00 3.517230000000000079e+00 8.120279999999999276e+00 9.638049999999999784e+00 9.459999999999999659e-03 1.934500000000000108e-01 1.673372000000000170e+01 -1.755579999999999918e+00 3.250049999999999883e+00 1.673971999999999838e+01 -3.511270000000000113e+00 6.308790000000000120e+00 1.673265999999999920e+01 3.516280000000000072e+00 1.904800000000000104e-01 1.675120000000000076e+01 1.755600000000000049e+00 3.228019999999999889e+00 1.671970999999999918e+01 -1.095999999999999926e-02 6.291000000000000369e+00 1.674076000000000164e+01 7.050849999999999618e+00 2.160700000000000121e-01 1.674738999999999933e+01 5.268570000000000420e+00 3.257690000000000197e+00 1.673266999999999882e+01 3.525990000000000180e+00 6.303819999999999979e+00 1.675807000000000002e+01 -1.061999999999999923e-02 2.023759999999999781e+00 1.327612000000000059e+01 -1.750180000000000069e+00 5.069539999999999935e+00 1.326191000000000031e+01 -3.514590000000000103e+00 8.135519999999999641e+00 1.324938000000000038e+01 3.509809999999999874e+00 2.031309999999999949e+00 1.324424999999999919e+01 1.751719999999999944e+00 5.093350000000000044e+00 1.325501000000000040e+01 -8.909999999999999518e-03 8.136240000000000805e+00 1.326234999999999964e+01 7.026010000000000311e+00 2.035880000000000134e+00 1.326328999999999958e+01 5.287749999999999950e+00 5.067009999999999792e+00 1.326356999999999964e+01 3.513650000000000162e+00 8.125310000000000699e+00 1.326365000000000016e+01 1.743000000000000105e-02 1.966100000000000070e-01 2.036422999999999917e+01 -1.764150000000000107e+00 3.247970000000000024e+00 2.036446000000000112e+01 -3.528760000000000119e+00 6.294019999999999726e+00 2.035583000000000098e+01 3.528000000000000025e+00 2.040299999999999891e-01 2.034752999999999901e+01 1.761679999999999913e+00 3.265620000000000189e+00 2.037893000000000043e+01 5.000000000000000104e-04 6.289570000000000327e+00 2.036512000000000100e+01 7.053580000000000183e+00 2.071999999999999953e-01 2.035763000000000034e+01 5.275640000000000107e+00 3.251079999999999970e+00 2.035463000000000022e+01 3.527499999999999858e+00 6.313850000000000406e+00 2.037538999999999945e+01 -3.259999999999999877e-03 1.524999999999999967e-02 1.145758000000000010e+01 -1.759779999999999900e+00 3.053850000000000176e+00 1.146565000000000012e+01 7.032280000000000086e+00 6.085200000000000387e+00 1.144116000000000000e+01 3.524880000000000013e+00 2.315000000000000044e-02 1.146222999999999992e+01 1.768760000000000110e+00 3.056589999999999918e+00 1.144345999999999997e+01 1.700000000000000122e-02 6.098250000000000171e+00 1.146662000000000070e+01 1.765859999999999985e+00 9.135329999999999728e+00 1.145101999999999975e+01 5.275400000000000311e+00 3.068119999999999958e+00 1.143052999999999919e+01 3.506990000000000052e+00 6.102669999999999817e+00 1.143324999999999925e+01 1.754650000000000043e+00 1.211950000000000083e+00 1.854492000000000118e+01 1.413000000000000020e-02 4.248739999999999739e+00 1.853370999999999924e+01 -1.771500000000000075e+00 7.309059999999999668e+00 1.856661000000000072e+01 5.278450000000000308e+00 1.211980000000000057e+00 1.853472999999999971e+01 3.525059999999999860e+00 4.281810000000000116e+00 1.854418000000000077e+01 1.749090000000000034e+00 7.327280000000000015e+00 1.854173000000000116e+01 8.807669999999999888e+00 1.222939999999999916e+00 1.857103999999999999e+01 7.052130000000000010e+00 4.260089999999999932e+00 1.855922999999999945e+01 5.290149999999999686e+00 7.300880000000000258e+00 1.853372999999999848e+01