0.000000000000000000e+00 -1.804000000000000048e-03 1.252999999999999991e-03 9.999999999999999547e-07 -1.794999999999999938e-03 1.255000000000000039e-03 9.999999999999999547e-07 -1.801000000000000083e-03 1.252999999999999991e-03 3.000000000000000076e-06 -1.804000000000000048e-03 1.255999999999999955e-03 -6.000000000000000152e-06 -1.796999999999999986e-03 1.250999999999999942e-03 0.000000000000000000e+00 -1.804000000000000048e-03 1.252999999999999991e-03 -1.999999999999999909e-06 -1.802999999999999915e-03 1.255000000000000039e-03 3.000000000000000076e-06 -1.804000000000000048e-03 1.250000000000000026e-03 -1.999999999999999909e-06 -1.799000000000000035e-03 1.252999999999999991e-03 3.000000000000000076e-06 -2.340899999999999925e-02 3.899000000000000122e-03 -1.999999999999999909e-06 -2.341100000000000125e-02 3.902999999999999785e-03 3.999999999999999819e-06 -2.341299999999999978e-02 3.899999999999999821e-03 5.000000000000000409e-06 -2.341000000000000025e-02 3.903999999999999918e-03 -3.999999999999999819e-06 -2.341400000000000078e-02 3.899999999999999821e-03 9.999999999999999547e-07 -2.341100000000000125e-02 3.902999999999999785e-03 -3.999999999999999819e-06 -2.341199999999999878e-02 3.903999999999999918e-03 1.999999999999999909e-06 -2.341599999999999931e-02 3.903999999999999918e-03 -3.999999999999999819e-06 -2.340800000000000172e-02 3.900999999999999954e-03 0.000000000000000000e+00 2.447300000000000170e-02 -7.460000000000000268e-04 -9.999999999999999547e-07 2.447999999999999829e-02 -7.489999999999999913e-04 1.999999999999999909e-06 2.447399999999999923e-02 -7.470000000000000511e-04 3.999999999999999819e-06 2.447699999999999876e-02 -7.460000000000000268e-04 -9.999999999999999547e-07 2.447999999999999829e-02 -7.420000000000000380e-04 9.999999999999999547e-07 2.447600000000000123e-02 -7.470000000000000511e-04 -3.000000000000000076e-06 2.447600000000000123e-02 -7.489999999999999913e-04 1.999999999999999909e-06 2.447600000000000123e-02 -7.460000000000000268e-04 9.999999999999999547e-07 2.447900000000000076e-02 -7.460000000000000268e-04 1.999999999999999909e-06 -2.979999999999999793e-04 1.783999999999999996e-03 -9.999999999999999547e-07 -2.999999999999999737e-04 1.781000000000000031e-03 1.999999999999999909e-06 -2.999999999999999737e-04 1.781000000000000031e-03 3.000000000000000076e-06 -2.970000000000000092e-04 1.779999999999999898e-03 1.999999999999999909e-06 -3.009999999999999980e-04 1.786000000000000044e-03 3.999999999999999819e-06 -2.990000000000000036e-04 1.783000000000000080e-03 -5.000000000000000409e-06 -3.020000000000000223e-04 1.781000000000000031e-03 3.000000000000000076e-06 -3.060000000000000111e-04 1.781999999999999947e-03 -3.000000000000000076e-06 -3.009999999999999980e-04 1.781000000000000031e-03 0.000000000000000000e+00 8.602999999999999536e-03 -3.099999999999999999e-04 -3.999999999999999819e-06 8.599000000000000740e-03 -3.089999999999999756e-04 3.999999999999999819e-06 8.597999999999999740e-03 -3.110000000000000243e-04 1.999999999999999909e-06 8.600999999999999271e-03 -3.139999999999999888e-04 9.999999999999999547e-07 8.595999999999999475e-03 -3.119999999999999944e-04 -7.999999999999999638e-06 8.607000000000000067e-03 -3.119999999999999944e-04 -3.000000000000000076e-06 8.600000000000000006e-03 -3.099999999999999999e-04 9.999999999999999547e-07 8.597000000000000475e-03 -3.099999999999999999e-04 1.999999999999999909e-06 8.600999999999999271e-03 -3.089999999999999756e-04 -9.999999999999999547e-07 -7.551000000000000420e-03 -6.174999999999999933e-03 -9.999999999999999547e-07 -7.553999999999999951e-03 -6.174999999999999933e-03 -9.999999999999999547e-07 -7.551000000000000420e-03 -6.172999999999999668e-03 -3.000000000000000076e-06 -7.551999999999999685e-03 -6.173999999999999801e-03 -3.000000000000000076e-06 -7.551000000000000420e-03 -6.172999999999999668e-03 -9.999999999999999547e-07 -7.551999999999999685e-03 -6.172999999999999668e-03 1.999999999999999909e-06 -7.551000000000000420e-03 -6.172000000000000403e-03 1.999999999999999909e-06 -7.552999999999999818e-03 -6.172000000000000403e-03 -3.000000000000000076e-06 -7.548000000000000022e-03 -6.170000000000000137e-03
-5.688000000000000347e-03 2.381399999999999836e-02 1.997099999999999917e-02 1.804899999999999907e-02 3.821999999999999877e-03 1.744400000000000117e-02 1.309300000000000047e-02 2.571800000000000128e-02 4.064000000000000251e-02 -3.674999999999999881e-03 -8.505000000000000407e-03 -2.321399999999999852e-02 -2.052299999999999958e-02 -1.241199999999999942e-02 -1.680099999999999996e-02 1.027199999999999988e-02 1.203000000000000076e-03 2.470200000000000173e-02 2.305799999999999864e-02 -3.724999999999999839e-02 -6.074999999999999671e-03 -1.113999999999999973e-03 1.348099999999999993e-02 -2.839600000000000110e-02 8.562999999999999431e-03 3.069600000000000106e-02 -3.720000000000000216e-03 -2.595499999999999891e-02 -1.498900000000000059e-02 2.207299999999999887e-02 -6.167999999999999872e-03 -3.731899999999999801e-02 1.098099999999999944e-02 4.954000000000000070e-03 -6.074399999999999938e-02 1.398100000000000037e-02 -4.530000000000000064e-04 -2.415300000000000086e-02 -1.454300000000000037e-02 2.938299999999999940e-02 8.660000000000000163e-04 3.182499999999999912e-02 5.257000000000000388e-03 -1.279199999999999955e-02 1.440299999999999914e-02 2.207999999999999893e-03 -2.990900000000000156e-02 -1.055099999999999962e-02 2.513400000000000009e-02 -2.687399999999999858e-02 2.329799999999999927e-02 -2.355499999999999955e-02 -1.933299999999999949e-02 -3.841699999999999976e-02 2.585300000000000098e-02 5.271200000000000191e-02 -2.170100000000000154e-02 -1.686199999999999852e-02 5.196499999999999730e-02 1.541999999999999968e-03 -1.123500000000000019e-02 6.411000000000000032e-03 9.120000000000000502e-04 2.320499999999999993e-02 6.091400000000000287e-02 3.103699999999999862e-02 3.212199999999999778e-02 1.196000000000000014e-03 2.126300000000000065e-02 1.794799999999999868e-02 2.718999999999999889e-02 7.263000000000000358e-03 3.390000000000000001e-04 1.727100000000000163e-02 -2.159300000000000108e-02 -3.098899999999999919e-02 5.765599999999999892e-02 -2.273800000000000127e-02 1.282800000000000086e-02 2.318200000000000122e-02 -7.446000000000000361e-03 -1.097399999999999938e-02 -1.354099999999999922e-02 -6.980000000000000093e-03 2.994000000000000133e-02 1.239799999999999930e-02 9.504999999999999560e-03 5.524000000000000264e-03 -6.806000000000000417e-03 2.667399999999999979e-02 -9.794999999999999887e-03 4.802999999999999978e-03 2.444599999999999898e-02 1.248800000000000084e-02 -2.365000000000000088e-02 -4.902299999999999713e-02 3.501000000000000206e-03 -5.269000000000000246e-03 -2.200200000000000072e-02 -3.038000000000000075e-02 -4.096999999999999947e-03 9.305000000000000770e-03 2.226000000000000114e-03 -1.026000000000000002e-02 -5.697999999999999940e-03 -1.518100000000000005e-02 -2.314000000000000085e-03 -4.211899999999999672e-02 -1.302799999999999965e-02 -4.206200000000000216e-02 -2.662799999999999889e-02 1.430900000000000054e-02 -1.869699999999999834e-02 -3.716499999999999665e-02 2.552199999999999955e-02 2.790700000000000125e-02 3.361999999999999711e-02 -1.570500000000000021e-02 -5.190899999999999681e-02 -7.585699999999999388e-02 -5.616800000000000265e-02 -1.540000000000000028e-04 2.090900000000000050e-02 -6.176199999999999746e-02 1.782500000000000057e-02 -6.274200000000000610e-02 -2.893099999999999838e-02 4.613199999999999940e-02 -9.254000000000000073e-03 -1.108899999999999990e-02 -2.917900000000000008e-02 7.060900000000000509e-02 5.199600000000000055e-02 -8.649999999999999703e-03 7.486099999999999699e-02 2.302600000000000133e-02 2.889600000000000155e-02 1.922400000000000150e-02 -2.537599999999999925e-02 1.554200000000000026e-02 4.365600000000000036e-02 2.575699999999999865e-02 -1.835200000000000026e-02 -4.800299999999999706e-02 1.555300000000000085e-02 2.224200000000000135e-02 2.483700000000000144e-02 -4.620500000000000301e-02 -4.697799999999999893e-02 1.992400000000000074e-02 3.123099999999999835e-02 -3.279599999999999876e-02 3.081800000000000164e-02 1.812000000000000069e-02 -2.274299999999999933e-02 -7.444800000000000029e-02 -3.024400000000000005e-02 1.357900000000000079e-02 -6.598199999999999898e-02 -1.068299999999999979e-02 3.429999999999999716e-02 4.867799999999999905e-02
-1.120200000000000015e-02 4.912400000000000100e-02 3.827900000000000053e-02 3.563100000000000295e-02 9.294000000000000178e-03 3.320599999999999941e-02 2.562499999999999847e-02 5.259199999999999986e-02 7.883300000000000030e-02 -7.447999999999999760e-03 -1.523200000000000075e-02 -4.776199999999999890e-02 -4.123199999999999782e-02 -2.303099999999999939e-02 -3.497999999999999721e-02 2.052400000000000058e-02 4.249000000000000173e-03 4.760600000000000248e-02 4.627200000000000063e-02 -7.243299999999999739e-02 -1.385899999999999979e-02 -2.180000000000000080e-03 2.901400000000000159e-02 -5.812900000000000011e-02 1.691399999999999848e-02 6.316299999999999693e-02 -9.043999999999999956e-03 -5.133299999999999669e-02 -6.798000000000000223e-03 3.965300000000000075e-02 -1.224399999999999968e-02 -5.100999999999999979e-02 1.776900000000000007e-02 9.978000000000000758e-03 -9.731199999999999573e-02 2.343800000000000050e-02 -9.039999999999999642e-04 -2.492199999999999971e-02 -3.297800000000000037e-02 5.800899999999999807e-02 2.478400000000000047e-02 5.908399999999999763e-02 1.060700000000000011e-02 -2.330000000000000040e-03 2.482900000000000038e-02 4.551999999999999623e-03 -3.635700000000000043e-02 -2.504599999999999882e-02 4.965100000000000069e-02 -3.047000000000000056e-02 4.223099999999999771e-02 -4.733099999999999807e-02 -1.519000000000000038e-02 -8.097999999999999643e-02 5.086100000000000343e-02 8.030299999999999938e-02 -4.191299999999999887e-02 -3.343600000000000044e-02 7.937199999999999811e-02 4.211999999999999598e-03 -2.245099999999999874e-02 -1.148399999999999942e-02 2.706000000000000072e-03 4.615600000000000258e-02 9.765999999999999681e-02 6.360499999999999488e-02 6.455099999999999727e-02 -2.223100000000000076e-02 4.382799999999999890e-02 3.579500000000000043e-02 2.978199999999999945e-02 1.527200000000000085e-02 9.610000000000000486e-04 1.013799999999999944e-02 -4.207299999999999929e-02 -6.095899999999999930e-02 9.029800000000000326e-02 -4.368899999999999867e-02 2.551900000000000002e-02 2.195599999999999982e-02 -1.399000000000000070e-02 -2.199600000000000166e-02 -2.635099999999999942e-02 -1.538400000000000011e-02 5.956700000000000189e-02 2.492799999999999877e-02 1.756699999999999928e-02 1.094000000000000007e-02 -1.336399999999999914e-02 5.168299999999999977e-02 -1.948099999999999832e-02 9.863999999999999505e-03 4.707000000000000073e-02 2.466199999999999989e-02 -4.633799999999999725e-02 -9.869400000000000395e-02 6.905999999999999812e-03 -9.962000000000000369e-03 -4.544900000000000329e-02 -6.060100000000000209e-02 -8.035000000000000475e-03 1.706600000000000131e-02 4.393000000000000203e-03 -2.000400000000000095e-02 -1.307700000000000008e-02 -2.999800000000000036e-02 -4.635000000000000231e-03 -8.525299999999999545e-02 -2.587199999999999916e-02 -9.202200000000000657e-02 -5.237399999999999695e-02 2.835899999999999879e-02 -4.583399999999999974e-02 -7.367200000000000137e-02 5.051900000000000140e-02 4.693599999999999856e-02 6.689000000000000501e-02 -3.077600000000000127e-02 -1.120570000000000038e-01 -1.506409999999999971e-01 -1.114369999999999944e-01 -8.444000000000000117e-03 4.124200000000000088e-02 -1.232509999999999994e-01 2.719699999999999895e-02 -1.248230000000000034e-01 -5.754800000000000193e-02 8.308899999999999619e-02 -1.787100000000000147e-02 -2.235300000000000134e-02 -6.651200000000000168e-02 1.411139999999999894e-01 1.032489999999999936e-01 -2.549099999999999977e-02 1.490849999999999953e-01 4.592299999999999854e-02 6.454100000000000115e-02 4.382699999999999790e-02 -5.014899999999999913e-02 3.831500000000000183e-02 9.267999999999999849e-02 5.134899999999999881e-02 -2.909499999999999933e-02 -8.943500000000000061e-02 3.081400000000000111e-02 5.181800000000000295e-02 5.549199999999999966e-02 -9.128400000000000403e-02 -8.612599999999999423e-02 4.619199999999999695e-02 6.181099999999999789e-02 -5.766500000000000098e-02 6.713500000000000023e-02 3.602000000000000340e-02 -3.780100000000000127e-02 -1.418570000000000109e-01 -6.000500000000000278e-02 3.430600000000000316e-02 -1.245689999999999992e-01 -2.099099999999999924e-02 7.574899999999999689e-02 1.031929999999999931e-01
-1.651700000000000043e-02 7.401399999999999646e-02 5.596399999999999986e-02 5.257400000000000267e-02 1.459200000000000080e-02 4.834399999999999809e-02 3.758199999999999735e-02 7.871000000000000218e-02 1.156080000000000024e-01 -1.136599999999999937e-02 -2.196000000000000035e-02 -7.214600000000000180e-02 -6.198399999999999743e-02 -3.361900000000000305e-02 -5.303700000000000081e-02 3.078499999999999986e-02 7.348999999999999630e-03 6.969999999999999807e-02 6.947699999999999709e-02 -1.072550000000000031e-01 -2.212599999999999983e-02 -3.106999999999999953e-03 4.463700000000000306e-02 -8.755599999999999494e-02 2.494299999999999989e-02 9.540300000000000169e-02 -1.460900000000000046e-02 -7.592200000000000337e-02 1.147000000000000016e-03 5.668399999999999828e-02 -1.822500000000000162e-02 -6.436100000000000154e-02 2.424000000000000113e-02 1.485700000000000041e-02 -1.330020000000000091e-01 3.237000000000000294e-02 -1.270000000000000078e-03 -2.555999999999999939e-02 -5.127299999999999913e-02 8.568199999999999428e-02 4.838900000000000146e-02 8.564099999999999491e-02 1.624199999999999949e-02 7.964000000000000593e-03 3.510400000000000326e-02 6.888000000000000025e-03 -4.291099999999999776e-02 -3.951400000000000051e-02 7.354099999999999526e-02 -3.423199999999999854e-02 6.060800000000000215e-02 -7.121099999999999652e-02 -1.097399999999999938e-02 -1.236229999999999968e-01 7.497499999999999998e-02 1.071060000000000068e-01 -6.135100000000000275e-02 -4.969099999999999906e-02 1.066160000000000024e-01 7.261000000000000093e-03 -3.358400000000000274e-02 -2.911700000000000052e-02 4.687000000000000194e-03 6.870700000000000418e-02 1.344090000000000007e-01 9.676099999999999979e-02 9.707100000000000450e-02 -4.569899999999999657e-02 6.680099999999999927e-02 5.343200000000000033e-02 3.219000000000000333e-02 2.311900000000000066e-02 1.978999999999999856e-03 3.118000000000000112e-03 -6.203299999999999786e-02 -8.978800000000000670e-02 1.223240000000000022e-01 -6.344800000000000439e-02 3.797199999999999881e-02 2.087299999999999919e-02 -2.033599999999999991e-02 -3.306200000000000111e-02 -3.858799999999999730e-02 -2.344399999999999956e-02 8.863400000000000445e-02 3.724800000000000333e-02 2.575699999999999865e-02 1.628399999999999986e-02 -1.996200000000000058e-02 7.656300000000000605e-02 -2.903599999999999931e-02 1.483699999999999949e-02 6.956900000000000583e-02 3.637599999999999861e-02 -6.846700000000000008e-02 -1.468780000000000086e-01 1.021400000000000086e-02 -1.425300000000000004e-02 -6.834800000000000597e-02 -9.055000000000000548e-02 -1.210699999999999971e-02 2.499499999999999986e-02 6.642000000000000334e-03 -2.945700000000000054e-02 -2.025400000000000117e-02 -4.442600000000000021e-02 -7.290999999999999738e-03 -1.273990000000000122e-01 -3.835899999999999727e-02 -1.410230000000000095e-01 -7.737299999999999733e-02 4.192699999999999899e-02 -7.263999999999999624e-02 -1.095870000000000039e-01 7.482800000000000562e-02 6.554000000000000103e-02 9.928199999999999525e-02 -4.522000000000000325e-02 -1.715049999999999908e-01 -2.240659999999999874e-01 -1.654229999999999867e-01 -1.634199999999999889e-02 6.060200000000000309e-02 -1.840229999999999921e-01 3.670799999999999758e-02 -1.860719999999999874e-01 -8.571800000000000253e-02 1.191860000000000003e-01 -2.607699999999999949e-02 -3.365699999999999942e-02 -1.032219999999999943e-01 2.106570000000000109e-01 1.534040000000000126e-01 -4.186700000000000144e-02 2.217870000000000119e-01 6.848500000000000421e-02 9.907199999999999340e-02 6.744200000000000195e-02 -7.432300000000000018e-02 6.067499999999999977e-02 1.405760000000000065e-01 7.661199999999999954e-02 -3.958899999999999919e-02 -1.302310000000000134e-01 4.576299999999999812e-02 8.097300000000000331e-02 8.560399999999999954e-02 -1.348810000000000009e-01 -1.247390000000000027e-01 7.234400000000000552e-02 9.158199999999999674e-02 -8.197300000000000419e-02 1.024879999999999958e-01 5.353100000000000219e-02 -5.259300000000000086e-02 -2.079880000000000062e-01 -8.920799999999999563e-02 5.455100000000000227e-02 -1.815199999999999869e-01 -3.082500000000000170e-02 1.165680000000000049e-01 1.569720000000000004e-01
-2.160300000000000067e-02 9.831099999999999561e-02 7.291899999999999771e-02 6.871199999999999530e-02 1.967199999999999852e-02 6.270100000000000673e-02 4.889600000000000196e-02 1.039339999999999986e-01 1.507439999999999891e-01 -1.547699999999999944e-02 -2.861599999999999908e-02 -9.615799999999999348e-02 -8.260800000000000087e-02 -4.410100000000000131e-02 -7.072699999999999820e-02 4.107399999999999940e-02 1.049100000000000033e-02 9.071999999999999509e-02 9.247500000000000164e-02 -1.415540000000000131e-01 -3.083299999999999930e-02 -3.814000000000000116e-03 6.017900000000000332e-02 -1.163249999999999978e-01 3.256200000000000067e-02 1.271809999999999885e-01 -2.028200000000000142e-02 -9.953299999999999648e-02 8.843999999999999431e-03 7.310600000000000431e-02 -2.401400000000000062e-02 -7.728500000000000647e-02 3.033200000000000132e-02 1.944200000000000095e-02 -1.675919999999999910e-01 4.074699999999999850e-02 -1.477000000000000014e-03 -2.597899999999999862e-02 -6.932199999999999473e-02 1.122289999999999954e-01 7.170700000000000685e-02 1.115000000000000019e-01 2.224100000000000035e-02 1.801300000000000123e-02 4.520799999999999819e-02 9.126999999999999696e-03 -4.961100000000000232e-02 -5.385700000000000209e-02 9.661400000000000543e-02 -3.814399999999999735e-02 7.837900000000000422e-02 -9.503100000000000436e-02 -6.767999999999999711e-03 -1.660230000000000039e-01 9.810599999999999876e-02 1.329110000000000014e-01 -8.005199999999999816e-02 -6.555600000000000316e-02 1.335369999999999890e-01 1.061400000000000017e-02 -4.458399999999999863e-02 -4.637800000000000256e-02 6.864000000000000309e-03 9.065499999999999947e-02 1.707930000000000004e-01 1.302560000000000107e-01 1.293850000000000000e-01 -6.905600000000000627e-02 8.996400000000000230e-02 7.072900000000000020e-02 3.436600000000000071e-02 3.064300000000000010e-02 3.457000000000000003e-03 -3.748000000000000029e-03 -8.136000000000000176e-02 -1.173150000000000026e-01 1.536210000000000075e-01 -8.184700000000000308e-02 5.009399999999999964e-02 2.000599999999999948e-02 -2.647100000000000147e-02 -4.417599999999999999e-02 -5.009199999999999764e-02 -3.107299999999999993e-02 1.169329999999999953e-01 4.924499999999999711e-02 3.387099999999999833e-02 2.161700000000000080e-02 -2.656599999999999934e-02 1.011719999999999980e-01 -3.837299999999999739e-02 1.961999999999999855e-02 9.186500000000000221e-02 4.753199999999999786e-02 -8.997700000000000142e-02 -1.932979999999999976e-01 1.338800000000000059e-02 -1.810300000000000104e-02 -9.054199999999999748e-02 -1.200340000000000018e-01 -1.622200000000000031e-02 3.301500000000000268e-02 8.982999999999999666e-03 -3.851700000000000262e-02 -2.718200000000000130e-02 -5.840800000000000158e-02 -1.037599999999999981e-02 -1.683340000000000114e-01 -5.037200000000000011e-02 -1.886710000000000054e-01 -1.014120000000000021e-01 5.489100000000000229e-02 -9.891099999999999892e-02 -1.446260000000000046e-01 9.825699999999999712e-02 8.355700000000000627e-02 1.305270000000000041e-01 -5.899299999999999683e-02 -2.297669999999999990e-01 -2.954399999999999804e-01 -2.177360000000000129e-01 -2.385299999999999920e-02 7.886600000000000554e-02 -2.435569999999999957e-01 4.628700000000000175e-02 -2.459189999999999987e-01 -1.132309999999999983e-01 1.541379999999999972e-01 -3.378799999999999859e-02 -4.487700000000000022e-02 -1.390379999999999949e-01 2.785659999999999803e-01 2.020790000000000086e-01 -5.767300000000000204e-02 2.922839999999999883e-01 9.054399999999999948e-02 1.322629999999999917e-01 8.985799999999999343e-02 -9.771699999999999831e-02 8.250200000000000589e-02 1.869560000000000111e-01 1.013949999999999990e-01 -4.973999999999999949e-02 -1.700800000000000090e-01 6.031899999999999762e-02 1.094750000000000029e-01 1.149580000000000046e-01 -1.766850000000000087e-01 -1.625250000000000028e-01 9.804400000000000615e-02 1.203260000000000024e-01 -1.055679999999999952e-01 1.365369999999999917e-01 7.050299999999999623e-02 -6.700899999999999912e-02 -2.722939999999999805e-01 -1.176809999999999939e-01 7.415499999999999869e-02 -2.363190000000000013e-01 -4.012700000000000294e-02 1.564359999999999917e-01 2.095390000000000030e-01
-2.644799999999999929e-02 1.218670000000000031e-01 8.902400000000000591e-02 8.389699999999999935e-02 2.450400000000000147e-02 7.616000000000000547e-02 5.953300000000000258e-02 1.281370000000000009e-01 1.840700000000000114e-01 -1.982899999999999940e-02 -3.514400000000000163e-02 -1.195890000000000009e-01 -1.029260000000000036e-01 -5.439200000000000285e-02 -8.779399999999999704e-02 5.139599999999999724e-02 1.367200000000000013e-02 1.104340000000000044e-01 1.150889999999999969e-01 -1.751870000000000094e-01 -3.994299999999999934e-02 -4.212999999999999731e-03 7.548000000000000542e-02 -1.440730000000000066e-01 3.967999999999999999e-02 1.582719999999999960e-01 -2.593200000000000019e-02 -1.219810000000000061e-01 1.631099999999999911e-02 8.890399999999999692e-02 -2.954999999999999988e-02 -8.970300000000000495e-02 3.598699999999999816e-02 2.359199999999999839e-02 -2.009160000000000112e-01 4.859399999999999831e-02 -1.466000000000000072e-03 -2.609099999999999961e-02 -8.697900000000000076e-02 1.375029999999999863e-01 9.475200000000000289e-02 1.366779999999999939e-01 2.870599999999999888e-02 2.777699999999999961e-02 5.513099999999999945e-02 1.118899999999999929e-02 -5.654100000000000098e-02 -6.798300000000000176e-02 1.187320000000000042e-01 -4.218000000000000221e-02 9.549900000000000055e-02 -1.186510000000000065e-01 -2.641999999999999817e-03 -2.078569999999999862e-01 1.201740000000000030e-01 1.575449999999999906e-01 -9.802700000000000302e-02 -8.097600000000000631e-02 1.599829999999999863e-01 1.419800000000000055e-02 -5.537500000000000061e-02 -6.317000000000000393e-02 9.239000000000000684e-03 1.118149999999999977e-01 2.064269999999999994e-01 1.638320000000000054e-01 1.611950000000000049e-01 -9.215500000000000080e-02 1.131009999999999932e-01 8.754800000000000082e-02 3.626499999999999863e-02 3.767700000000000216e-02 5.477000000000000098e-03 -1.042299999999999997e-02 -9.994400000000000506e-02 -1.434149999999999869e-01 1.841089999999999949e-01 -9.873800000000000632e-02 6.178999999999999770e-02 1.942400000000000029e-02 -3.237299999999999900e-02 -5.531599999999999712e-02 -6.070799999999999808e-02 -3.822899999999999909e-02 1.442440000000000111e-01 6.082300000000000206e-02 4.170999999999999708e-02 2.700899999999999829e-02 -3.315799999999999997e-02 1.253370000000000040e-01 -4.743900000000000200e-02 2.411999999999999908e-02 1.138450000000000017e-01 5.805600000000000344e-02 -1.108650000000000052e-01 -2.377049999999999996e-01 1.640499999999999944e-02 -2.143799999999999872e-02 -1.118949999999999945e-01 -1.488680000000000003e-01 -2.032399999999999832e-02 4.103500000000000203e-02 1.145200000000000037e-02 -4.707700000000000079e-02 -3.381100000000000078e-02 -7.192999999999999394e-02 -1.395000000000000059e-02 -2.078770000000000062e-01 -6.178299999999999764e-02 -2.346129999999999882e-01 -1.242990000000000067e-01 6.712100000000000011e-02 -1.244289999999999979e-01 -1.784940000000000138e-01 1.206430000000000002e-01 1.008489999999999942e-01 1.603789999999999938e-01 -7.206500000000000405e-02 -2.863999999999999879e-01 -3.640880000000000227e-01 -2.680210000000000092e-01 -3.099500000000000172e-02 9.594400000000000150e-02 -3.013640000000000208e-01 5.588599999999999818e-02 -3.037949999999999817e-01 -1.399040000000000006e-01 1.876730000000000065e-01 -4.092900000000000010e-02 -5.587400000000000005e-02 -1.736840000000000050e-01 3.441879999999999939e-01 2.489139999999999964e-01 -7.282099999999999684e-02 3.599310000000000009e-01 1.119330000000000047e-01 1.638809999999999989e-01 1.108910000000000035e-01 -1.201929999999999943e-01 1.037030000000000035e-01 2.314599999999999991e-01 1.255459999999999909e-01 -5.943600000000000272e-02 -2.086760000000000004e-01 7.440599999999999992e-02 1.370969999999999966e-01 1.433319999999999872e-01 -2.164069999999999883e-01 -1.992130000000000012e-01 1.229780000000000040e-01 1.478470000000000062e-01 -1.282979999999999954e-01 1.689829999999999943e-01 8.678199999999999803e-02 -8.096200000000000618e-02 -3.342559999999999976e-01 -1.452829999999999955e-01 9.300799999999999346e-02 -2.885070000000000134e-01 -4.883699999999999847e-02 1.950580000000000092e-01 2.604290000000000216e-01
-3.102999999999999856e-02 1.445430000000000048e-01 1.042010000000000020e-01 9.799700000000000077e-02 2.906399999999999956e-02 8.860999999999999432e-02 6.945400000000000185e-02 1.512219999999999953e-01 2.154530000000000056e-01 -2.447600000000000123e-02 -4.147399999999999698e-02 -1.422360000000000013e-01 -1.227720000000000061e-01 -6.442299999999999416e-02 -1.039940000000000031e-01 6.176899999999999752e-02 1.687900000000000164e-02 1.286309999999999953e-01 1.371419999999999861e-01 -2.080180000000000085e-01 -4.940300000000000247e-02 -4.220999999999999926e-03 9.037399999999999600e-02 -1.704650000000000054e-01 4.622300000000000020e-02 1.884649999999999936e-01 -3.141900000000000248e-02 -1.431149999999999922e-01 2.356700000000000114e-02 1.040750000000000008e-01 -3.477000000000000229e-02 -1.015490000000000004e-01 4.117200000000000026e-02 2.716199999999999865e-02 -2.328179999999999972e-01 5.594600000000000267e-02 -1.168999999999999900e-03 -2.579899999999999902e-02 -1.041350000000000053e-01 1.613700000000000134e-01 1.175490000000000007e-01 1.612049999999999872e-01 3.572899999999999687e-02 3.720899999999999902e-02 6.486899999999999611e-02 1.299600000000000061e-02 -6.375799999999999523e-02 -8.179699999999999471e-02 1.397710000000000063e-01 -4.632000000000000006e-02 1.119430000000000008e-01 -1.419209999999999916e-01 1.337999999999999997e-03 -2.488219999999999876e-01 1.411389999999999867e-01 1.808450000000000057e-01 -1.153440000000000021e-01 -9.590300000000000213e-02 1.858190000000000119e-01 1.791799999999999990e-02 -6.590799999999999437e-02 -7.940300000000000136e-02 1.180299999999999926e-02 1.320050000000000112e-01 2.409280000000000033e-01 1.972069999999999934e-01 1.921920000000000017e-01 -1.148490000000000066e-01 1.359769999999999868e-01 1.037659999999999971e-01 3.784699999999999870e-02 4.405400000000000288e-02 8.097999999999999296e-03 -1.687500000000000111e-02 -1.176900000000000029e-01 -1.679759999999999864e-01 2.137290000000000023e-01 -1.139949999999999991e-01 7.298100000000000420e-02 1.920200000000000032e-02 -3.802799999999999930e-02 -6.647799999999999543e-02 -7.029900000000000038e-02 -4.487800000000000122e-02 1.703689999999999927e-01 7.188799999999999357e-02 4.905500000000000138e-02 3.253299999999999942e-02 -3.972200000000000036e-02 1.489010000000000056e-01 -5.617099999999999871e-02 2.824700000000000127e-02 1.354180000000000106e-01 6.787700000000000677e-02 -1.311229999999999896e-01 -2.798919999999999741e-01 1.924700000000000022e-02 -2.421999999999999847e-02 -1.322929999999999939e-01 -1.768740000000000034e-01 -2.434000000000000052e-02 4.895700000000000052e-02 1.408000000000000050e-02 -5.504900000000000071e-02 -4.010099999999999776e-02 -8.497699999999999698e-02 -1.807399999999999979e-02 -2.458710000000000062e-01 -7.248400000000000676e-02 -2.785199999999999898e-01 -1.458679999999999977e-01 7.852399999999999658e-02 -1.489989999999999926e-01 -2.109260000000000024e-01 1.418470000000000009e-01 1.172850000000000004e-01 1.886170000000000069e-01 -8.443000000000000504e-02 -3.409760000000000013e-01 -4.293799999999999839e-01 -3.159480000000000066e-01 -3.780100000000000127e-02 1.117620000000000002e-01 -3.569849999999999968e-01 6.543200000000000405e-02 -3.591550000000000020e-01 -1.655629999999999880e-01 2.195499999999999952e-01 -4.744099999999999706e-02 -6.652600000000000180e-02 -2.069169999999999898e-01 4.068939999999999779e-01 2.935780000000000056e-01 -8.722299999999999498e-02 4.241130000000000178e-01 1.324889999999999957e-01 1.937300000000000133e-01 1.303749999999999909e-01 -1.416239999999999999e-01 1.241789999999999977e-01 2.737680000000000113e-01 1.489240000000000008e-01 -6.858100000000000307e-02 -2.457310000000000050e-01 8.797000000000000652e-02 1.636229999999999907e-01 1.705309999999999881e-01 -2.538020000000000276e-01 -2.345470000000000055e-01 1.468440000000000023e-01 1.739759999999999918e-01 -1.500180000000000125e-01 1.995580000000000132e-01 1.022320000000000034e-01 -9.436999999999999555e-02 -3.933900000000000174e-01 -1.718629999999999880e-01 1.109890000000000043e-01 -3.376540000000000097e-01 -5.691899999999999737e-02 2.321630000000000082e-01 3.091969999999999996e-01