 vasp.6.1.1 19Jun20 (build Dec 21 2021 08:45:49) complex                        
  
 executed on             LinuxIFC date 2023.10.07  10:20:20
 running on   40 total cores
 distrk:  each k-point on   40 cores,    1 groups
 distr:  one band on NCORE=   1 cores,   40 groups


--------------------------------------------------------------------------------------------------------


 INCAR:
 POTCAR:   PAW_PBE Te 08Apr2002                   
 POTCAR:   PAW_PBE Mo 08Apr2002                   
 -----------------------------------------------------------------------------
|                                                                             |
|           W    W    AA    RRRRR   N    N  II  N    N   GGGG   !!!           |
|           W    W   A  A   R    R  NN   N  II  NN   N  G    G  !!!           |
|           W    W  A    A  R    R  N N  N  II  N N  N  G       !!!           |
|           W WW W  AAAAAA  RRRRR   N  N N  II  N  N N  G  GGG   !            |
|           WW  WW  A    A  R   R   N   NN  II  N   NN  G    G                |
|           W    W  A    A  R    R  N    N  II  N    N   GGGG   !!!           |
|                                                                             |
|     For optimal performance we recommend to set                             |
|       NCORE = 4 - approx SQRT(number of cores).                             |
|     NCORE specifies how many cores store one orbital (NPAR=cpu/NCORE).      |
|     This setting can greatly improve the performance of VASP for DFT.       |
|     The default, NCORE=1 might be grossly inefficient on modern             |
|     multi-core architectures or massively parallel machines. Do your        |
|     own testing!!!!                                                         |
|     Unfortunately you need to use the default for GW and RPA                |
|     calculations (for HF NCORE is supported but not extensively tested      |
|     yet).                                                                   |
|                                                                             |
 -----------------------------------------------------------------------------

 POTCAR:   PAW_PBE Te 08Apr2002                   
   VRHFIN =Te: s2p4                                                                                 
   LEXCH  = PE                                                                                      
   EATOM  =   223.2721 eV,   16.4100 Ry                                                             
                                                                                                    
   TITEL  = PAW_PBE Te 08Apr2002                                                                    
   LULTRA =        F    use ultrasoft PP ?                                                          
   IUNSCR =        1    unscreen: 0-lin 1-nonlin 2-no                                               
   RPACOR =    2.200    partial core radius                                                         
   POMASS =  127.600; ZVAL   =    6.000    mass and valenz                                          
   RCORE  =    2.300    outmost cutoff radius                                                       
   RWIGS  =    2.900; RWIGS  =    1.535    wigner-seitz radius (au A)                               
   ENMAX  =  174.982; ENMIN  =  131.236 eV                                                          
   ICORE  =        3    local potential                                                             
   LCOR   =        T    correct aug charges                                                         
   LPAW   =        T    paw PP                                                                      
   EAUG   =  368.792                                                                                
   DEXC   =    -.169                                                                                
   RMAX   =    3.486    core radius for proj-oper                                                   
   RAUG   =    1.300    factor for augmentation sphere                                              
   RDEP   =    2.397    radius for radial grids                                                     
   QCUT   =   -3.586; QGAM   =    7.172    optimization parameters                                  
                                                                                                    
   Description                                                                                      
     l     E      TYP  RCUT    TYP  RCUT                                                            
     0   .000     23  2.300                                                                         
     0   .000     23  2.300                                                                         
     1   .000     23  2.300                                                                         
     1   .000     23  2.300                                                                         
     2   .000     23  2.300                                                                         
     3  -.100     23  2.300                                                                         
  local pseudopotential read in
  partial core-charges read in
  atomic valenz-charges read in
  non local Contribution for L=           0  read in
    real space projection operators read in
  non local Contribution for L=           0  read in
    real space projection operators read in
  non local Contribution for L=           1  read in
    real space projection operators read in
  non local Contribution for L=           1  read in
    real space projection operators read in
  non local Contribution for L=           2  read in
    real space projection operators read in
    PAW grid and wavefunctions read in
 
   number of l-projection  operators is LMAX  =           5
   number of lm-projection operators is LMMAX =          13
 
 POTCAR:   PAW_PBE Mo 08Apr2002                   
   VRHFIN =Mo: 4p5s4d                                                                               
   LEXCH  = PE                                                                                      
   EATOM  =   217.5180 eV,   15.9871 Ry                                                             
                                                                                                    
   TITEL  = PAW_PBE Mo 08Apr2002                                                                    
   LULTRA =        F    use ultrasoft PP ?                                                          
   IUNSCR =        1    unscreen: 0-lin 1-nonlin 2-no                                               
   RPACOR =    2.200    partial core radius                                                         
   POMASS =   95.940; ZVAL   =    6.000    mass and valenz                                          
   RCORE  =    2.750    outmost cutoff radius                                                       
   RWIGS  =    2.750; RWIGS  =    1.455    wigner-seitz radius (au A)                               
   ENMAX  =  224.584; ENMIN  =  168.438 eV                                                          
   RCLOC  =    2.111    cutoff for local pot                                                        
   LCOR   =        T    correct aug charges                                                         
   LPAW   =        T    paw PP                                                                      
   EAUG   =  345.278                                                                                
   DEXC   =    -.088                                                                                
   RMAX   =    3.077    core radius for proj-oper                                                   
   RAUG   =    1.300    factor for augmentation sphere                                              
   RDEP   =    2.815    radius for radial grids                                                     
   QCUT   =   -4.063; QGAM   =    8.126    optimization parameters                                  
                                                                                                    
   Description                                                                                      
     l     E      TYP  RCUT    TYP  RCUT                                                            
     2   .000     23  2.500                                                                         
     2   .000     23  2.500                                                                         
     0   .000     23  2.600                                                                         
     0  1.000     23  2.600                                                                         
     1   .400     23  2.750                                                                         
     1  2.000     23  2.750                                                                         
     3   .000      7   .000                                                                         
  local pseudopotential read in
  partial core-charges read in
  atomic valenz-charges read in
  non local Contribution for L=           2  read in
    real space projection operators read in
  non local Contribution for L=           2  read in
    real space projection operators read in
  non local Contribution for L=           0  read in
    real space projection operators read in
  non local Contribution for L=           0  read in
    real space projection operators read in
  non local Contribution for L=           1  read in
    real space projection operators read in
  non local Contribution for L=           1  read in
    real space projection operators read in
    PAW grid and wavefunctions read in
 
   number of l-projection  operators is LMAX  =           6
   number of lm-projection operators is LMMAX =          18
 
 -----------------------------------------------------------------------------
|                                                                             |
|               ----> ADVICE to this user running VASP <----                  |
|                                                                             |
|     You have a (more or less) 'large supercell' and for larger cells it     |
|     might be more efficient to use real-space projection operators.         |
|     Therefore, try LREAL= Auto in the INCAR file.                           |
|     Mind: If you want to do very accurate calculations, keep the            |
|     reciprocal projection scheme (i.e. LREAL=.FALSE.).                      |
|                                                                             |
 -----------------------------------------------------------------------------

 PAW_PBE Te 08Apr2002                   :
 energy of atom  1       EATOM= -223.2721
 kinetic energy error for atom=    0.0006 (will be added to EATOM!!)
 PAW_PBE Mo 08Apr2002                   :
 energy of atom  2       EATOM= -217.5180
 kinetic energy error for atom=    0.0009 (will be added to EATOM!!)
 
 
 POSCAR: Te Mo
  positions in cartesian coordinates
  No initial velocities read in
 exchange correlation table for  LEXCH =        8
   RHO(1)=    0.500       N(1)  =     2000
   RHO(2)=  100.500       N(2)  =     4000
 


--------------------------------------------------------------------------------------------------------


 ion  position               nearest neighbor table
   1  0.222  0.111  0.683-  40 2.72  41 2.77  37 2.78   2 3.57   3 3.57   9 3.60   5 3.60  19 3.62
                             7 3.63   4 3.64
   2  0.222  0.445  0.683-  41 2.73  42 2.77  38 2.78   3 3.56   1 3.57   6 3.60   7 3.60  20 3.63
                             8 3.63   5 3.64
   3  0.222  0.778  0.683-  42 2.72  40 2.78  39 2.79   2 3.56   1 3.57   4 3.60   8 3.61   6 3.63
                             9 3.64  21 3.64
   4  0.555  0.111  0.683-  43 2.72  44 2.77  40 2.79   6 3.57   5 3.57   8 3.59   3 3.60  22 3.63
                             7 3.64   1 3.64
   5  0.556  0.445  0.683-  44 2.73  45 2.77  41 2.79   6 3.56   4 3.57   9 3.59   1 3.60  23 3.64
                             8 3.64   2 3.64
   6  0.555  0.778  0.683-  45 2.73  43 2.77  42 2.79   5 3.56   4 3.57   7 3.60   2 3.60  24 3.63
                             3 3.63   9 3.64
   7  0.889  0.111  0.683-  37 2.72  38 2.77  43 2.78   8 3.56   9 3.57   6 3.60   2 3.60  25 3.63
                             1 3.63   4 3.64
   8  0.888  0.444  0.683-  38 2.72  44 2.78  39 2.78   7 3.56   9 3.57   4 3.59   3 3.61  26 3.63
                             2 3.63   5 3.64
   9  0.889  0.778  0.683-  39 2.72  37 2.78  45 2.79   7 3.57   8 3.57   5 3.59   1 3.60  27 3.63
                             3 3.64   6 3.64
  10  0.112  0.000  0.438-  48 2.72  46 2.76  54 2.79  11 3.56  12 3.57  14 3.60  18 3.60  28 3.62
                            16 3.63  13 3.64
  11  0.111  0.333  0.438-  46 2.72  47 2.77  52 2.79  10 3.56  12 3.57  16 3.59  15 3.60  29 3.63
                            14 3.64  17 3.64
  12  0.110  0.666  0.438-  47 2.72  48 2.77  53 2.78  10 3.57  11 3.57  17 3.60  13 3.61  30 3.63
                            18 3.63  15 3.64
  13  0.445  0.001  0.438-  51 2.72  49 2.77  48 2.78  14 3.56  15 3.57  17 3.59  12 3.61  31 3.63
                            10 3.64  16 3.64
  14  0.445  0.334  0.438-  49 2.72  50 2.76  46 2.80  13 3.56  15 3.56  10 3.60  18 3.60  11 3.64
                            17 3.64  32 3.64
  15  0.444  0.667  0.438-  50 2.72  51 2.77  47 2.79  14 3.56  13 3.57  11 3.60  16 3.61  33 3.63
                            18 3.64  12 3.64
  16  0.779  0.001  0.438-  54 2.72  52 2.78  51 2.79  17 3.56  18 3.57  11 3.59  15 3.61  10 3.63
                            34 3.63  13 3.64
  17  0.777  0.333  0.438-  52 2.71  53 2.78  49 2.78  16 3.56  18 3.57  13 3.59  12 3.60  35 3.63
                            14 3.64  11 3.64
  18  0.778  0.667  0.438-  53 2.72  54 2.77  50 2.79  16 3.57  17 3.57  14 3.60  10 3.60  36 3.63
                            12 3.63  15 3.64
  19  0.222  0.111  0.562-  41 2.71  37 2.75  40 2.79  20 3.57  21 3.58  23 3.60  27 3.60   1 3.62
                            22 3.63  25 3.64
  20  0.222  0.444  0.562-  42 2.71  38 2.76  41 2.80  21 3.56  19 3.57  25 3.60  24 3.60   2 3.63
                            26 3.64  23 3.64
  21  0.222  0.777  0.562-  40 2.72  39 2.76  42 2.80  20 3.56  19 3.58  26 3.60  22 3.60  24 3.63
                            27 3.64   3 3.64
  22  0.555  0.111  0.562-  44 2.72  40 2.77  43 2.80  23 3.56  24 3.57  21 3.60  26 3.60   4 3.63
                            19 3.63  25 3.64
  23  0.555  0.444  0.562-  45 2.71  41 2.76  44 2.80  24 3.56  22 3.56  19 3.60  27 3.61  26 3.63
                             5 3.64  20 3.64
  24  0.556  0.777  0.562-  43 2.71  42 2.76  45 2.79  23 3.56  22 3.57  20 3.60  25 3.60   6 3.63
                            21 3.63  27 3.64
  25  0.889  0.111  0.562-  38 2.72  43 2.76  37 2.80  27 3.57  26 3.57  20 3.60  24 3.60   7 3.63
                            19 3.64  22 3.64
  26  0.889  0.445  0.562-  39 2.72  44 2.77  38 2.81  27 3.56  25 3.57  21 3.60  22 3.60   8 3.63
                            23 3.63  20 3.64
  27  0.890  0.778  0.562-  37 2.71  45 2.76  39 2.79  26 3.56  25 3.57  19 3.60  23 3.61   9 3.63
                            21 3.64  24 3.64
  28  0.111  1.000  0.317-  46 2.71  54 2.76  48 2.80  30 3.57  29 3.57  36 3.60  32 3.60  10 3.62
                            31 3.64  34 3.64
  29  0.112  0.334  0.317-  47 2.71  52 2.76  46 2.79  30 3.56  28 3.57  33 3.60  34 3.60  11 3.63
                            32 3.63  35 3.64
  30  0.111  0.666  0.317-  48 2.72  53 2.77  47 2.80  29 3.56  28 3.57  35 3.60  31 3.60  12 3.63
                            36 3.63  33 3.64
  31  0.444  1.000  0.317-  49 2.72  48 2.76  51 2.80  33 3.56  32 3.57  30 3.60  35 3.60  13 3.63
                            28 3.64  34 3.64
  32  0.445  0.334  0.317-  50 2.71  46 2.77  49 2.80  33 3.56  31 3.57  36 3.60  28 3.60  29 3.63
                            14 3.64  35 3.64
  33  0.445  0.667  0.317-  51 2.71  47 2.77  50 2.80  31 3.56  32 3.56  34 3.60  29 3.60  15 3.63
                            30 3.64  36 3.64
  34  0.778  0.000  0.317-  52 2.72  51 2.77  54 2.80  35 3.56  36 3.58  33 3.60  29 3.60  16 3.63
                            31 3.64  28 3.64
  35  0.778  0.334  0.317-  53 2.71  49 2.76  52 2.80  36 3.56  34 3.56  30 3.60  31 3.60  17 3.63
                            32 3.64  29 3.64
  36  0.778  0.667  0.317-  54 2.71  50 2.77  53 2.79  35 3.56  34 3.58  28 3.60  32 3.60  18 3.63
                            30 3.63  33 3.64
  37  0.001  0.000  0.622-  27 2.71   7 2.72  19 2.75   9 2.78   1 2.78  25 2.80
  38  0.000  0.333  0.622-   8 2.72  25 2.72  20 2.76   7 2.77   2 2.78  26 2.81
  39  0.000  0.667  0.622-  26 2.72   9 2.72  21 2.76   8 2.78  27 2.79   3 2.79
  40  0.333  1.000  0.622-   1 2.72  21 2.72  22 2.77   3 2.78   4 2.79  19 2.79
  41  0.333  0.333  0.622-  19 2.71   2 2.73  23 2.76   1 2.77   5 2.79  20 2.80
  42  0.333  0.666  0.622-  20 2.71   3 2.72  24 2.76   2 2.77   6 2.79  21 2.80
  43  0.667  1.000  0.622-  24 2.71   4 2.72  25 2.76   6 2.77   7 2.78  22 2.80
  44  0.667  0.334  0.622-  22 2.72   5 2.73  26 2.77   4 2.77   8 2.78  23 2.80
  45  0.667  0.667  0.622-  23 2.71   6 2.73  27 2.76   5 2.77  24 2.79   9 2.79
  46  0.222  0.222  0.378-  28 2.71  11 2.72  10 2.76  32 2.77  29 2.79  14 2.80
  47  0.222  0.555  0.378-  29 2.71  12 2.72  11 2.77  33 2.77  15 2.79  30 2.80
  48  0.223  0.889  0.378-  10 2.72  30 2.72  31 2.76  12 2.77  13 2.78  28 2.80
  49  0.556  0.222  0.378-  31 2.72  14 2.72  35 2.76  13 2.77  17 2.78  32 2.80
  50  0.555  0.555  0.378-  32 2.71  15 2.72  14 2.76  36 2.77  18 2.79  33 2.80
  51  0.555  0.889  0.378-  33 2.71  13 2.72  15 2.77  34 2.77  16 2.79  31 2.80
  52  0.889  0.223  0.378-  17 2.71  34 2.72  29 2.76  16 2.78  11 2.79  35 2.80
  53  0.888  0.555  0.378-  35 2.71  18 2.72  30 2.77  17 2.78  12 2.78  36 2.79
  54  0.889  0.889  0.378-  36 2.71  16 2.72  28 2.76  18 2.77  10 2.79  34 2.80
 

IMPORTANT INFORMATION: All symmetrisations will be switched off!
NOSYMM: (Re-)initialisation of all symmetry stuff for point group C_1.


----------------------------------------------------------------------------------------

                                     Primitive cell                                     

  volume of cell :    3033.5528

  direct lattice vectors                    reciprocal lattice vectors
    10.911770475  0.000000000  0.000000000     0.091644156  0.053011127 -0.000837981
    -5.356517740  9.260198309  0.000000000     0.000000000  0.107989048  0.002246007
     0.635699748 -0.624406666 30.021753218     0.000000000  0.000000000  0.033309181

  length of vectors
    10.911770475 10.697829454 30.034974016     0.105875083  0.108012402  0.033309181

  position of ions in fractional coordinates (direct lattice)
     0.221945908  0.111444841  0.682624486
     0.221922573  0.444752309  0.682904945
     0.222357238  0.777623564  0.682938733
     0.555352221  0.111101385  0.682605469
     0.555713528  0.445204998  0.683013271
     0.555428481  0.777813417  0.682902612
     0.888677696  0.110819847  0.682629230
     0.888449645  0.443531960  0.682606870
     0.889095083  0.777563992  0.682881909
     0.111573283  0.000492599  0.437907363
     0.111343069  0.333441810  0.438041509
     0.110353879  0.666481975  0.437926206
     0.444878354  0.000775492  0.437930150
     0.444602031  0.333661406  0.438172178
     0.444466090  0.666726344  0.438087687
     0.778515541  0.000611204  0.438155344
     0.777281794  0.332533441  0.438054099
     0.778030888  0.666929779  0.438096391
     0.222374551  0.111413319  0.562011430
     0.221674229  0.444342034  0.561963911
     0.222429941  0.777101972  0.561766366
     0.555270058  0.110964778  0.561852083
     0.555413974  0.444261599  0.561902619
     0.555514303  0.777306961  0.562040449
     0.888769256  0.110964613  0.561868737
     0.888692186  0.444964792  0.561689026
     0.889542350  0.778004114  0.561973564
     0.111093920  0.999958407  0.317217678
     0.111545099  0.334029729  0.317316655
     0.111030569  0.666255885  0.317185537
     0.444133648  0.999677394  0.317156601
     0.444525659  0.333827110  0.317096049
     0.444817194  0.667118957  0.317349256
     0.777759016  0.000454044  0.317140688
     0.777850634  0.333561543  0.317191254
     0.778406313  0.666610830  0.317346304
     0.000558364  0.000214426  0.622106861
     0.000239344  0.333124200  0.622454779
     0.000369194  0.667195363  0.622161012
     0.332668835  0.999828133  0.622264069
     0.333340424  0.333326623  0.622345797
     0.333210147  0.666268237  0.622446169
     0.666693861  0.999806589  0.622250310
     0.666801745  0.333572451  0.622421593
     0.666863577  0.666631856  0.622158476
     0.221567137  0.222011276  0.377589280
     0.221868211  0.555469266  0.377756795
     0.222659219  0.889254285  0.377592168
     0.555703805  0.222420521  0.377601100
     0.554969715  0.554762918  0.377760684
     0.555206572  0.888624509  0.377786854
     0.889094716  0.223051995  0.377627877
     0.888366868  0.555333392  0.377630130
     0.888800226  0.888891964  0.377637444

  ion indices of the primitive-cell ions
   primitive index   ion index
                 1           1
                 2           2
                 3           3
                 4           4
                 5           5
                 6           6
                 7           7
                 8           8
                 9           9
                10          10
                11          11
                12          12
                13          13
                14          14
                15          15
                16          16
                17          17
                18          18
                19          19
                20          20
                21          21
                22          22
                23          23
                24          24
                25          25
                26          26
                27          27
                28          28
                29          29
                30          30
                31          31
                32          32
                33          33
                34          34
                35          35
                36          36
                37          37
                38          38
                39          39
                40          40
                41          41
                42          42
                43          43
                44          44
                45          45
                46          46
                47          47
                48          48
                49          49
                50          50
                51          51
                52          52
                53          53
                54          54

----------------------------------------------------------------------------------------

 
 

Automatic generation of k-mesh.
 generate k-points for:    3    3    1
Space group operators:
 irot       det(A)        alpha          n_x          n_y          n_z        tau_x        tau_y        tau_z
    1     1.000000     0.000000     1.000000     0.000000     0.000000     0.000000     0.000000     0.000000
 
 Subroutine IBZKPT returns following result:
 ===========================================
 
 Found      5 irreducible k-points:
 
 Following reciprocal coordinates:
            Coordinates               Weight
  0.000000  0.000000  0.000000      1.000000
  0.333333 -0.000000  0.000000      2.000000
  0.000000  0.333333  0.000000      2.000000
  0.333333  0.333333 -0.000000      2.000000
 -0.333333  0.333333  0.000000      2.000000
 
 Following cartesian coordinates:
            Coordinates               Weight
  0.000000  0.000000  0.000000      1.000000
  0.030548  0.017670 -0.000279      2.000000
  0.000000  0.035996  0.000749      2.000000
  0.030548  0.053667  0.000469      2.000000
 -0.030548  0.018326  0.001028      2.000000
 


--------------------------------------------------------------------------------------------------------




 Dimension of arrays:
   k-points           NKPTS =      5   k-points in BZ     NKDIM =      5   number of bands    NBANDS=    200
   number of dos      NEDOS =    301   number of ions     NIONS =     54
   non local maximal  LDIM  =      6   non local SUM 2l+1 LMDIM =     18
   total plane-waves  NPLWV = ******
   max r-space proj   IRMAX =      1   max aug-charges    IRDMAX=  36037
   dimension x,y,z NGX =    84 NGY =   84 NGZ =  240
   dimension x,y,z NGXF=   168 NGYF=  168 NGZF=  480
   support grid    NGXF=   168 NGYF=  168 NGZF=  480
   ions per type =              36  18
   NGX,Y,Z   is equivalent  to a cutoff of  12.80, 13.05, 13.28 a.u.
   NGXF,Y,Z  is equivalent  to a cutoff of  25.60, 26.11, 26.57 a.u.

 SYSTEM =  dpgen_md                                
 POSCAR =  Te Mo                                   

 Startparameter for this run:
   NWRITE =      2    write-flag & timer
   PREC   = a         normal or accurate (medium, high low for compatibility)
   ISTART =      0    job   : 0-new  1-cont  2-samecut
   ICHARG =      2    charge: 1-file 2-atom 10-const
   ISPIN  =      1    spin polarized calculation?
   LNONCOLLINEAR =      F non collinear calculations
   LSORBIT =      F    spin-orbit coupling
   INIWAV =      1    electr: 0-lowe 1-rand  2-diag
   LASPH  =      F    aspherical Exc in radial PAW
   METAGGA=      F    non-selfconsistent MetaGGA calc.

 Electronic Relaxation 1
   ENCUT  =  550.0 eV  40.42 Ry    6.36 a.u.  20.87 20.46 57.43*2*pi/ulx,y,z
   ENINI  =  550.0     initial cutoff
   ENAUG  =  368.8 eV  augmentation charge cutoff
   NELM   =    100;   NELMIN=  6; NELMDL= -5     # of ELM steps 
   EDIFF  = 0.1E-05   stopping-criterion for ELM
   LREAL  =      F    real-space projection
   NLSPLINE    = F    spline interpolate recip. space projectors
   LCOMPAT=      F    compatible to vasp.4.4
   GGA_COMPAT  = T    GGA compatible to vasp.4.4-vasp.4.6
   LMAXPAW     = -100 max onsite density
   LMAXMIX     =    2 max onsite mixed and CHGCAR
   VOSKOWN=      0    Vosko Wilk Nusair interpolation
   ROPT   =    0.00000   0.00000
 Ionic relaxation
   EDIFFG = 0.1E-04   stopping-criterion for IOM
   NSW    =     10    number of steps for IOM
   NBLOCK =      1;   KBLOCK =      1    inner block; outer block 
   IBRION =      0    ionic relax: 0-MD 1-quasi-New 2-CG
   NFREE  =      0    steps in history (QN), initial steepest desc. (CG)
   ISIF   =      2    stress and relaxation
   IWAVPR =     11    prediction:  0-non 1-charg 2-wave 3-comb
   ISYM   =      0    0-nonsym 1-usesym 2-fastsym
   LCORR  =      T    Harris-Foulkes like correction to forces

   POTIM  = 2.0000    time-step for ionic-motion
   TEIN   =  100.0    initial temperature
   TEBEG  =  100.0;   TEEND  = 100.0 temperature during run
   SMASS  =   0.04    Nose mass-parameter (am)
   estimated Nose-frequenzy (Omega)   =  0.79E+14 period in steps = 0.40E+02 mass=   0.327E-28a.u.
   SCALEE = 1.0000    scale energy and forces
   NPACO  =    256;   APACO  = 16.0  distance and # of slots for P.C.
   PSTRESS=    0.0 pullay stress

  Mass of Ions in am
   POMASS = 127.60 95.94
  Ionic Valenz
   ZVAL   =   6.00  6.00
  Atomic Wigner-Seitz radii
   RWIGS  =  -1.00 -1.00
  virtual crystal weights 
   VCA    =   1.00  1.00
   NELECT =     324.0000    total number of electrons
   NUPDOWN=      -1.0000    fix difference up-down

 DOS related values:
   EMIN   =  10.00;   EMAX   =-10.00  energy-range for DOS
   EFERMI =   0.00
   ISMEAR =     0;   SIGMA  =   0.10  broadening in eV -4-tet -1-fermi 0-gaus

 Electronic relaxation 2 (details)
   IALGO  =     68    algorithm
   LDIAG  =      T    sub-space diagonalisation (order eigenvalues)
   LSUBROT=      F    optimize rotation matrix (better conditioning)
   TURBO    =      0    0=normal 1=particle mesh
   IRESTART =      0    0=no restart 2=restart with 2 vectors
   NREBOOT  =      0    no. of reboots
   NMIN     =      0    reboot dimension
   EREF     =   0.00    reference energy to select bands
   IMIX   =      4    mixing-type and parameters
     AMIX     =   0.40;   BMIX     =  1.00
     AMIX_MAG =   1.60;   BMIX_MAG =  1.00
     AMIN     =   0.10
     WC   =   100.;   INIMIX=   1;  MIXPRE=   1;  MAXMIX= -45

 Intra band minimization:
   WEIMIN = 0.0010     energy-eigenvalue tresh-hold
   EBREAK =  0.13E-08  absolut break condition
   DEPER  =   0.30     relativ break condition  

   TIME   =   0.40     timestep for ELM

  volume/ion in A,a.u.               =      56.18       379.10
  Fermi-wavevector in a.u.,A,eV,Ry     =   0.776735  1.467816  8.208621  0.603317
  Thomas-Fermi vector in A             =   1.879274
 
 Write flags
   LWAVE        =      F    write WAVECAR
   LDOWNSAMPLE  =      F    k-point downsampling of WAVECAR
   LCHARG       =      F    write CHGCAR
   LVTOT        =      F    write LOCPOT, total local potential
   LVHAR        =      F    write LOCPOT, Hartree potential only
   LELF         =      F    write electronic localiz. function (ELF)
   LORBIT       =      0    0 simple, 1 ext, 2 COOP (PROOUT), +10 PAW based schemes


 Dipole corrections
   LMONO  =      F    monopole corrections only (constant potential shift)
   LDIPOL =      F    correct potential (dipole corrections)
   IDIPOL =      0    1-x, 2-y, 3-z, 4-all directions 
   EPSILON=  1.0000000 bulk dielectric constant

 Exchange correlation treatment:
   GGA     =    --    GGA type
   LEXCH   =     8    internal setting for exchange type
   VOSKOWN=      0    Vosko Wilk Nusair interpolation
   LHFCALC =     F    Hartree Fock is set to
   LHFONE  =     F    Hartree Fock one center treatment
   AEXX    =    0.0000 exact exchange contribution

 Linear response parameters
   LEPSILON=     F    determine dielectric tensor
   LRPA    =     F    only Hartree local field effects (RPA)
   LNABLA  =     F    use nabla operator in PAW spheres
   LVEL    =     F    velocity operator in full k-point grid
   LINTERFAST=   F  fast interpolation
   KINTER  =     0    interpolate to denser k-point grid
   CSHIFT  =0.1000    complex shift for real part using Kramers Kronig
   OMEGAMAX=  -1.0    maximum frequency
   DEG_THRESHOLD= 0.2000000E-02 threshold for treating states as degnerate
   RTIME   =   -0.100 relaxation time in fs
  (WPLASMAI=    0.000 imaginary part of plasma frequency in eV, 0.658/RTIME)
   DFIELD  = 0.0000000 0.0000000 0.0000000 field for delta impulse in time
 
 Orbital magnetization related:
   ORBITALMAG=     F  switch on orbital magnetization
   LCHIMAG   =     F  perturbation theory with respect to B field
   DQ        =  0.001000  dq finite difference perturbation B field
   LLRAUG    =     F  two centre corrections for induced B field



--------------------------------------------------------------------------------------------------------


 molecular dynamics for ions
   using nose mass (canonical ensemble)
 charge density and potential will be updated during run
 non-spin polarized calculation
 RMM-DIIS sequential band-by-band and
  variant of blocked Davidson during initial phase
 perform sub-space diagonalisation
    before iterative eigenvector-optimisation
 modified Broyden-mixing scheme, WC =      100.0
 initial mixing is a Kerker type mixing with AMIX =  0.4000 and BMIX =      1.0000
 Hartree-type preconditioning will be used
 using additional bands           38
 reciprocal scheme for non local part
 use partial core corrections
 calculate Harris-corrections to forces 
   (improved forces if not selfconsistent)
 use gradient corrections 
 use of overlap-Matrix (Vanderbilt PP)
 Gauss-broadening in eV      SIGMA  =   0.10


--------------------------------------------------------------------------------------------------------


  energy-cutoff  :      550.00
  volume of cell :     3033.55
      direct lattice vectors                 reciprocal lattice vectors
    10.911770475  0.000000000  0.000000000     0.091644156  0.053011127 -0.000837981
    -5.356517740  9.260198309  0.000000000     0.000000000  0.107989048  0.002246007
     0.635699748 -0.624406666 30.021753218     0.000000000  0.000000000  0.033309181

  length of vectors
    10.911770475 10.697829454 30.034974016     0.105875083  0.108012402  0.033309181


 
 k-points in units of 2pi/SCALE and weight: read from INCAR                         
   0.00000000  0.00000000  0.00000000       0.111
   0.03054805  0.01767038 -0.00027933       0.222
   0.00000000  0.03599635  0.00074867       0.222
   0.03054805  0.05366673  0.00046934       0.222
  -0.03054805  0.01832597  0.00102800       0.222
 
 k-points in reciprocal lattice and weights: read from INCAR                         
   0.00000000  0.00000000  0.00000000       0.111
   0.33333333 -0.00000000  0.00000000       0.222
   0.00000000  0.33333333  0.00000000       0.222
   0.33333333  0.33333333 -0.00000000       0.222
  -0.33333333  0.33333333  0.00000000       0.222
 
 position of ions in fractional coordinates (direct lattice) 
   0.22194591  0.11144484  0.68262449
   0.22192257  0.44475231  0.68290495
   0.22235724  0.77762356  0.68293873
   0.55535222  0.11110138  0.68260547
   0.55571353  0.44520500  0.68301327
   0.55542848  0.77781342  0.68290261
   0.88867770  0.11081985  0.68262923
   0.88844965  0.44353196  0.68260687
   0.88909508  0.77756399  0.68288191
   0.11157328  0.00049260  0.43790736
   0.11134307  0.33344181  0.43804151
   0.11035388  0.66648198  0.43792621
   0.44487835  0.00077549  0.43793015
   0.44460203  0.33366141  0.43817218
   0.44446609  0.66672634  0.43808769
   0.77851554  0.00061120  0.43815534
   0.77728179  0.33253344  0.43805410
   0.77803089  0.66692978  0.43809639
   0.22237455  0.11141332  0.56201143
   0.22167423  0.44434203  0.56196391
   0.22242994  0.77710197  0.56176637
   0.55527006  0.11096478  0.56185208
   0.55541397  0.44426160  0.56190262
   0.55551430  0.77730696  0.56204045
   0.88876926  0.11096461  0.56186874
   0.88869219  0.44496479  0.56168903
   0.88954235  0.77800411  0.56197356
   0.11109392  0.99995841  0.31721768
   0.11154510  0.33402973  0.31731666
   0.11103057  0.66625588  0.31718554
   0.44413365  0.99967739  0.31715660
   0.44452566  0.33382711  0.31709605
   0.44481719  0.66711896  0.31734926
   0.77775902  0.00045404  0.31714069
   0.77785063  0.33356154  0.31719125
   0.77840631  0.66661083  0.31734630
   0.00055836  0.00021443  0.62210686
   0.00023934  0.33312420  0.62245478
   0.00036919  0.66719536  0.62216101
   0.33266883  0.99982813  0.62226407
   0.33334042  0.33332662  0.62234580
   0.33321015  0.66626824  0.62244617
   0.66669386  0.99980659  0.62225031
   0.66680175  0.33357245  0.62242159
   0.66686358  0.66663186  0.62215848
   0.22156714  0.22201128  0.37758928
   0.22186821  0.55546927  0.37775679
   0.22265922  0.88925428  0.37759217
   0.55570381  0.22242052  0.37760110
   0.55496972  0.55476292  0.37776068
   0.55520657  0.88862451  0.37778685
   0.88909472  0.22305200  0.37762788
   0.88836687  0.55533339  0.37763013
   0.88880023  0.88889196  0.37763744
 
 position of ions in cartesian coordinates  (Angst):
   2.25881075  0.60576605 20.49358386
   0.47336705  3.69208418 20.50200373
  -1.30489929  6.77451692 20.50301812
   5.89869156  0.60259745 20.49301294
   4.11326137  3.69620853 20.50525585
   2.32845775  6.77629755 20.50193370
   9.53738580  0.59997552 20.49372627
   7.75270481  3.68096963 20.49305499
   5.97067401  6.77400075 20.50131215
   1.49320104 -0.26887071 13.14674678
  -0.29267408  2.81422125 13.15077409
  -2.08747675  5.89831122 13.14731250
   5.12864864 -0.26626529 13.14743090
   3.34267801  2.81617316 13.15469701
   1.55707270  5.90047329 13.15216043
   8.77024422 -0.26792724 13.15419162
   6.97877014  2.80580171 13.15115205
   5.19577105  5.90235170 13.15242174
   2.18698317  0.68078575 16.87256845
   0.39597264  3.76380134 16.87114184
  -1.37834129  6.84534770 16.86521120
   5.82176384  0.67673167 16.86778457
   4.03805602  3.76309476 16.86930175
   2.25527502  6.84707481 16.87343967
   9.46084202  0.67671974 16.86828458
   7.67080893  3.76973984 16.86288933
   5.89633557  6.85357234 16.87143165
  -3.94240839  9.06174032  9.52343086
  -0.37036353  2.89504690  9.52640232
  -2.15563661  5.97160885  9.52246591
  -0.30688889  9.05917621  9.52159721
   3.26398900  2.89330835  9.51977934
   1.48204744  5.97949884  9.52738105
   8.68590203 -0.19382022  9.52111948
   6.90263766  2.89078970  9.52263756
   5.12481526  5.97479534  9.52729243
   0.40041734 -0.38646205 18.67673866
  -1.38607967  2.69613124 18.68718376
  -3.17430764  5.78987989 18.67836437
  -1.33001805  8.87006095 18.68145832
   2.24748929  2.69807377 18.68391194
   0.46272389  5.78111646 18.68692528
   2.31489302  8.86987005 18.68104526
   5.88487409  2.70030286 18.68618746
   4.10134292  5.78466328 18.67828823
   1.46851581  1.82009918 11.33589218
  -0.31426609  4.90788170 11.34092127
  -2.09366481  7.99889996 11.33597889
   5.11235383  1.82388149 11.33624704
   3.32424711  4.90133835 11.34103803
   1.53851274  7.99294655 11.34182371
   8.74687345  1.82971234 11.33705092
   6.95906158  4.90670256 11.33711857
   5.17708252  7.99551652 11.33733816
 


--------------------------------------------------------------------------------------------------------


 k-point   1 :   0.0000 0.0000 0.0000  plane waves:   88877
 k-point   2 :   0.3333-0.0000 0.0000  plane waves:   88875
 k-point   3 :   0.0000 0.3333 0.0000  plane waves:   88802
 k-point   4 :   0.3333 0.3333-0.0000  plane waves:   88839
 k-point   5 :  -0.3333 0.3333 0.0000  plane waves:   88857

 maximum and minimum number of plane-waves per node :     88877    88802

 maximum number of plane-waves:     88877
 maximum index in each direction: 
   IXMAX=   21   IYMAX=   20   IZMAX=   57
   IXMIN=  -21   IYMIN=  -20   IZMIN=  -57


 serial   3D FFT for wavefunctions
 parallel 3D FFT for charge:
    minimum data exchange during FFTs selected (reduces bandwidth)


 total amount of memory used by VASP MPI-rank0   381929. kBytes
=======================================================================

   base      :      30000. kBytes
   nonl-proj :     204779. kBytes
   fftplans  :      19943. kBytes
   grid      :      90496. kBytes
   one-center:        839. kBytes
   wavefun   :      35872. kBytes
 
     INWAV:  cpu time    0.0000: real time    0.0000
 Broyden mixing: mesh for mixing (old mesh)
   NGX = 41   NGY = 41   NGZ =115
  (NGX  =168   NGY  =168   NGZ  =480)
  gives a total of 193315 points

 initial charge density was supplied:
 charge density of overlapping atoms calculated
 number of electron     324.0000000 magnetization 
 keeping initial charge density in first step


--------------------------------------------------------------------------------------------------------


 Maximum index for augmentation-charges         2228 (set IRDMAX)


--------------------------------------------------------------------------------------------------------


 First call to EWALD:  gamma=   0.122
 Maximum number of real-space cells 4x 4x 2
 Maximum number of reciprocal cells 2x 2x 5

    FEWALD:  cpu time    0.0022: real time    0.0023


--------------------------------------- Iteration      1(   1)  ---------------------------------------


    POTLOK:  cpu time    0.3446: real time    0.3453
    SETDIJ:  cpu time    0.0117: real time    0.0119
     EDDAV:  cpu time   51.1866: real time   51.2837
       DOS:  cpu time    0.0009: real time    0.0011
    --------------------------------------------
      LOOP:  cpu time   51.5439: real time   51.6420

 eigenvalue-minimisations  :  2000
 total energy-change (2. order) : 0.2068512E+04  (-0.1137277E+05)
 number of electron     324.0000000 magnetization 
 augmentation part      324.0000000 magnetization 

 Free energy of the ion-electron system (eV)
  ---------------------------------------------------
  alpha Z        PSCENC =       236.57612809
  Ewald energy   TEWEN  =     57011.13772774
  -Hartree energ DENC   =    -68653.13506706
  -exchange      EXHF   =         0.00000000
  -V(xc)+E(xc)   XCENC  =     -2106.18650522
  PAW double counting   =      7476.04436201    -4809.59211051
  entropy T*S    EENTRO =        -0.14359866
  eigenvalues    EBANDS =       960.72874517
  atomic energy  EATOM  =     11953.08265402
  Solvation  Ediel_sol  =         0.00000000
  ---------------------------------------------------
  free energy    TOTEN  =      2068.51233558 eV

  energy without entropy =     2068.65593424  energy(sigma->0) =     2068.58413491


--------------------------------------------------------------------------------------------------------




--------------------------------------- Iteration      1(   2)  ---------------------------------------


     EDDAV:  cpu time   72.4327: real time   72.5941
       DOS:  cpu time    0.0006: real time    0.0006
    --------------------------------------------
      LOOP:  cpu time   72.4332: real time   72.5946

 eigenvalue-minimisations  :  3080
 total energy-change (2. order) :-0.2166782E+04  (-0.2094387E+04)
 number of electron     324.0000000 magnetization 
 augmentation part      324.0000000 magnetization 

 Free energy of the ion-electron system (eV)
  ---------------------------------------------------
  alpha Z        PSCENC =       236.57612809
  Ewald energy   TEWEN  =     57011.13772774
  -Hartree energ DENC   =    -68653.13506706
  -exchange      EXHF   =         0.00000000
  -V(xc)+E(xc)   XCENC  =     -2106.18650522
  PAW double counting   =      7476.04436201    -4809.59211051
  entropy T*S    EENTRO =        -0.00082558
  eigenvalues    EBANDS =     -1206.19578912
  atomic energy  EATOM  =     11953.08265402
  Solvation  Ediel_sol  =         0.00000000
  ---------------------------------------------------
  free energy    TOTEN  =       -98.26942563 eV

  energy without entropy =      -98.26860005  energy(sigma->0) =      -98.26901284


--------------------------------------------------------------------------------------------------------




--------------------------------------- Iteration      1(   3)  ---------------------------------------


     EDDAV:  cpu time   61.4374: real time   61.5514
       DOS:  cpu time    0.0004: real time    0.0004
    --------------------------------------------
      LOOP:  cpu time   61.4377: real time   61.5518

 eigenvalue-minimisations  :  2520
 total energy-change (2. order) :-0.2268992E+03  (-0.2238468E+03)
 number of electron     324.0000000 magnetization 
 augmentation part      324.0000000 magnetization 

 Free energy of the ion-electron system (eV)
  ---------------------------------------------------
  alpha Z        PSCENC =       236.57612809
  Ewald energy   TEWEN  =     57011.13772774
  -Hartree energ DENC   =    -68653.13506706
  -exchange      EXHF   =         0.00000000
  -V(xc)+E(xc)   XCENC  =     -2106.18650522
  PAW double counting   =      7476.04436201    -4809.59211051
  entropy T*S    EENTRO =        -0.00000000
  eigenvalues    EBANDS =     -1433.09585800
  atomic energy  EATOM  =     11953.08265402
  Solvation  Ediel_sol  =         0.00000000
  ---------------------------------------------------
  free energy    TOTEN  =      -325.16866893 eV

  energy without entropy =     -325.16866893  energy(sigma->0) =     -325.16866893


--------------------------------------------------------------------------------------------------------




--------------------------------------- Iteration      1(   4)  ---------------------------------------


     EDDAV:  cpu time   74.3640: real time   74.5226
       DOS:  cpu time    0.0004: real time    0.0004
    --------------------------------------------
      LOOP:  cpu time   74.3643: real time   74.5229

 eigenvalue-minimisations  :  3160
 total energy-change (2. order) :-0.1137244E+02  (-0.1130443E+02)
 number of electron     324.0000000 magnetization 
 augmentation part      324.0000000 magnetization 

 Free energy of the ion-electron system (eV)
  ---------------------------------------------------
  alpha Z        PSCENC =       236.57612809
  Ewald energy   TEWEN  =     57011.13772774
  -Hartree energ DENC   =    -68653.13506706
  -exchange      EXHF   =         0.00000000
  -V(xc)+E(xc)   XCENC  =     -2106.18650522
  PAW double counting   =      7476.04436201    -4809.59211051
  entropy T*S    EENTRO =        -0.00000000
  eigenvalues    EBANDS =     -1444.46829871
  atomic energy  EATOM  =     11953.08265402
  Solvation  Ediel_sol  =         0.00000000
  ---------------------------------------------------
  free energy    TOTEN  =      -336.54110964 eV

  energy without entropy =     -336.54110964  energy(sigma->0) =     -336.54110964


--------------------------------------------------------------------------------------------------------




--------------------------------------- Iteration      1(   5)  ---------------------------------------


     EDDAV:  cpu time   70.4862: real time   70.6297
       DOS:  cpu time    0.0004: real time    0.0004
    CHARGE:  cpu time    1.1823: real time    1.1879
    MIXING:  cpu time    0.0078: real time    0.0080
    --------------------------------------------
      LOOP:  cpu time   71.6767: real time   71.8259

 eigenvalue-minimisations  :  2960
 total energy-change (2. order) :-0.2977766E+00  (-0.2971679E+00)
 number of electron     324.0000004 magnetization 
 augmentation part      -26.2526926 magnetization 

 Broyden mixing:
  rms(total) = 0.20200E+01    rms(broyden)= 0.20200E+01
  rms(prec ) = 0.21449E+01
  weight for this iteration     100.00

 Free energy of the ion-electron system (eV)
  ---------------------------------------------------
  alpha Z        PSCENC =       236.57612809
  Ewald energy   TEWEN  =     57011.13772774
  -Hartree energ DENC   =    -68653.13506706
  -exchange      EXHF   =         0.00000000
  -V(xc)+E(xc)   XCENC  =     -2106.18650522
  PAW double counting   =      7476.04436201    -4809.59211051
  entropy T*S    EENTRO =        -0.00000000
  eigenvalues    EBANDS =     -1444.76607531
  atomic energy  EATOM  =     11953.08265402
  Solvation  Ediel_sol  =         0.00000000
  ---------------------------------------------------
  free energy    TOTEN  =      -336.83888624 eV

  energy without entropy =     -336.83888624  energy(sigma->0) =     -336.83888624


--------------------------------------------------------------------------------------------------------




--------------------------------------- Iteration      1(   6)  ---------------------------------------


    POTLOK:  cpu time    0.3083: real time    0.3086
    SETDIJ:  cpu time    0.0113: real time    0.0113
    EDDIAG:  cpu time    2.6039: real time    2.6149
  RMM-DIIS:  cpu time   44.4405: real time   44.5202
    ORTHCH:  cpu time    0.2203: real time    0.2243
       DOS:  cpu time    0.0007: real time    0.0006
    CHARGE:  cpu time    1.1823: real time    1.1834
    MIXING:  cpu time    0.0075: real time    0.0076
    --------------------------------------------
      LOOP:  cpu time   48.7747: real time   48.8709

 eigenvalue-minimisations  :  2177
 total energy-change (2. order) : 0.8780419E+01  (-0.8005107E+01)
 number of electron     324.0000005 magnetization 
 augmentation part      -19.1803741 magnetization 

 Broyden mixing:
  rms(total) = 0.78044E+00    rms(broyden)= 0.78044E+00
  rms(prec ) = 0.92064E+00
  weight for this iteration     100.00

 eigenvalues of (default mixing * dielectric matrix)
  average eigenvalue GAMMA=   0.9227
  0.9227

 Free energy of the ion-electron system (eV)
  ---------------------------------------------------
  alpha Z        PSCENC =       236.57612809
  Ewald energy   TEWEN  =     57011.13772774
  -Hartree energ DENC   =    -68607.62218372
  -exchange      EXHF   =         0.00000000
  -V(xc)+E(xc)   XCENC  =     -2099.42577858
  PAW double counting   =      7599.59399455    -4943.82291898
  entropy T*S    EENTRO =        -0.00000236
  eigenvalues    EBANDS =     -1477.57808781
  atomic energy  EATOM  =     11953.08265402
  Solvation  Ediel_sol  =         0.00000000
  ---------------------------------------------------
  free energy    TOTEN  =      -328.05846703 eV

  energy without entropy =     -328.05846467  energy(sigma->0) =     -328.05846585


--------------------------------------------------------------------------------------------------------




--------------------------------------- Iteration      1(   7)  ---------------------------------------


    POTLOK:  cpu time    0.3073: real time    0.3076
    SETDIJ:  cpu time    0.0114: real time    0.0114
    EDDIAG:  cpu time    2.5965: real time    2.6033
  RMM-DIIS:  cpu time   41.3024: real time   41.4008
    ORTHCH:  cpu time    0.2346: real time    0.2349
       DOS:  cpu time    0.0005: real time    0.0005
    CHARGE:  cpu time    1.1775: real time    1.1785
    MIXING:  cpu time    0.0093: real time    0.0093
    --------------------------------------------
      LOOP:  cpu time   45.6395: real time   45.7462

 eigenvalue-minimisations  :  2016
 total energy-change (2. order) : 0.4169380E+01  (-0.1308225E+01)
 number of electron     324.0000005 magnetization 
 augmentation part      -21.6181547 magnetization 

 Broyden mixing:
  rms(total) = 0.49120E+00    rms(broyden)= 0.49120E+00
  rms(prec ) = 0.52359E+00
  weight for this iteration     100.00

 eigenvalues of (default mixing * dielectric matrix)
  average eigenvalue GAMMA=   1.4808
  0.7051  2.2564

 Free energy of the ion-electron system (eV)
  ---------------------------------------------------
  alpha Z        PSCENC =       236.57612809
  Ewald energy   TEWEN  =     57011.13772774
  -Hartree energ DENC   =    -68695.64308869
  -exchange      EXHF   =         0.00000000
  -V(xc)+E(xc)   XCENC  =     -2098.89362649
  PAW double counting   =      7852.39498993    -5200.32931696
  entropy T*S    EENTRO =        -0.00000000
  eigenvalues    EBANDS =     -1382.21455432
  atomic energy  EATOM  =     11953.08265402
  Solvation  Ediel_sol  =         0.00000000
  ---------------------------------------------------
  free energy    TOTEN  =      -323.88908668 eV

  energy without entropy =     -323.88908668  energy(sigma->0) =     -323.88908668


--------------------------------------------------------------------------------------------------------




--------------------------------------- Iteration      1(   8)  ---------------------------------------


    POTLOK:  cpu time    0.3027: real time    0.3050
    SETDIJ:  cpu time    0.0113: real time    0.0113
    EDDIAG:  cpu time    2.6106: real time    2.6176
  RMM-DIIS:  cpu time   41.8520: real time   41.9414
    ORTHCH:  cpu time    0.2304: real time    0.2307
       DOS:  cpu time    0.0005: real time    0.0005
    CHARGE:  cpu time    1.1856: real time    1.1868
    MIXING:  cpu time    0.0097: real time    0.0097
    --------------------------------------------
      LOOP:  cpu time   46.2027: real time   46.3030

 eigenvalue-minimisations  :  2054
 total energy-change (2. order) : 0.3388719E+00  (-0.1106110E+01)
 number of electron     324.0000005 magnetization 
 augmentation part      -21.9434317 magnetization 

 Broyden mixing:
  rms(total) = 0.20613E+00    rms(broyden)= 0.20613E+00
  rms(prec ) = 0.24169E+00
  weight for this iteration     100.00

 eigenvalues of (default mixing * dielectric matrix)
  average eigenvalue GAMMA=   1.2330
  2.1507  0.7742  0.7742

 Free energy of the ion-electron system (eV)
  ---------------------------------------------------
  alpha Z        PSCENC =       236.57612809
  Ewald energy   TEWEN  =     57011.13772774
  -Hartree energ DENC   =    -68765.32358762
  -exchange      EXHF   =         0.00000000
  -V(xc)+E(xc)   XCENC  =     -2094.91648561
  PAW double counting   =      8164.46906008    -5518.76955460
  entropy T*S    EENTRO =        -0.00000000
  eigenvalues    EBANDS =     -1309.80615690
  atomic energy  EATOM  =     11953.08265402
  Solvation  Ediel_sol  =         0.00000000
  ---------------------------------------------------
  free energy    TOTEN  =      -323.55021480 eV

  energy without entropy =     -323.55021480  energy(sigma->0) =     -323.55021480


--------------------------------------------------------------------------------------------------------




--------------------------------------- Iteration      1(   9)  ---------------------------------------


    POTLOK:  cpu time    0.3045: real time    0.3048
    SETDIJ:  cpu time    0.0149: real time    0.0149
    EDDIAG:  cpu time    2.6005: real time    2.6074
  RMM-DIIS:  cpu time   44.0941: real time   44.2056
    ORTHCH:  cpu time    0.2347: real time    0.2361
       DOS:  cpu time    0.0005: real time    0.0004
    CHARGE:  cpu time    1.1787: real time    1.1797
    MIXING:  cpu time    0.0076: real time    0.0076
    --------------------------------------------
      LOOP:  cpu time   48.4353: real time   48.5565

 eigenvalue-minimisations  :  2144
 total energy-change (2. order) : 0.1399726E+00  (-0.1564166E+00)
 number of electron     324.0000005 magnetization 
 augmentation part      -21.3442296 magnetization 

 Broyden mixing:
  rms(total) = 0.10173E+00    rms(broyden)= 0.10173E+00
  rms(prec ) = 0.11398E+00
  weight for this iteration     100.00

 eigenvalues of (default mixing * dielectric matrix)
  average eigenvalue GAMMA=   1.0716
  2.1081  0.8348  0.8348  0.5085

 Free energy of the ion-electron system (eV)
  ---------------------------------------------------
  alpha Z        PSCENC =       236.57612809
  Ewald energy   TEWEN  =     57011.13772774
  -Hartree energ DENC   =    -68754.41655571
  -exchange      EXHF   =         0.00000000
  -V(xc)+E(xc)   XCENC  =     -2094.60387544
  PAW double counting   =      8142.15112484    -5496.40005580
  entropy T*S    EENTRO =        -0.00000000
  eigenvalues    EBANDS =     -1320.93738989
  atomic energy  EATOM  =     11953.08265402
  Solvation  Ediel_sol  =         0.00000000
  ---------------------------------------------------
  free energy    TOTEN  =      -323.41024215 eV

  energy without entropy =     -323.41024215  energy(sigma->0) =     -323.41024215


--------------------------------------------------------------------------------------------------------




--------------------------------------- Iteration      1(  10)  ---------------------------------------


    POTLOK:  cpu time    0.3036: real time    0.3039
    SETDIJ:  cpu time    0.0114: real time    0.0114
    EDDIAG:  cpu time    2.6223: real time    2.6330
  RMM-DIIS:  cpu time   51.7951: real time   51.9010
    ORTHCH:  cpu time    0.2323: real time    0.2325
       DOS:  cpu time    0.0005: real time    0.0005
    CHARGE:  cpu time    1.1771: real time    1.1822
    MIXING:  cpu time    0.0131: real time    0.0131
    --------------------------------------------
      LOOP:  cpu time   56.1554: real time   56.2778

 eigenvalue-minimisations  :  2493
 total energy-change (2. order) :-0.1706174E-01  (-0.5613568E-01)
 number of electron     324.0000005 magnetization 
 augmentation part      -21.0873466 magnetization 

 Broyden mixing:
  rms(total) = 0.74095E-01    rms(broyden)= 0.74095E-01
  rms(prec ) = 0.81031E-01
  weight for this iteration     100.00

 eigenvalues of (default mixing * dielectric matrix)
  average eigenvalue GAMMA=   1.2382
  2.4248  1.4471  0.9681  0.9681  0.3830

 Free energy of the ion-electron system (eV)
  ---------------------------------------------------
  alpha Z        PSCENC =       236.57612809
  Ewald energy   TEWEN  =     57011.13772774
  -Hartree energ DENC   =    -68754.56740036
  -exchange      EXHF   =         0.00000000
  -V(xc)+E(xc)   XCENC  =     -2094.42358533
  PAW double counting   =      8147.86538702    -5502.12984014
  entropy T*S    EENTRO =        -0.00000000
  eigenvalues    EBANDS =     -1320.96837495
  atomic energy  EATOM  =     11953.08265402
  Solvation  Ediel_sol  =         0.00000000
  ---------------------------------------------------
  free energy    TOTEN  =      -323.42730390 eV

  energy without entropy =     -323.42730390  energy(sigma->0) =     -323.42730390


--------------------------------------------------------------------------------------------------------




--------------------------------------- Iteration      1(  11)  ---------------------------------------


    POTLOK:  cpu time    0.3024: real time    0.3027
    SETDIJ:  cpu time    0.0114: real time    0.0114
    EDDIAG:  cpu time    2.5943: real time    2.5973
  RMM-DIIS:  cpu time   43.2417: real time   43.3150
    ORTHCH:  cpu time    0.2239: real time    0.2241
       DOS:  cpu time    0.0005: real time    0.0005
    CHARGE:  cpu time    1.1828: real time    1.1839
    MIXING:  cpu time    0.0080: real time    0.0080
    --------------------------------------------
      LOOP:  cpu time   47.5649: real time   47.6429

 eigenvalue-minimisations  :  2117
 total energy-change (2. order) : 0.6160256E-02  (-0.1749844E-01)
 number of electron     324.0000005 magnetization 
 augmentation part      -21.3515408 magnetization 

 Broyden mixing:
  rms(total) = 0.42024E-01    rms(broyden)= 0.42024E-01
  rms(prec ) = 0.48174E-01
  weight for this iteration     100.00

 eigenvalues of (default mixing * dielectric matrix)
  average eigenvalue GAMMA=   1.1991
  2.5353  1.6511  1.1509  0.7406  0.7406  0.3762

 Free energy of the ion-electron system (eV)
  ---------------------------------------------------
  alpha Z        PSCENC =       236.57612809
  Ewald energy   TEWEN  =     57011.13772774
  -Hartree energ DENC   =    -68773.17970295
  -exchange      EXHF   =         0.00000000
  -V(xc)+E(xc)   XCENC  =     -2094.05772340
  PAW double counting   =      8200.30346829    -5554.84421568
  entropy T*S    EENTRO =        -0.00000000
  eigenvalues    EBANDS =     -1302.43947975
  atomic energy  EATOM  =     11953.08265402
  Solvation  Ediel_sol  =         0.00000000
  ---------------------------------------------------
  free energy    TOTEN  =      -323.42114364 eV

  energy without entropy =     -323.42114364  energy(sigma->0) =     -323.42114364


--------------------------------------------------------------------------------------------------------




--------------------------------------- Iteration      1(  12)  ---------------------------------------


    POTLOK:  cpu time    0.3150: real time    0.3153
    SETDIJ:  cpu time    0.0119: real time    0.0120
    EDDIAG:  cpu time    2.5998: real time    2.6107
  RMM-DIIS:  cpu time   49.9823: real time   50.0906
    ORTHCH:  cpu time    0.2219: real time    0.2222
       DOS:  cpu time    0.0005: real time    0.0005
    CHARGE:  cpu time    1.1821: real time    1.1831
    MIXING:  cpu time    0.0077: real time    0.0078
    --------------------------------------------
      LOOP:  cpu time   54.3212: real time   54.4421

 eigenvalue-minimisations  :  2424
 total energy-change (2. order) : 0.9150220E-03  (-0.5482832E-02)
 number of electron     324.0000005 magnetization 
 augmentation part      -21.3105323 magnetization 

 Broyden mixing:
  rms(total) = 0.31814E-01    rms(broyden)= 0.31814E-01
  rms(prec ) = 0.36535E-01
  weight for this iteration     100.00

 eigenvalues of (default mixing * dielectric matrix)
  average eigenvalue GAMMA=   1.1374
  2.4961  1.7071  1.3639  0.8337  0.8337  0.3838  0.3437

 Free energy of the ion-electron system (eV)
  ---------------------------------------------------
  alpha Z        PSCENC =       236.57612809
  Ewald energy   TEWEN  =     57011.13772774
  -Hartree energ DENC   =    -68776.47192871
  -exchange      EXHF   =         0.00000000
  -V(xc)+E(xc)   XCENC  =     -2093.93561473
  PAW double counting   =      8202.40948830    -5556.96453826
  entropy T*S    EENTRO =        -0.00000000
  eigenvalues    EBANDS =     -1299.25414507
  atomic energy  EATOM  =     11953.08265402
  Solvation  Ediel_sol  =         0.00000000
  ---------------------------------------------------
  free energy    TOTEN  =      -323.42022862 eV

  energy without entropy =     -323.42022862  energy(sigma->0) =     -323.42022862


--------------------------------------------------------------------------------------------------------




--------------------------------------- Iteration      1(  13)  ---------------------------------------


    POTLOK:  cpu time    0.3056: real time    0.3059
    SETDIJ:  cpu time    0.0115: real time    0.0115
    EDDIAG:  cpu time    2.6372: real time    2.6439
  RMM-DIIS:  cpu time   51.6123: real time   51.7170
    ORTHCH:  cpu time    0.2307: real time    0.2309
       DOS:  cpu time    0.0005: real time    0.0005
    CHARGE:  cpu time    1.1945: real time    1.1956
    MIXING:  cpu time    0.0080: real time    0.0080
    --------------------------------------------
      LOOP:  cpu time   56.0003: real time   56.1133

 eigenvalue-minimisations  :  2485
 total energy-change (2. order) : 0.1518147E-02  (-0.2824017E-02)
 number of electron     324.0000005 magnetization 
 augmentation part      -21.2132401 magnetization 

 Broyden mixing:
  rms(total) = 0.94437E-02    rms(broyden)= 0.94436E-02
  rms(prec ) = 0.13297E-01
  weight for this iteration     100.00

 eigenvalues of (default mixing * dielectric matrix)
  average eigenvalue GAMMA=   1.3066
  2.5559  2.5559  1.7980  1.1707  0.8227  0.8227  0.3843  0.3423

 Free energy of the ion-electron system (eV)
  ---------------------------------------------------
  alpha Z        PSCENC =       236.57612809
  Ewald energy   TEWEN  =     57011.13772774
  -Hartree energ DENC   =    -68778.05285054
  -exchange      EXHF   =         0.00000000
  -V(xc)+E(xc)   XCENC  =     -2093.86910428
  PAW double counting   =      8198.01955576    -5552.55734614
  entropy T*S    EENTRO =        -0.00000000
  eigenvalues    EBANDS =     -1297.75547513
  atomic energy  EATOM  =     11953.08265402
  Solvation  Ediel_sol  =         0.00000000
  ---------------------------------------------------
  free energy    TOTEN  =      -323.41871047 eV

  energy without entropy =     -323.41871047  energy(sigma->0) =     -323.41871047


--------------------------------------------------------------------------------------------------------




--------------------------------------- Iteration      1(  14)  ---------------------------------------


    POTLOK:  cpu time    0.3085: real time    0.3088
    SETDIJ:  cpu time    0.0116: real time    0.0117
    EDDIAG:  cpu time    2.5924: real time    2.5951
  RMM-DIIS:  cpu time   44.7424: real time   44.8366
    ORTHCH:  cpu time    0.2291: real time    0.2293
       DOS:  cpu time    0.0005: real time    0.0005
    CHARGE:  cpu time    1.1930: real time    1.1940
    MIXING:  cpu time    0.0083: real time    0.0084
    --------------------------------------------
      LOOP:  cpu time   49.0859: real time   49.1844

 eigenvalue-minimisations  :  2176
 total energy-change (2. order) :-0.2512962E-03  (-0.9880647E-03)
 number of electron     324.0000005 magnetization 
 augmentation part      -21.2329945 magnetization 

 Broyden mixing:
  rms(total) = 0.68249E-02    rms(broyden)= 0.68249E-02
  rms(prec ) = 0.86744E-02
  weight for this iteration     100.00

 eigenvalues of (default mixing * dielectric matrix)
  average eigenvalue GAMMA=   1.3053
  3.3484  2.5519  1.6271  1.2988  0.8240  0.8240  0.5453  0.3866  0.3411

 Free energy of the ion-electron system (eV)
  ---------------------------------------------------
  alpha Z        PSCENC =       236.57612809
  Ewald energy   TEWEN  =     57011.13772774
  -Hartree energ DENC   =    -68789.24700806
  -exchange      EXHF   =         0.00000000
  -V(xc)+E(xc)   XCENC  =     -2093.79471507
  PAW double counting   =      8194.17289819    -5548.64196364
  entropy T*S    EENTRO =        -0.00000000
  eigenvalues    EBANDS =     -1286.70468305
  atomic energy  EATOM  =     11953.08265402
  Solvation  Ediel_sol  =         0.00000000
  ---------------------------------------------------
  free energy    TOTEN  =      -323.41896177 eV

  energy without entropy =     -323.41896177  energy(sigma->0) =     -323.41896177


--------------------------------------------------------------------------------------------------------




--------------------------------------- Iteration      1(  15)  ---------------------------------------


    POTLOK:  cpu time    0.3142: real time    0.3146
    SETDIJ:  cpu time    0.0114: real time    0.0114
    EDDIAG:  cpu time    2.6188: real time    2.6215
  RMM-DIIS:  cpu time   53.7047: real time   53.8126
    ORTHCH:  cpu time    0.2348: real time    0.2351
       DOS:  cpu time    0.0005: real time    0.0005
    CHARGE:  cpu time    1.1813: real time    1.1864
    MIXING:  cpu time    0.0084: real time    0.0084
    --------------------------------------------
      LOOP:  cpu time   58.0740: real time   58.1905

 eigenvalue-minimisations  :  2569
 total energy-change (2. order) :-0.5144561E-03  (-0.3388737E-03)
 number of electron     324.0000005 magnetization 
 augmentation part      -21.2326460 magnetization 

 Broyden mixing:
  rms(total) = 0.48143E-02    rms(broyden)= 0.48143E-02
  rms(prec ) = 0.61020E-02
  weight for this iteration     100.00

 eigenvalues of (default mixing * dielectric matrix)
  average eigenvalue GAMMA=   1.2653
  3.5389  2.4497  1.5156  1.5156  0.8992  0.8155  0.8155  0.3402  0.3883  0.3745

 Free energy of the ion-electron system (eV)
  ---------------------------------------------------
  alpha Z        PSCENC =       236.57612809
  Ewald energy   TEWEN  =     57011.13772774
  -Hartree energ DENC   =    -68792.54702969
  -exchange      EXHF   =         0.00000000
  -V(xc)+E(xc)   XCENC  =     -2093.76595749
  PAW double counting   =      8193.94254241    -5548.39423843
  entropy T*S    EENTRO =        -0.00000000
  eigenvalues    EBANDS =     -1283.45130288
  atomic energy  EATOM  =     11953.08265402
  Solvation  Ediel_sol  =         0.00000000
  ---------------------------------------------------
  free energy    TOTEN  =      -323.41947622 eV

  energy without entropy =     -323.41947622  energy(sigma->0) =     -323.41947622


--------------------------------------------------------------------------------------------------------




--------------------------------------- Iteration      1(  16)  ---------------------------------------


    POTLOK:  cpu time    0.3048: real time    0.3051
    SETDIJ:  cpu time    0.0120: real time    0.0120
    EDDIAG:  cpu time    2.6116: real time    2.6143
  RMM-DIIS:  cpu time   46.5376: real time   46.6376
    ORTHCH:  cpu time    0.2319: real time    0.2321
       DOS:  cpu time    0.0005: real time    0.0005
    CHARGE:  cpu time    1.1622: real time    1.1703
    MIXING:  cpu time    0.0084: real time    0.0084
    --------------------------------------------
      LOOP:  cpu time   50.8691: real time   50.9804

 eigenvalue-minimisations  :  2252
 total energy-change (2. order) :-0.5042499E-03  (-0.9109725E-04)
 number of electron     324.0000005 magnetization 
 augmentation part      -21.2269969 magnetization 

 Broyden mixing:
  rms(total) = 0.27926E-02    rms(broyden)= 0.27926E-02
  rms(prec ) = 0.38273E-02
  weight for this iteration     100.00

 eigenvalues of (default mixing * dielectric matrix)
  average eigenvalue GAMMA=   1.3536
  3.8787  2.3843  1.9153  1.9153  1.1769  0.8135  0.8135  0.8976  0.3874  0.3404
  0.3669

 Free energy of the ion-electron system (eV)
  ---------------------------------------------------
  alpha Z        PSCENC =       236.57612809
  Ewald energy   TEWEN  =     57011.13772774
  -Hartree energ DENC   =    -68793.21592225
  -exchange      EXHF   =         0.00000000
  -V(xc)+E(xc)   XCENC  =     -2093.75834194
  PAW double counting   =      8194.41426104    -5548.86500393
  entropy T*S    EENTRO =        -0.00000000
  eigenvalues    EBANDS =     -1282.79148326
  atomic energy  EATOM  =     11953.08265402
  Solvation  Ediel_sol  =         0.00000000
  ---------------------------------------------------
  free energy    TOTEN  =      -323.41998047 eV

  energy without entropy =     -323.41998047  energy(sigma->0) =     -323.41998047


--------------------------------------------------------------------------------------------------------




--------------------------------------- Iteration      1(  17)  ---------------------------------------


    POTLOK:  cpu time    0.3127: real time    0.3130
    SETDIJ:  cpu time    0.0114: real time    0.0114
    EDDIAG:  cpu time    2.6135: real time    2.6164
  RMM-DIIS:  cpu time   46.7553: real time   46.8543
    ORTHCH:  cpu time    0.2345: real time    0.2348
       DOS:  cpu time    0.0005: real time    0.0005
    CHARGE:  cpu time    1.1623: real time    1.1674
    MIXING:  cpu time    0.0084: real time    0.0084
    --------------------------------------------
      LOOP:  cpu time   51.0986: real time   51.2061

 eigenvalue-minimisations  :  2242
 total energy-change (2. order) :-0.1736892E-02  (-0.4024642E-04)
 number of electron     324.0000005 magnetization 
 augmentation part      -21.2279568 magnetization 

 Broyden mixing:
  rms(total) = 0.21004E-02    rms(broyden)= 0.21004E-02
  rms(prec ) = 0.26980E-02
  weight for this iteration     100.00

 eigenvalues of (default mixing * dielectric matrix)
  average eigenvalue GAMMA=   1.3819
  4.4810  2.6839  2.3497  1.4276  1.4276  0.9412  0.8156  0.8156  0.5491  0.3859
  0.3404  0.3650

 Free energy of the ion-electron system (eV)
  ---------------------------------------------------
  alpha Z        PSCENC =       236.57612809
  Ewald energy   TEWEN  =     57011.13772774
  -Hartree energ DENC   =    -68796.07004235
  -exchange      EXHF   =         0.00000000
  -V(xc)+E(xc)   XCENC  =     -2093.75109215
  PAW double counting   =      8193.85261954    -5548.30156991
  entropy T*S    EENTRO =        -0.00000000
  eigenvalues    EBANDS =     -1279.94814235
  atomic energy  EATOM  =     11953.08265402
  Solvation  Ediel_sol  =         0.00000000
  ---------------------------------------------------
  free energy    TOTEN  =      -323.42171737 eV

  energy without entropy =     -323.42171737  energy(sigma->0) =     -323.42171737


--------------------------------------------------------------------------------------------------------




--------------------------------------- Iteration      1(  18)  ---------------------------------------


    POTLOK:  cpu time    0.3106: real time    0.3109
    SETDIJ:  cpu time    0.0115: real time    0.0115
    EDDIAG:  cpu time    2.5960: real time    2.5987
  RMM-DIIS:  cpu time   49.2993: real time   49.4034
    ORTHCH:  cpu time    0.2269: real time    0.2271
       DOS:  cpu time    0.0005: real time    0.0005
    CHARGE:  cpu time    1.1626: real time    1.1638
    MIXING:  cpu time    0.0087: real time    0.0087
    --------------------------------------------
      LOOP:  cpu time   53.6161: real time   53.7246

 eigenvalue-minimisations  :  2406
 total energy-change (2. order) :-0.7347711E-03  (-0.2122934E-04)
 number of electron     324.0000005 magnetization 
 augmentation part      -21.2291512 magnetization 

 Broyden mixing:
  rms(total) = 0.16857E-02    rms(broyden)= 0.16857E-02
  rms(prec ) = 0.20545E-02
  weight for this iteration     100.00

 eigenvalues of (default mixing * dielectric matrix)
  average eigenvalue GAMMA=   1.3736
  4.9135  2.8390  2.3164  1.4874  1.4874  0.9535  0.8241  0.8241  0.7608  0.3869
  0.3718  0.3397  0.3520

 Free energy of the ion-electron system (eV)
  ---------------------------------------------------
  alpha Z        PSCENC =       236.57612809
  Ewald energy   TEWEN  =     57011.13772774
  -Hartree energ DENC   =    -68797.58184823
  -exchange      EXHF   =         0.00000000
  -V(xc)+E(xc)   XCENC  =     -2093.74683283
  PAW double counting   =      8193.44252477    -5547.89078715
  entropy T*S    EENTRO =        -0.00000000
  eigenvalues    EBANDS =     -1278.44201855
  atomic energy  EATOM  =     11953.08265402
  Solvation  Ediel_sol  =         0.00000000
  ---------------------------------------------------
  free energy    TOTEN  =      -323.42245214 eV

  energy without entropy =     -323.42245214  energy(sigma->0) =     -323.42245214


--------------------------------------------------------------------------------------------------------




--------------------------------------- Iteration      1(  19)  ---------------------------------------


    POTLOK:  cpu time    0.3140: real time    0.3157
    SETDIJ:  cpu time    0.0116: real time    0.0116
    EDDIAG:  cpu time    2.6323: real time    2.6431
  RMM-DIIS:  cpu time   49.0923: real time   49.2002
    ORTHCH:  cpu time    0.2317: real time    0.2319
       DOS:  cpu time    0.0005: real time    0.0005
    CHARGE:  cpu time    1.1550: real time    1.1604
    MIXING:  cpu time    0.0121: real time    0.0121
    --------------------------------------------
      LOOP:  cpu time   53.4495: real time   53.5755

 eigenvalue-minimisations  :  2339
 total energy-change (2. order) :-0.4055759E-03  (-0.8311377E-05)
 number of electron     324.0000005 magnetization 
 augmentation part      -21.2284992 magnetization 

 Broyden mixing:
  rms(total) = 0.98607E-03    rms(broyden)= 0.98606E-03
  rms(prec ) = 0.12436E-02
  weight for this iteration     100.00

 eigenvalues of (default mixing * dielectric matrix)
  average eigenvalue GAMMA=   1.5009
  5.9676  3.1463  2.3779  1.7785  1.7785  1.1091  1.1091  0.8137  0.8137  0.6841
  0.3862  0.3689  0.3417  0.3379

 Free energy of the ion-electron system (eV)
  ---------------------------------------------------
  alpha Z        PSCENC =       236.57612809
  Ewald energy   TEWEN  =     57011.13772774
  -Hartree energ DENC   =    -68798.31166496
  -exchange      EXHF   =         0.00000000
  -V(xc)+E(xc)   XCENC  =     -2093.74481704
  PAW double counting   =      8193.35192601    -5547.80071087
  entropy T*S    EENTRO =        -0.00000000
  eigenvalues    EBANDS =     -1277.71410071
  atomic energy  EATOM  =     11953.08265402
  Solvation  Ediel_sol  =         0.00000000
  ---------------------------------------------------
  free energy    TOTEN  =      -323.42285771 eV

  energy without entropy =     -323.42285771  energy(sigma->0) =     -323.42285771


--------------------------------------------------------------------------------------------------------




--------------------------------------- Iteration      1(  20)  ---------------------------------------


    POTLOK:  cpu time    0.3146: real time    0.3148
    SETDIJ:  cpu time    0.0129: real time    0.0129
    EDDIAG:  cpu time    2.6107: real time    2.6134
  RMM-DIIS:  cpu time   47.6103: real time   47.7173
    ORTHCH:  cpu time    0.2431: real time    0.2433
       DOS:  cpu time    0.0005: real time    0.0005
    CHARGE:  cpu time    1.1577: real time    1.1588
    MIXING:  cpu time    0.0090: real time    0.0090
    --------------------------------------------
      LOOP:  cpu time   51.9587: real time   52.0700

 eigenvalue-minimisations  :  2263
 total energy-change (2. order) :-0.6077785E-03  (-0.7279742E-05)
 number of electron     324.0000005 magnetization 
 augmentation part      -21.2254138 magnetization 

 Broyden mixing:
  rms(total) = 0.61576E-03    rms(broyden)= 0.61576E-03
  rms(prec ) = 0.73252E-03
  weight for this iteration     100.00

 eigenvalues of (default mixing * dielectric matrix)
  average eigenvalue GAMMA=   1.5004
  6.5512  3.2680  2.4413  1.7409  1.7409  1.1534  1.1534  0.8159  0.8159  0.7683
  0.6215  0.3865  0.3687  0.3415  0.3388

 Free energy of the ion-electron system (eV)
  ---------------------------------------------------
  alpha Z        PSCENC =       236.57612809
  Ewald energy   TEWEN  =     57011.13772774
  -Hartree energ DENC   =    -68799.04402225
  -exchange      EXHF   =         0.00000000
  -V(xc)+E(xc)   XCENC  =     -2093.74439406
  PAW double counting   =      8193.81076569    -5548.26302710
  entropy T*S    EENTRO =        -0.00000000
  eigenvalues    EBANDS =     -1276.97929763
  atomic energy  EATOM  =     11953.08265402
  Solvation  Ediel_sol  =         0.00000000
  ---------------------------------------------------
  free energy    TOTEN  =      -323.42346549 eV

  energy without entropy =     -323.42346549  energy(sigma->0) =     -323.42346549


--------------------------------------------------------------------------------------------------------




--------------------------------------- Iteration      1(  21)  ---------------------------------------


    POTLOK:  cpu time    0.3087: real time    0.3090
    SETDIJ:  cpu time    0.0115: real time    0.0115
    EDDIAG:  cpu time    2.6146: real time    2.6214
  RMM-DIIS:  cpu time   47.4270: real time   47.5304
    ORTHCH:  cpu time    0.2328: real time    0.2330
       DOS:  cpu time    0.0004: real time    0.0004
    CHARGE:  cpu time    1.1571: real time    1.1625
    MIXING:  cpu time    0.0091: real time    0.0091
    --------------------------------------------
      LOOP:  cpu time   51.7612: real time   51.8773

 eigenvalue-minimisations  :  2220
 total energy-change (2. order) :-0.1023552E-03  (-0.1997297E-05)
 number of electron     324.0000005 magnetization 
 augmentation part      -21.2255429 magnetization 

 Broyden mixing:
  rms(total) = 0.47847E-03    rms(broyden)= 0.47847E-03
  rms(prec ) = 0.57438E-03
  weight for this iteration     100.00

 eigenvalues of (default mixing * dielectric matrix)
  average eigenvalue GAMMA=   1.4792
  6.8807  3.3122  2.4669  1.7550  1.4268  1.4268  1.3087  0.9581  0.8109  0.8109
  0.6795  0.3878  0.3946  0.3686  0.3415  0.3379

 Free energy of the ion-electron system (eV)
  ---------------------------------------------------
  alpha Z        PSCENC =       236.57612809
  Ewald energy   TEWEN  =     57011.13772774
  -Hartree energ DENC   =    -68799.21674554
  -exchange      EXHF   =         0.00000000
  -V(xc)+E(xc)   XCENC  =     -2093.74497848
  PAW double counting   =      8193.91079630    -5548.36319830
  entropy T*S    EENTRO =        -0.00000000
  eigenvalues    EBANDS =     -1276.80595169
  atomic energy  EATOM  =     11953.08265402
  Solvation  Ediel_sol  =         0.00000000
  ---------------------------------------------------
  free energy    TOTEN  =      -323.42356785 eV

  energy without entropy =     -323.42356785  energy(sigma->0) =     -323.42356785


--------------------------------------------------------------------------------------------------------




--------------------------------------- Iteration      1(  22)  ---------------------------------------


    POTLOK:  cpu time    0.3094: real time    0.3096
    SETDIJ:  cpu time    0.0114: real time    0.0114
    EDDIAG:  cpu time    2.5937: real time    2.5961
  RMM-DIIS:  cpu time   31.9530: real time   32.0450
    ORTHCH:  cpu time    0.2253: real time    0.2255
       DOS:  cpu time    0.0005: real time    0.0005
    CHARGE:  cpu time    1.1663: real time    1.1674
    MIXING:  cpu time    0.0091: real time    0.0091
    --------------------------------------------
      LOOP:  cpu time   36.2686: real time   36.3646

 eigenvalue-minimisations  :  1451
 total energy-change (2. order) :-0.7206498E-04  (-0.4727189E-06)
 number of electron     324.0000005 magnetization 
 augmentation part      -21.2261921 magnetization 

 Broyden mixing:
  rms(total) = 0.24430E-03    rms(broyden)= 0.24430E-03
  rms(prec ) = 0.31614E-03
  weight for this iteration     100.00

 eigenvalues of (default mixing * dielectric matrix)
  average eigenvalue GAMMA=   1.5676
  7.3416  3.4713  2.7550  2.4311  1.6626  1.6626  1.1380  1.1380  0.9587  0.8128
  0.8128  0.6589  0.3865  0.3412  0.3376  0.3676  0.3736

[...]
  0.000   0.000   0.001  -0.000   0.000   0.011   0.000  -0.000
 -0.000   0.000  -0.000   0.001  -0.000   0.000   0.011  -0.000
 -0.000   0.000   0.000  -0.000   0.001  -0.000  -0.000   0.011
 -0.001  -0.000  -0.000  -0.000   0.000   0.000   0.000   0.000
 -0.000   0.000  -0.013  -0.001  -0.000  -0.000   0.000   0.000
 -0.009  -0.000   0.000  -0.018   0.000  -0.000  -0.000  -0.000
 -0.000  -0.000  -0.000  -0.000  -0.014   0.000   0.000  -0.000
 -0.001   0.000   0.001  -0.000  -0.000   0.000   0.000   0.000
 total augmentation occupancy for first ion, spin component:           1
  1.936   0.187  -0.004   0.200   0.002   0.004   0.030   0.002  -0.000   0.001   0.004  -0.000   0.001
  0.187   1.235   0.002  -0.917  -0.009   0.002   0.355   0.002  -0.002   0.000  -0.016   0.001  -0.001
 -0.004   0.002   1.317   0.009   0.007  -0.456  -0.002   0.002  -0.002  -0.111  -0.002   0.001  -0.044
  0.200  -0.917   0.009   1.489   0.003  -0.003  -0.512  -0.001   0.001  -0.002  -0.034  -0.000  -0.003
  0.002  -0.009   0.007   0.003   1.340   0.002  -0.001  -0.468  -0.044   0.001   0.001  -0.115  -0.002
  0.004   0.002  -0.456  -0.003   0.002   0.269   0.000  -0.004   0.001   0.036  -0.000  -0.000   0.007
  0.030   0.355  -0.002  -0.512  -0.001   0.000   0.267   0.002  -0.000   0.001   0.042   0.001   0.000
  0.002   0.002   0.002  -0.001  -0.468  -0.004   0.002   0.269   0.009  -0.000   0.000   0.038   0.000
 -0.000  -0.002  -0.002   0.001  -0.044   0.001  -0.000   0.009   0.018   0.000   0.000  -0.000   0.000
  0.001   0.000  -0.111  -0.002   0.001   0.036   0.001  -0.000   0.000   0.017   0.000  -0.000  -0.001
  0.004  -0.016  -0.002  -0.034   0.001  -0.000   0.042   0.000   0.000   0.000   0.018  -0.000  -0.000
 -0.000   0.001   0.001  -0.000  -0.115  -0.000   0.001   0.038  -0.000  -0.000  -0.000   0.017   0.000
  0.001  -0.001  -0.044  -0.003  -0.002   0.007   0.000   0.000   0.000  -0.001  -0.000   0.000   0.018


------------------------ aborting loop because EDIFF is reached ----------------------------------------


    CHARGE:  cpu time    1.1705: real time    1.1716
    FORLOC:  cpu time    0.0816: real time    0.0816
    FORNL :  cpu time   14.2849: real time   14.3053
    STRESS:  cpu time   75.3484: real time   75.4818
    FORCOR:  cpu time    0.3500: real time    0.3503
    FORHAR:  cpu time    0.1429: real time    0.1430
    MIXING:  cpu time    0.0076: real time    0.0076
    OFIELD:  cpu time    0.0000: real time    0.0000

  Number of pair interactions contributing to vdW energy:  258903
  Edisp (eV):  -18.51243
    FORVDW:  cpu time    0.0287: real time    0.0287

  FORCE on cell =-STRESS in cart. coord.  units (eV):
  Direction    XX          YY          ZZ          XY          YZ          ZX
  --------------------------------------------------------------------------------------
  Alpha Z   236.57613   236.57613   236.57613
  Ewald   65864.48768 65925.05919-74880.90946    -4.23053    48.03647   -27.45700
  Hartree 68275.05303 68294.15062-67872.67350    -0.44194     8.38591    -0.62758
  E(xc)   -1344.68786 -1345.53685 -1362.93915     0.27880    -1.28095     1.54490
  Local  ************************137708.49114     4.37944   -55.01917    28.65488
  n-local  3532.44660  3529.63116  3703.21508     0.93305     8.69608   -11.40333
  augment  -761.85409  -760.19849  -798.91210    -0.45733    -1.20968     2.03112
  Kinetic  3247.72479  3263.72378  3250.77530    -3.86726     7.48685    -3.65375
  Fock        0.00000     0.00000     0.00000     0.00000     0.00000     0.00000
  vdW       -12.05566   -12.01217    -7.71170     0.08130     0.11881     0.98154
  -------------------------------------------------------------------------------------
  Total     -43.39822   -27.79905   -24.08825    -3.32447    15.21431    -9.92923
  in kB     -22.92086   -14.68212   -12.72226    -1.75583     8.03547    -5.24414
  external pressure =      -16.78 kB  Pullay stress =        0.00 kB

  kinetic pressure (ideal gas correction) =      0.21 kB
  total pressure  =    -16.56 kB
  Total+kin.   -22.701     -14.495     -12.497      -1.776       8.026      -5.212

 VOLUME and BASIS-vectors are now :
 -----------------------------------------------------------------------------
  energy-cutoff  :      550.00
  volume of cell :     3033.55
      direct lattice vectors                 reciprocal lattice vectors
    10.911770475  0.000000000  0.000000000     0.091644156  0.053011127 -0.000837981
    -5.356517740  9.260198309  0.000000000     0.000000000  0.107989048  0.002246007
     0.635699748 -0.624406666 30.021753218     0.000000000  0.000000000  0.033309181

  length of vectors
    10.911770475 10.697829454 30.034974016     0.105875083  0.108012402  0.033309181


 FORCES acting on ions
    electron-ion (+dipol)            ewald-force                    non-local-force                 convergence-correction
 -----------------------------------------------------------------------------------------------
   -.108E+01 -.580E+00 -.790E+03   0.106E+01 0.503E+00 0.795E+03   0.780E-02 0.314E+00 -.579E+01   0.163E-02 -.681E-03 0.321E-03
   0.345E+01 0.258E+00 -.792E+03   -.338E+01 -.339E+00 0.797E+03   -.519E+00 0.279E+00 -.563E+01   -.114E-02 0.133E-02 -.546E-03
   0.228E+01 0.155E+01 -.790E+03   -.227E+01 -.159E+01 0.795E+03   -.333E+00 0.522E-01 -.575E+01   0.645E-03 0.276E-04 -.209E-02
   0.910E+00 0.826E+00 -.787E+03   -.874E+00 -.885E+00 0.793E+03   -.103E+00 0.701E-01 -.603E+01   0.861E-04 -.794E-03 -.170E-02
   0.145E+01 0.236E+01 -.790E+03   -.141E+01 -.237E+01 0.795E+03   -.421E+00 0.678E-01 -.587E+01   0.706E-03 -.143E-03 0.233E-03
   0.109E+01 -.133E+01 -.792E+03   -.101E+01 0.131E+01 0.797E+03   -.300E+00 0.207E+00 -.579E+01   -.149E-02 0.584E-03 -.110E-02
   0.693E+00 -.479E+00 -.789E+03   -.659E+00 0.444E+00 0.794E+03   -.150E-01 0.314E+00 -.566E+01   -.183E-02 0.639E-03 -.379E-03
   -.119E+01 -.130E+01 -.789E+03   0.129E+01 0.128E+01 0.795E+03   -.966E-01 0.381E+00 -.596E+01   0.445E-03 0.124E-03 -.132E-02
   0.119E+01 0.254E+00 -.788E+03   -.103E+01 -.281E+00 0.794E+03   -.409E+00 0.286E+00 -.593E+01   0.820E-03 -.113E-02 0.721E-04
   0.170E+01 -.732E+00 0.100E+03   -.162E+01 0.640E+00 -.949E+02   -.501E+00 0.346E+00 -.588E+01   -.225E-04 0.933E-03 0.461E-04
   0.335E+01 0.363E+00 0.983E+02   -.330E+01 -.475E+00 -.928E+02   -.414E+00 0.295E+00 -.593E+01   0.851E-03 0.896E-03 -.938E-03
   0.158E+01 0.170E+01 0.986E+02   -.158E+01 -.184E+01 -.931E+02   -.210E+00 0.232E+00 -.604E+01   0.911E-03 -.768E-03 0.710E-04
   0.287E+01 -.153E+00 0.101E+03   -.284E+01 0.104E+00 -.950E+02   -.398E+00 0.156E+00 -.578E+01   -.256E-03 -.704E-04 0.107E-02
   0.151E+01 0.143E+01 0.100E+03   -.148E+01 -.152E+01 -.947E+02   -.364E+00 0.244E+00 -.600E+01   -.985E-03 -.666E-04 -.319E-03
   0.148E+01 0.201E+01 0.955E+02   -.144E+01 -.214E+01 -.902E+02   -.260E+00 0.124E+00 -.593E+01   -.912E-03 -.104E-02 0.267E-03
   0.116E+01 -.209E+01 0.970E+02   -.107E+01 0.202E+01 -.915E+02   -.415E+00 0.235E+00 -.582E+01   0.217E-03 0.147E-03 0.101E-02
   -.103E+01 0.602E+00 0.999E+02   0.107E+01 -.680E+00 -.944E+02   -.212E-02 0.831E-01 -.606E+01   0.103E-03 0.480E-03 0.453E-03
   0.238E+00 0.177E+01 0.979E+02   -.220E+00 -.182E+01 -.925E+02   -.259E+00 0.896E-01 -.628E+01   0.377E-04 -.303E-03 0.567E-03
   -.130E+01 0.151E+01 -.979E+02   0.122E+01 -.142E+01 0.924E+02   0.282E+00 -.414E+00 0.576E+01   0.151E-02 -.639E-03 -.110E-02
   0.508E+00 0.191E+01 -.965E+02   -.523E+00 -.183E+01 0.911E+02   0.210E+00 -.340E+00 0.576E+01   -.118E-02 0.141E-02 -.173E-03
   -.537E+00 0.317E-01 -.955E+02   0.501E+00 0.920E-01 0.900E+02   0.296E+00 -.223E+00 0.579E+01   0.744E-03 -.155E-03 0.121E-02
   -.632E+00 -.270E-01 -.984E+02   0.627E+00 0.130E+00 0.929E+02   0.302E+00 -.249E+00 0.618E+01   0.147E-03 -.957E-03 0.106E-02
   -.112E+01 0.245E+01 -.990E+02   0.111E+01 -.226E+01 0.935E+02   0.158E+00 -.470E+00 0.595E+01   0.531E-03 -.166E-04 -.849E-03
   -.135E+01 0.715E+00 -.995E+02   0.140E+01 -.615E+00 0.940E+02   0.215E+00 -.422E+00 0.576E+01   -.153E-02 0.541E-03 0.552E-03
   -.345E+00 0.542E+00 -.989E+02   0.355E+00 -.406E+00 0.933E+02   0.327E+00 -.304E+00 0.592E+01   -.163E-02 0.641E-03 -.140E-03
   -.150E+01 0.233E+01 -.997E+02   0.147E+01 -.229E+01 0.941E+02   0.478E+00 -.216E+00 0.582E+01   0.685E-03 0.173E-03 0.692E-03
   0.128E+01 0.129E+01 -.995E+02   -.130E+01 -.112E+01 0.940E+02   0.149E+00 -.404E+00 0.613E+01   0.698E-03 -.102E-02 -.824E-03
   -.265E+01 0.149E+01 0.788E+03   0.270E+01 -.147E+01 -.794E+03   0.147E+00 -.116E+00 0.603E+01   -.109E-03 0.113E-02 0.512E-03
   0.161E+01 0.224E+01 0.791E+03   -.165E+01 -.222E+01 -.796E+03   0.146E+00 -.244E+00 0.584E+01   0.937E-03 0.745E-03 0.125E-02
   0.100E+01 -.125E+01 0.787E+03   -.110E+01 0.135E+01 -.792E+03   0.232E+00 -.819E-01 0.562E+01   0.953E-03 -.914E-03 0.821E-03
   0.154E+01 0.262E+01 0.788E+03   -.162E+01 -.257E+01 -.793E+03   0.156E+00 -.386E+00 0.586E+01   -.219E-03 0.114E-03 -.101E-03
   -.306E+01 0.430E+01 0.791E+03   0.301E+01 -.427E+01 -.796E+03   0.353E+00 -.366E+00 0.607E+01   -.115E-02 -.596E-04 0.698E-03
   -.791E+00 -.296E+01 0.792E+03   0.755E+00 0.308E+01 -.797E+03   0.311E+00 -.567E-02 0.580E+01   -.792E-03 -.137E-02 0.469E-03
   0.198E+01 0.221E+01 0.790E+03   -.203E+01 -.219E+01 -.795E+03   0.345E-01 -.387E+00 0.557E+01   0.408E-03 0.278E-03 -.441E-03
   0.413E+00 -.187E-02 0.789E+03   -.482E+00 0.588E-01 -.795E+03   0.322E+00 -.109E+00 0.585E+01   0.211E-03 0.250E-03 0.103E-03
   -.990E+00 0.255E+01 0.789E+03   0.953E+00 -.243E+01 -.794E+03   0.107E+00 -.373E+00 0.585E+01   -.103E-03 -.326E-03 -.552E-04
   0.859E+00 0.558E+00 -.446E+03   -.842E+00 -.588E+00 0.446E+03   -.376E+00 -.795E-01 -.251E+00   -.222E-04 -.276E-03 -.673E-03
   0.123E+01 -.248E+01 -.446E+03   -.121E+01 0.250E+01 0.447E+03   -.207E+00 0.179E+00 -.981E-01   -.105E-02 0.106E-02 -.696E-03
   -.106E+00 -.291E-01 -.441E+03   0.118E+00 0.754E-01 0.441E+03   -.729E-02 -.249E+00 0.284E+00   0.150E-02 -.475E-03 -.492E-03
   -.238E+01 -.424E+01 -.441E+03   0.236E+01 0.425E+01 0.441E+03   0.662E-01 0.407E+00 0.848E-01   0.142E-02 -.122E-02 -.500E-03
   -.472E+01 -.584E+00 -.443E+03   0.476E+01 0.642E+00 0.443E+03   0.499E+00 -.116E-01 0.690E-01   -.299E-04 0.502E-03 -.533E-03
   0.229E+00 -.209E+01 -.445E+03   -.205E+00 0.209E+01 0.445E+03   -.160E-01 0.159E+00 -.141E-01   -.962E-03 0.103E-02 -.692E-03
   0.201E+01 -.324E+01 -.444E+03   -.210E+01 0.329E+01 0.444E+03   -.265E+00 0.122E+00 -.291E-01   -.147E-02 -.747E-05 -.609E-03
   0.541E+00 0.793E+00 -.443E+03   -.569E+00 -.820E+00 0.443E+03   -.282E+00 -.136E+00 -.778E-01   0.933E-03 -.772E-03 -.488E-03
   -.380E+01 -.355E+01 -.447E+03   0.384E+01 0.360E+01 0.447E+03   0.383E+00 0.369E+00 -.260E+00   -.468E-03 0.203E-03 -.673E-03
   -.363E+01 0.123E+01 0.444E+03   0.373E+01 -.123E+01 -.444E+03   0.162E+00 -.273E+00 -.883E-01   -.322E-03 0.835E-03 0.523E-03
   0.594E+00 -.105E+01 0.443E+03   -.522E+00 0.101E+01 -.443E+03   -.177E+00 -.898E-01 0.376E+00   0.302E-03 -.895E-03 0.644E-03
   -.788E+00 -.278E+01 0.442E+03   0.845E+00 0.278E+01 -.442E+03   0.237E+00 -.122E+00 -.233E+00   -.185E-04 -.217E-03 0.566E-03
   0.205E+01 -.340E+01 0.447E+03   -.209E+01 0.347E+01 -.447E+03   -.188E+00 0.170E+00 -.732E-02   -.654E-03 0.310E-03 0.611E-03
   -.424E+01 -.542E+00 0.443E+03   0.426E+01 0.592E+00 -.443E+03   0.244E+00 -.264E-01 0.106E+00   -.100E-02 -.731E-03 0.557E-03
   0.111E+00 -.973E+00 0.443E+03   -.356E-02 0.889E+00 -.443E+03   -.687E-01 0.387E-01 -.251E+00   -.316E-03 -.739E-03 0.638E-03
   0.190E-01 -.439E+01 0.444E+03   -.244E-02 0.448E+01 -.444E+03   -.653E-01 0.207E+00 0.302E+00   0.963E-03 0.814E-03 0.527E-03
   0.122E+01 -.112E+01 0.445E+03   -.128E+01 0.114E+01 -.445E+03   -.237E+00 -.106E+00 0.340E+00   0.524E-03 -.200E-03 0.703E-03
   -.421E+01 0.133E+00 0.445E+03   0.427E+01 -.171E+00 -.445E+03   0.368E+00 0.101E+00 0.254E+00   0.352E-03 0.400E-03 0.607E-03
 -----------------------------------------------------------------------------------------------
   0.710E+00 0.678E+00 0.836E-01   -.533E-14 -.630E-14 0.301E-11   -.716E+00 -.676E+00 -.860E-01   -.393E-03 -.372E-03 -.580E-03
 
 
 POSITION                                       TOTAL-FORCE (eV/Angst)
 -----------------------------------------------------------------------------------
      2.24838      0.59523     20.49494        -0.011296      0.224645     -0.297661
      0.49505      3.68794     20.50263        -0.435319      0.187939     -0.206624
     -1.30088      6.79188     20.49401        -0.306952      0.010336     -0.330683
      5.87542      0.62044     20.50028        -0.064474      0.006865     -0.521353
      4.12129      3.68774     20.50850        -0.366065      0.050327     -0.371076
      2.31183      6.77539     20.51171        -0.212948      0.173369     -0.309638
      9.51494      0.57648     20.47933         0.019608      0.265732     -0.082136
      7.74219      3.68123     20.50547         0.012253      0.347168     -0.450437
      5.97084      6.75333     20.49697        -0.246887      0.242862     -0.393661
      1.47567     -0.27209     13.13712        -0.422895      0.226277     -0.276264
     -0.29318      2.82372     13.14762        -0.361576      0.157570     -0.407411
     -2.07826      5.90935     13.15624        -0.214002      0.064647     -0.464967
      5.14256     -0.26030     13.12816        -0.373250      0.078224     -0.142303
      3.34914      2.81272     13.14688        -0.348736      0.118277     -0.467890
      1.55342      5.91687     13.17205        -0.225071     -0.028699     -0.472848
      8.77432     -0.26561     13.14810        -0.323122      0.141590     -0.276078
      6.94958      2.83516     13.14538         0.028758     -0.015983     -0.493945
      5.18750      5.90606     13.18162        -0.249621      0.010531     -0.791094
      2.19092      0.69067     16.88418         0.210207     -0.295690      0.163069
      0.39468      3.76824     16.87414         0.196788     -0.229836      0.247799
     -1.37715      6.83002     16.85757         0.265563     -0.078885      0.275734
      5.82091      0.67582     16.85507         0.299828     -0.123781      0.555866
      4.04090      3.77025     16.87538         0.150216     -0.250196      0.374748
      2.24762      6.85568     16.88759         0.263478     -0.293910      0.235953
      9.46681      0.66665     16.88276         0.340349     -0.143183      0.315000
      7.66670      3.75816     16.88627         0.443012     -0.149149      0.208398
      5.88445      6.85732     16.86519         0.134066     -0.195592      0.558914
     -3.95398      9.04840      9.51553         0.185077     -0.084966      0.503526
     -0.36211      2.89364      9.50469         0.098062     -0.215989      0.374105
     -2.13648      5.96418      9.55424         0.131631      0.016755      0.054965
     -0.28770      9.05630      9.53464         0.069738     -0.330387      0.317552
      3.24481      2.90143      9.48343         0.286599     -0.315236      0.648572
      1.48111      5.94694      9.50474         0.268784      0.109878      0.412189
      8.70746     -0.19681      9.53550        -0.017964     -0.357832      0.085716
      6.90327      2.86723      9.51520         0.242565     -0.051637      0.312620
      5.12757      5.96129      9.51681         0.064313     -0.253831      0.371760
      0.42595     -0.38444     18.70313        -0.366912     -0.111567     -0.262531
     -1.36888      2.69056     18.69892        -0.193029      0.210232     -0.049980
     -3.16321      5.80572     18.66087         0.006964     -0.216380      0.370559
     -1.32241      8.85201     18.67097         0.057291      0.435938      0.105975
      2.22142      2.70683     18.68194         0.562873      0.035595      0.090038
      0.46282      5.78046     18.68951         0.006071      0.170183      0.030826
      2.32842      8.86604     18.68783        -0.344053      0.175334      0.029440
      5.90388      2.71707     18.69151        -0.306168     -0.169982     -0.087036
      4.06865      5.76454     18.71002         0.439874      0.436242     -0.265731
      1.46049      1.85177     11.33112         0.259656     -0.285343     -0.135697
     -0.28777      4.92787     11.31731        -0.119373     -0.114413      0.471325
     -2.10987      8.01517     11.35678         0.296594     -0.112796     -0.321881
      5.12317      1.82483     11.32391        -0.229843      0.255039     -0.019972
      3.30901      4.91423     11.33106         0.275651      0.016544      0.117642
      1.56034      7.99074     11.35407         0.024999     -0.029585     -0.366238
      8.75873      1.82162     11.31699        -0.048198      0.309091      0.396280
      6.98285      4.92192     11.32025        -0.297023     -0.092044      0.377693
      5.14882      7.98650     11.32133         0.437980      0.071589      0.255889
 -----------------------------------------------------------------------------------
    total drift:                               -0.005930      0.001887     -0.002984


--------------------------------------------------------------------------------------------------------



  FREE ENERGIE OF THE ION-ELECTRON SYSTEM (eV)
  ---------------------------------------------------
  free  energy   TOTEN  =      -341.83496509 eV

  energy  without entropy=     -341.83496509  energy(sigma->0) =     -341.83496509
 
 d Force =-0.1685966E-01[-0.188E-01,-0.149E-01]  d Energy =-0.1681829E-01-0.414E-04
 d Force = 0.5746764E+01[ 0.574E+01, 0.575E+01]  d Ewald  = 0.5746765E+01-0.595E-06


--------------------------------------------------------------------------------------------------------


    POTLOK:  cpu time    0.3249: real time    0.3253


--------------------------------------------------------------------------------------------------------


           RANDOM_SEED =         218660970              324                0
   IONSTEP:  cpu time    0.0001: real time    0.0001

  ENERGY OF THE ELECTRON-ION-THERMOSTAT SYSTEM (eV)
  ---------------------------------------------------
% ion-electron   TOTEN  =      -341.834965  see above
  kinetic energy EKIN   =         0.594498
  kin. lattice  EKIN_LAT=         0.000000  (temperature   86.78 K)
  nose potential ES     =        -0.026668
  nose kinetic   EPS    =         0.002654
  ---------------------------------------------------
  total energy   ETOTAL =      -341.264481 eV

  maximum distance moved by ions :      0.45E-03


 mean value of Nose-termostat <S>:     0.973 mean value of <T> :    86.778
 mean temperature <T/S>/<1/S>  :    86.778

    WAVPRE:  cpu time    0.1083: real time    0.1125
    FEWALD:  cpu time    0.0010: real time    0.0010
    ORTHCH:  cpu time    8.4044: real time    8.4213
    POTLOK:  cpu time    0.3290: real time    0.3293
    EDDIAG:  cpu time    2.6019: real time    2.6048
     LOOP+:  cpu time  499.2941: real time  500.3533
    4ORBIT:  cpu time    0.0000: real time    0.0000

 total amount of memory used by VASP MPI-rank0   381929. kBytes
=======================================================================

   base      :      30000. kBytes
   nonl-proj :     204779. kBytes
   fftplans  :      19943. kBytes
   grid      :      90496. kBytes
   one-center:        839. kBytes
   wavefun   :      35872. kBytes
 
  
  
 General timing and accounting informations for this job:
 ========================================================
  
                  Total CPU time used (sec):     6073.879
                            User time (sec):     6059.129
                          System time (sec):       14.750
                         Elapsed time (sec):     6087.851
  
                   Maximum memory used (kb):      845852.
                   Average memory used (kb):           0.
  
                          Minor page faults:       395750
                          Major page faults:            0
                 Voluntary context switches:          672
