 vasp.6.1.1 19Jun20 (build Dec 21 2021 08:45:49) complex                        
  
 executed on             LinuxIFC date 2023.10.04  13:29:40
 running on   40 total cores
 distrk:  each k-point on   40 cores,    1 groups
 distr:  one band on NCORE=   1 cores,   40 groups


--------------------------------------------------------------------------------------------------------


 INCAR:
 POTCAR:   PAW_PBE Te 08Apr2002                   
 POTCAR:   PAW_PBE Mo 08Apr2002                   
 -----------------------------------------------------------------------------
|                                                                             |
|           W    W    AA    RRRRR   N    N  II  N    N   GGGG   !!!           |
|           W    W   A  A   R    R  NN   N  II  NN   N  G    G  !!!           |
|           W    W  A    A  R    R  N N  N  II  N N  N  G       !!!           |
|           W WW W  AAAAAA  RRRRR   N  N N  II  N  N N  G  GGG   !            |
|           WW  WW  A    A  R   R   N   NN  II  N   NN  G    G                |
|           W    W  A    A  R    R  N    N  II  N    N   GGGG   !!!           |
|                                                                             |
|     For optimal performance we recommend to set                             |
|       NCORE = 4 - approx SQRT(number of cores).                             |
|     NCORE specifies how many cores store one orbital (NPAR=cpu/NCORE).      |
|     This setting can greatly improve the performance of VASP for DFT.       |
|     The default, NCORE=1 might be grossly inefficient on modern             |
|     multi-core architectures or massively parallel machines. Do your        |
|     own testing!!!!                                                         |
|     Unfortunately you need to use the default for GW and RPA                |
|     calculations (for HF NCORE is supported but not extensively tested      |
|     yet).                                                                   |
|                                                                             |
 -----------------------------------------------------------------------------

 POTCAR:   PAW_PBE Te 08Apr2002                   
   VRHFIN =Te: s2p4                                                                                 
   LEXCH  = PE                                                                                      
   EATOM  =   223.2721 eV,   16.4100 Ry                                                             
                                                                                                    
   TITEL  = PAW_PBE Te 08Apr2002                                                                    
   LULTRA =        F    use ultrasoft PP ?                                                          
   IUNSCR =        1    unscreen: 0-lin 1-nonlin 2-no                                               
   RPACOR =    2.200    partial core radius                                                         
   POMASS =  127.600; ZVAL   =    6.000    mass and valenz                                          
   RCORE  =    2.300    outmost cutoff radius                                                       
   RWIGS  =    2.900; RWIGS  =    1.535    wigner-seitz radius (au A)                               
   ENMAX  =  174.982; ENMIN  =  131.236 eV                                                          
   ICORE  =        3    local potential                                                             
   LCOR   =        T    correct aug charges                                                         
   LPAW   =        T    paw PP                                                                      
   EAUG   =  368.792                                                                                
   DEXC   =    -.169                                                                                
   RMAX   =    3.486    core radius for proj-oper                                                   
   RAUG   =    1.300    factor for augmentation sphere                                              
   RDEP   =    2.397    radius for radial grids                                                     
   QCUT   =   -3.586; QGAM   =    7.172    optimization parameters                                  
                                                                                                    
   Description                                                                                      
     l     E      TYP  RCUT    TYP  RCUT                                                            
     0   .000     23  2.300                                                                         
     0   .000     23  2.300                                                                         
     1   .000     23  2.300                                                                         
     1   .000     23  2.300                                                                         
     2   .000     23  2.300                                                                         
     3  -.100     23  2.300                                                                         
  local pseudopotential read in
  partial core-charges read in
  atomic valenz-charges read in
  non local Contribution for L=           0  read in
    real space projection operators read in
  non local Contribution for L=           0  read in
    real space projection operators read in
  non local Contribution for L=           1  read in
    real space projection operators read in
  non local Contribution for L=           1  read in
    real space projection operators read in
  non local Contribution for L=           2  read in
    real space projection operators read in
    PAW grid and wavefunctions read in
 
   number of l-projection  operators is LMAX  =           5
   number of lm-projection operators is LMMAX =          13
 
 POTCAR:   PAW_PBE Mo 08Apr2002                   
   VRHFIN =Mo: 4p5s4d                                                                               
   LEXCH  = PE                                                                                      
   EATOM  =   217.5180 eV,   15.9871 Ry                                                             
                                                                                                    
   TITEL  = PAW_PBE Mo 08Apr2002                                                                    
   LULTRA =        F    use ultrasoft PP ?                                                          
   IUNSCR =        1    unscreen: 0-lin 1-nonlin 2-no                                               
   RPACOR =    2.200    partial core radius                                                         
   POMASS =   95.940; ZVAL   =    6.000    mass and valenz                                          
   RCORE  =    2.750    outmost cutoff radius                                                       
   RWIGS  =    2.750; RWIGS  =    1.455    wigner-seitz radius (au A)                               
   ENMAX  =  224.584; ENMIN  =  168.438 eV                                                          
   RCLOC  =    2.111    cutoff for local pot                                                        
   LCOR   =        T    correct aug charges                                                         
   LPAW   =        T    paw PP                                                                      
   EAUG   =  345.278                                                                                
   DEXC   =    -.088                                                                                
   RMAX   =    3.077    core radius for proj-oper                                                   
   RAUG   =    1.300    factor for augmentation sphere                                              
   RDEP   =    2.815    radius for radial grids                                                     
   QCUT   =   -4.063; QGAM   =    8.126    optimization parameters                                  
                                                                                                    
   Description                                                                                      
     l     E      TYP  RCUT    TYP  RCUT                                                            
     2   .000     23  2.500                                                                         
     2   .000     23  2.500                                                                         
     0   .000     23  2.600                                                                         
     0  1.000     23  2.600                                                                         
     1   .400     23  2.750                                                                         
     1  2.000     23  2.750                                                                         
     3   .000      7   .000                                                                         
  local pseudopotential read in
  partial core-charges read in
  atomic valenz-charges read in
  non local Contribution for L=           2  read in
    real space projection operators read in
  non local Contribution for L=           2  read in
    real space projection operators read in
  non local Contribution for L=           0  read in
    real space projection operators read in
  non local Contribution for L=           0  read in
    real space projection operators read in
  non local Contribution for L=           1  read in
    real space projection operators read in
  non local Contribution for L=           1  read in
    real space projection operators read in
    PAW grid and wavefunctions read in
 
   number of l-projection  operators is LMAX  =           6
   number of lm-projection operators is LMMAX =          18
 
 -----------------------------------------------------------------------------
|                                                                             |
|               ----> ADVICE to this user running VASP <----                  |
|                                                                             |
|     You have a (more or less) 'large supercell' and for larger cells it     |
|     might be more efficient to use real-space projection operators.         |
|     Therefore, try LREAL= Auto in the INCAR file.                           |
|     Mind: If you want to do very accurate calculations, keep the            |
|     reciprocal projection scheme (i.e. LREAL=.FALSE.).                      |
|                                                                             |
 -----------------------------------------------------------------------------

 PAW_PBE Te 08Apr2002                   :
 energy of atom  1       EATOM= -223.2721
 kinetic energy error for atom=    0.0006 (will be added to EATOM!!)
 PAW_PBE Mo 08Apr2002                   :
 energy of atom  2       EATOM= -217.5180
 kinetic energy error for atom=    0.0009 (will be added to EATOM!!)
 
 
 POSCAR: Te Mo
  positions in cartesian coordinates
  No initial velocities read in
 exchange correlation table for  LEXCH =        8
   RHO(1)=    0.500       N(1)  =     2000
   RHO(2)=  100.500       N(2)  =     4000
 


--------------------------------------------------------------------------------------------------------


 ion  position               nearest neighbor table
   1  0.222  0.111  0.678-  37 2.73  40 2.74  41 2.80   4 3.44   7 3.45   3 3.52   2 3.53   9 3.60
                             5 3.61
   2  0.222  0.444  0.677-  38 2.72  41 2.75  42 2.80   8 3.45   5 3.46   3 3.52   1 3.53   7 3.60
                             6 3.62
   3  0.223  0.778  0.678-  39 2.73  42 2.75  40 2.80   6 3.44   9 3.46   1 3.52   2 3.52   4 3.60
                             8 3.61
   4  0.555  0.111  0.677-  40 2.71  43 2.76  44 2.79   1 3.44   7 3.46   5 3.51   6 3.52   3 3.60
                             8 3.61
   5  0.556  0.444  0.677-  41 2.72  44 2.75  45 2.79   8 3.45   2 3.46   4 3.51   6 3.53   9 3.61
                             1 3.61
   6  0.556  0.779  0.678-  42 2.73  45 2.75  43 2.79   3 3.44   9 3.45   4 3.52   5 3.53   7 3.60
                             2 3.62
   7  0.889  0.111  0.677-  43 2.73  37 2.75  38 2.80   1 3.45   4 3.46   8 3.52   9 3.52   2 3.60
                             6 3.60
   8  0.889  0.444  0.678-  44 2.72  38 2.76  39 2.80   2 3.45   5 3.45   7 3.52   9 3.52   4 3.61
                             3 3.61
   9  0.889  0.778  0.677-  45 2.72  39 2.75  37 2.79   6 3.45   3 3.46   8 3.52   7 3.52   1 3.60
                             5 3.61
  10  1.000  0.999  0.443-  54 2.72  48 2.73  46 2.80  13 3.45  16 3.46  12 3.51  11 3.52  18 3.60
                            14 3.61
  11  1.000  0.333  0.443-  52 2.72  46 2.75  47 2.79  17 3.44  14 3.45  10 3.52  12 3.53  15 3.60
                            16 3.61
  12  1.000  0.667  0.443-  53 2.72  47 2.75  48 2.79  18 3.45  15 3.46  10 3.51  11 3.53  17 3.60
                            13 3.61
  13  0.333  0.000  0.443-  48 2.72  51 2.75  49 2.79  16 3.45  10 3.45  14 3.52  15 3.52  12 3.61
                            17 3.61
  14  0.334  0.334  0.443-  46 2.73  49 2.75  50 2.79  11 3.45  17 3.46  15 3.52  13 3.52  18 3.60
                            10 3.61
  15  0.333  0.666  0.443-  47 2.72  50 2.74  51 2.80  18 3.45  12 3.46  14 3.52  13 3.52  11 3.60
                            16 3.61
  16  0.666  1.000  0.443-  51 2.72  54 2.74  52 2.79  13 3.45  10 3.46  17 3.52  18 3.52  15 3.61
                            11 3.61
  17  0.667  0.333  0.443-  49 2.72  52 2.74  53 2.79  11 3.44  14 3.46  16 3.52  18 3.53  12 3.60
                            13 3.61
  18  0.667  0.667  0.443-  50 2.72  53 2.75  54 2.79  12 3.45  15 3.45  16 3.52  17 3.53  10 3.60
                            14 3.60
  19  0.222  0.111  0.557-  40 2.69  41 2.77  37 2.79  22 3.45  25 3.46  20 3.52  21 3.52  23 3.60
                            27 3.61
  20  0.223  0.444  0.557-  41 2.69  42 2.77  38 2.78  23 3.44  26 3.45  19 3.52  21 3.53  24 3.61
                            25 3.61
  21  0.222  0.778  0.557-  42 2.70  40 2.78  39 2.79  27 3.45  24 3.45  19 3.52  20 3.53  26 3.60
                            22 3.61
  22  0.556  0.111  0.557-  43 2.69  44 2.77  40 2.79  25 3.45  19 3.45  23 3.52  24 3.52  21 3.61
                            26 3.61
  23  0.555  0.444  0.557-  44 2.70  45 2.78  41 2.79  20 3.44  26 3.46  24 3.52  22 3.52  19 3.60
                            27 3.61
  24  0.556  0.778  0.557-  45 2.70  43 2.77  42 2.79  27 3.45  21 3.45  23 3.52  22 3.52  25 3.60
                            20 3.61
  25  0.889  0.111  0.557-  37 2.70  38 2.77  43 2.79  22 3.45  19 3.46  26 3.52  27 3.52  24 3.60
                            20 3.61
  26  0.889  0.445  0.557-  38 2.69  39 2.77  44 2.80  20 3.45  23 3.46  25 3.52  27 3.52  21 3.60
                            22 3.61
  27  0.889  0.778  0.557-  39 2.69  37 2.77  45 2.80  21 3.45  24 3.45  26 3.52  25 3.52  19 3.61
                            23 3.61
  28  0.000  1.000  0.323-  48 2.69  46 2.77  54 2.80  31 3.45  34 3.45  30 3.51  29 3.53  32 3.60
                            36 3.61
  29  0.000  0.334  0.323-  46 2.70  47 2.77  52 2.79  35 3.44  32 3.44  30 3.51  28 3.53  33 3.61
                            34 3.61
  30  0.000  0.667  0.322-  47 2.70  48 2.78  53 2.79  33 3.45  36 3.46  28 3.51  29 3.51  31 3.60
                            35 3.60
  31  0.333  1.000  0.323-  51 2.69  49 2.78  48 2.80  34 3.45  28 3.45  33 3.51  32 3.52  30 3.60
                            35 3.61
  32  0.332  0.333  0.323-  49 2.70  46 2.78  50 2.78  29 3.44  35 3.46  31 3.52  33 3.53  28 3.60
                            36 3.61
  33  0.334  0.668  0.323-  50 2.70  51 2.77  47 2.80  36 3.45  30 3.45  31 3.51  32 3.53  34 3.60
                            29 3.61
  34  0.666  1.000  0.322-  54 2.69  52 2.78  51 2.79  31 3.45  28 3.45  36 3.52  35 3.52  33 3.60
                            29 3.61
  35  0.667  0.334  0.323-  52 2.69  53 2.77  49 2.80  29 3.44  32 3.46  34 3.52  36 3.52  30 3.60
                            31 3.61
  36  0.666  0.666  0.323-  53 2.69  54 2.78  50 2.79  33 3.45  30 3.46  34 3.52  35 3.52  32 3.61
                            28 3.61
  37  0.000  0.999  0.617-  25 2.70   1 2.73   7 2.75  27 2.77  19 2.79   9 2.79  40 3.45  43 3.45

  38  0.000  0.333  0.617-  26 2.69   2 2.72   8 2.76  25 2.77  20 2.78   7 2.80  41 3.45  44 3.45

  39  1.000  0.666  0.617-  27 2.69   3 2.73   9 2.75  26 2.77  21 2.79   8 2.80  42 3.45  45 3.46

  40  0.333  0.000  0.617-  19 2.69   4 2.71   1 2.74  21 2.78  22 2.79   3 2.80  37 3.45  43 3.45

  41  0.333  0.333  0.617-  20 2.69   5 2.72   2 2.75  19 2.77  23 2.79   1 2.80  38 3.45  44 3.45

  42  0.333  0.667  0.617-  21 2.70   6 2.73   3 2.75  20 2.77  24 2.79   2 2.80  45 3.45  39 3.45

  43  0.667  0.999  0.617-  22 2.69   7 2.73   4 2.76  24 2.77  25 2.79   6 2.79  37 3.45  40 3.45

  44  0.667  0.333  0.617-  23 2.70   8 2.72   5 2.75  22 2.77   4 2.79  26 2.80  41 3.45  38 3.45

  45  0.666  0.666  0.617-  24 2.70   9 2.72   6 2.75  23 2.78   5 2.79  27 2.80  42 3.45  39 3.46

  46  0.111  0.222  0.383-  29 2.70  14 2.73  11 2.75  28 2.77  32 2.78  10 2.80  49 3.45  52 3.46

  47  0.111  0.555  0.383-  30 2.70  15 2.72  12 2.75  29 2.77  11 2.79  33 2.80  50 3.45  53 3.45

  48  0.111  0.889  0.383-  28 2.69  13 2.72  10 2.73  30 2.78  12 2.79  31 2.80  51 3.45  54 3.46

  49  0.445  0.222  0.383-  32 2.70  17 2.72  14 2.75  31 2.78  13 2.79  35 2.80  46 3.45  52 3.45

  50  0.444  0.556  0.383-  33 2.70  18 2.72  15 2.74  32 2.78  36 2.79  14 2.79  47 3.45  53 3.45

  51  0.445  0.889  0.383-  31 2.69  16 2.72  13 2.75  33 2.77  34 2.79  15 2.80  54 3.44  48 3.45

  52  0.778  0.222  0.383-  35 2.69  11 2.72  17 2.74  34 2.78  16 2.79  29 2.79  49 3.45  46 3.46

  53  0.778  0.556  0.383-  36 2.69  12 2.72  18 2.75  35 2.77  17 2.79  30 2.79  47 3.45  50 3.45

  54  0.777  0.889  0.383-  34 2.69  10 2.72  16 2.74  36 2.78  18 2.79  28 2.80  51 3.44  48 3.46

 

IMPORTANT INFORMATION: All symmetrisations will be switched off!
NOSYMM: (Re-)initialisation of all symmetry stuff for point group C_1.


----------------------------------------------------------------------------------------

                                     Primitive cell                                     

  volume of cell :    2970.9172

  direct lattice vectors                    reciprocal lattice vectors
    10.353007220  0.000000000  0.000000000     0.096590293  0.050733652  0.002854519
    -4.909841258  9.347700906  0.000000000     0.000000000  0.106978177  0.000600182
    -0.816769960 -0.172229210 30.698646248     0.000000000  0.000000000  0.032574726

  length of vectors
    10.353007220 10.558695629 30.709992795     0.109140902  0.106979860  0.032574726

  position of ions in fractional coordinates (direct lattice)
     0.222344345  0.110666815  0.677636512
     0.221625819  0.444265712  0.677433171
     0.223048603  0.777998831  0.677637563
     0.554891241  0.111184999  0.677248776
     0.555548482  0.444341388  0.677437901
     0.556005447  0.778649521  0.677518181
     0.889038364  0.111277122  0.677442102
     0.888582429  0.444218616  0.677669433
     0.888897460  0.777536841  0.677381778
     0.999943146  0.999441374  0.443301476
     0.999879294  0.333146836  0.443269638
     0.999760873  0.666976422  0.443425229
     0.333344256  0.000033068  0.443370775
     0.333741679  0.333521090  0.443426577
     0.333221702  0.666266298  0.443351782
     0.666263526  0.999914282  0.443285151
     0.667431634  0.333393932  0.443172199
     0.666766990  0.666969966  0.443317874
     0.222327980  0.111233727  0.556644308
     0.222553856  0.444383322  0.556815479
     0.222120153  0.778051129  0.556592315
     0.555589621  0.111357623  0.556756950
     0.554971585  0.444451796  0.556514005
     0.555619660  0.777886938  0.556618721
     0.888596369  0.111286265  0.556667459
     0.889418686  0.444803536  0.556670075
     0.889011980  0.777861489  0.556561821
     0.000023035  0.999744191  0.322627024
     0.000218105  0.334214352  0.322564645
     0.000113532  0.667000475  0.322372881
     0.333397143  0.999975539  0.322528547
     0.332294410  0.332901021  0.322590698
     0.333811399  0.667539274  0.322541246
     0.666413793  0.999820123  0.322457949
     0.667266828  0.333511570  0.322667782
     0.666086915  0.666383923  0.322603451
     0.000023377  0.999189868  0.616919524
     0.000338927  0.333064726  0.616840510
     0.999925123  0.666402639  0.617010153
     0.333292119  0.000082455  0.617080056
     0.333202095  0.332840821  0.617057962
     0.333376752  0.666761552  0.617058901
     0.666577724  0.999259146  0.616858108
     0.666790919  0.333312499  0.617090712
     0.665929891  0.665968843  0.617187358
     0.111358619  0.221840428  0.382760601
     0.111305057  0.555365249  0.383095419
     0.110945988  0.888924293  0.383239269
     0.444505477  0.222071539  0.383073637
     0.444470638  0.555536573  0.383004406
     0.444515692  0.888752760  0.382974791
     0.777809235  0.222215583  0.383007349
     0.778019954  0.555510359  0.382918428
     0.776935279  0.888964085  0.383030365

  ion indices of the primitive-cell ions
   primitive index   ion index
                 1           1
                 2           2
                 3           3
                 4           4
                 5           5
                 6           6
                 7           7
                 8           8
                 9           9
                10          10
                11          11
                12          12
                13          13
                14          14
                15          15
                16          16
                17          17
                18          18
                19          19
                20          20
                21          21
                22          22
                23          23
                24          24
                25          25
                26          26
                27          27
                28          28
                29          29
                30          30
                31          31
                32          32
                33          33
                34          34
                35          35
                36          36
                37          37
                38          38
                39          39
                40          40
                41          41
                42          42
                43          43
                44          44
                45          45
                46          46
                47          47
                48          48
                49          49
                50          50
                51          51
                52          52
                53          53
                54          54

----------------------------------------------------------------------------------------

 
 

Automatic generation of k-mesh.
 generate k-points for:    3    3    1
Space group operators:
 irot       det(A)        alpha          n_x          n_y          n_z        tau_x        tau_y        tau_z
    1     1.000000     0.000000     1.000000     0.000000     0.000000     0.000000     0.000000     0.000000
 
 Subroutine IBZKPT returns following result:
 ===========================================
 
 Found      5 irreducible k-points:
 
 Following reciprocal coordinates:
            Coordinates               Weight
  0.000000  0.000000  0.000000      1.000000
  0.333333  0.000000 -0.000000      2.000000
  0.000000  0.333333 -0.000000      2.000000
  0.333333  0.333333 -0.000000      2.000000
 -0.333333  0.333333  0.000000      2.000000
 
 Following cartesian coordinates:
            Coordinates               Weight
  0.000000  0.000000  0.000000      1.000000
  0.032197  0.016911  0.000952      2.000000
  0.000000  0.035659  0.000200      2.000000
  0.032197  0.052571  0.001152      2.000000
 -0.032197  0.018748 -0.000751      2.000000
 


--------------------------------------------------------------------------------------------------------




 Dimension of arrays:
   k-points           NKPTS =      5   k-points in BZ     NKDIM =      5   number of bands    NBANDS=    200
   number of dos      NEDOS =    301   number of ions     NIONS =     54
   non local maximal  LDIM  =      6   non local SUM 2l+1 LMDIM =     18
   total plane-waves  NPLWV = ******
   max r-space proj   IRMAX =      1   max aug-charges    IRDMAX=  35050
   dimension x,y,z NGX =    80 NGY =   84 NGZ =  240
   dimension x,y,z NGXF=   160 NGYF=  168 NGZF=  480
   support grid    NGXF=   160 NGYF=  168 NGZF=  480
   ions per type =              36  18
   NGX,Y,Z   is equivalent  to a cutoff of  12.85, 13.23, 12.99 a.u.
   NGXF,Y,Z  is equivalent  to a cutoff of  25.69, 26.45, 25.98 a.u.

 SYSTEM =  dpgen_md                                
 POSCAR =  Te Mo                                   

 Startparameter for this run:
   NWRITE =      2    write-flag & timer
   PREC   = a         normal or accurate (medium, high low for compatibility)
   ISTART =      0    job   : 0-new  1-cont  2-samecut
   ICHARG =      2    charge: 1-file 2-atom 10-const
   ISPIN  =      1    spin polarized calculation?
   LNONCOLLINEAR =      F non collinear calculations
   LSORBIT =      F    spin-orbit coupling
   INIWAV =      1    electr: 0-lowe 1-rand  2-diag
   LASPH  =      F    aspherical Exc in radial PAW
   METAGGA=      F    non-selfconsistent MetaGGA calc.

 Electronic Relaxation 1
   ENCUT  =  550.0 eV  40.42 Ry    6.36 a.u.  19.80 20.19 58.72*2*pi/ulx,y,z
   ENINI  =  550.0     initial cutoff
   ENAUG  =  368.8 eV  augmentation charge cutoff
   NELM   =    100;   NELMIN=  6; NELMDL= -5     # of ELM steps 
   EDIFF  = 0.1E-05   stopping-criterion for ELM
   LREAL  =      F    real-space projection
   NLSPLINE    = F    spline interpolate recip. space projectors
   LCOMPAT=      F    compatible to vasp.4.4
   GGA_COMPAT  = T    GGA compatible to vasp.4.4-vasp.4.6
   LMAXPAW     = -100 max onsite density
   LMAXMIX     =    2 max onsite mixed and CHGCAR
   VOSKOWN=      0    Vosko Wilk Nusair interpolation
   ROPT   =    0.00000   0.00000
 Ionic relaxation
   EDIFFG = 0.1E-04   stopping-criterion for IOM
   NSW    =     10    number of steps for IOM
   NBLOCK =      1;   KBLOCK =      1    inner block; outer block 
   IBRION =      0    ionic relax: 0-MD 1-quasi-New 2-CG
   NFREE  =      0    steps in history (QN), initial steepest desc. (CG)
   ISIF   =      2    stress and relaxation
   IWAVPR =     11    prediction:  0-non 1-charg 2-wave 3-comb
   ISYM   =      0    0-nonsym 1-usesym 2-fastsym
   LCORR  =      T    Harris-Foulkes like correction to forces

   POTIM  = 2.0000    time-step for ionic-motion
   TEIN   =  100.0    initial temperature
   TEBEG  =  100.0;   TEEND  = 100.0 temperature during run
   SMASS  =   0.04    Nose mass-parameter (am)
   estimated Nose-frequenzy (Omega)   =  0.79E+14 period in steps = 0.40E+02 mass=   0.327E-28a.u.
   SCALEE = 1.0000    scale energy and forces
   NPACO  =    256;   APACO  = 16.0  distance and # of slots for P.C.
   PSTRESS=    0.0 pullay stress

  Mass of Ions in am
   POMASS = 127.60 95.94
  Ionic Valenz
   ZVAL   =   6.00  6.00
  Atomic Wigner-Seitz radii
   RWIGS  =  -1.00 -1.00
  virtual crystal weights 
   VCA    =   1.00  1.00
   NELECT =     324.0000    total number of electrons
   NUPDOWN=      -1.0000    fix difference up-down

 DOS related values:
   EMIN   =  10.00;   EMAX   =-10.00  energy-range for DOS
   EFERMI =   0.00
   ISMEAR =     0;   SIGMA  =   0.10  broadening in eV -4-tet -1-fermi 0-gaus

 Electronic relaxation 2 (details)
   IALGO  =     68    algorithm
   LDIAG  =      T    sub-space diagonalisation (order eigenvalues)
   LSUBROT=      F    optimize rotation matrix (better conditioning)
   TURBO    =      0    0=normal 1=particle mesh
   IRESTART =      0    0=no restart 2=restart with 2 vectors
   NREBOOT  =      0    no. of reboots
   NMIN     =      0    reboot dimension
   EREF     =   0.00    reference energy to select bands
   IMIX   =      4    mixing-type and parameters
     AMIX     =   0.40;   BMIX     =  1.00
     AMIX_MAG =   1.60;   BMIX_MAG =  1.00
     AMIN     =   0.10
     WC   =   100.;   INIMIX=   1;  MIXPRE=   1;  MAXMIX= -45

 Intra band minimization:
   WEIMIN = 0.0010     energy-eigenvalue tresh-hold
   EBREAK =  0.13E-08  absolut break condition
   DEPER  =   0.30     relativ break condition  

   TIME   =   0.40     timestep for ELM

  volume/ion in A,a.u.               =      55.02       371.27
  Fermi-wavevector in a.u.,A,eV,Ry     =   0.782155  1.478059  8.323594  0.611767
  Thomas-Fermi vector in A             =   1.885821
 
 Write flags
   LWAVE        =      F    write WAVECAR
   LDOWNSAMPLE  =      F    k-point downsampling of WAVECAR
   LCHARG       =      F    write CHGCAR
   LVTOT        =      F    write LOCPOT, total local potential
   LVHAR        =      F    write LOCPOT, Hartree potential only
   LELF         =      F    write electronic localiz. function (ELF)
   LORBIT       =      0    0 simple, 1 ext, 2 COOP (PROOUT), +10 PAW based schemes


 Dipole corrections
   LMONO  =      F    monopole corrections only (constant potential shift)
   LDIPOL =      F    correct potential (dipole corrections)
   IDIPOL =      0    1-x, 2-y, 3-z, 4-all directions 
   EPSILON=  1.0000000 bulk dielectric constant

 Exchange correlation treatment:
   GGA     =    --    GGA type
   LEXCH   =     8    internal setting for exchange type
   VOSKOWN=      0    Vosko Wilk Nusair interpolation
   LHFCALC =     F    Hartree Fock is set to
   LHFONE  =     F    Hartree Fock one center treatment
   AEXX    =    0.0000 exact exchange contribution

 Linear response parameters
   LEPSILON=     F    determine dielectric tensor
   LRPA    =     F    only Hartree local field effects (RPA)
   LNABLA  =     F    use nabla operator in PAW spheres
   LVEL    =     F    velocity operator in full k-point grid
   LINTERFAST=   F  fast interpolation
   KINTER  =     0    interpolate to denser k-point grid
   CSHIFT  =0.1000    complex shift for real part using Kramers Kronig
   OMEGAMAX=  -1.0    maximum frequency
   DEG_THRESHOLD= 0.2000000E-02 threshold for treating states as degnerate
   RTIME   =   -0.100 relaxation time in fs
  (WPLASMAI=    0.000 imaginary part of plasma frequency in eV, 0.658/RTIME)
   DFIELD  = 0.0000000 0.0000000 0.0000000 field for delta impulse in time
 
 Orbital magnetization related:
   ORBITALMAG=     F  switch on orbital magnetization
   LCHIMAG   =     F  perturbation theory with respect to B field
   DQ        =  0.001000  dq finite difference perturbation B field
   LLRAUG    =     F  two centre corrections for induced B field



--------------------------------------------------------------------------------------------------------


 molecular dynamics for ions
   using nose mass (canonical ensemble)
 charge density and potential will be updated during run
 non-spin polarized calculation
 RMM-DIIS sequential band-by-band and
  variant of blocked Davidson during initial phase
 perform sub-space diagonalisation
    before iterative eigenvector-optimisation
 modified Broyden-mixing scheme, WC =      100.0
 initial mixing is a Kerker type mixing with AMIX =  0.4000 and BMIX =      1.0000
 Hartree-type preconditioning will be used
 using additional bands           38
 reciprocal scheme for non local part
 use partial core corrections
 calculate Harris-corrections to forces 
   (improved forces if not selfconsistent)
 use gradient corrections 
 use of overlap-Matrix (Vanderbilt PP)
 Gauss-broadening in eV      SIGMA  =   0.10


--------------------------------------------------------------------------------------------------------


  energy-cutoff  :      550.00
  volume of cell :     2970.92
      direct lattice vectors                 reciprocal lattice vectors
    10.353007220  0.000000000  0.000000000     0.096590293  0.050733652  0.002854519
    -4.909841258  9.347700906  0.000000000     0.000000000  0.106978177  0.000600182
    -0.816769960 -0.172229210 30.698646248     0.000000000  0.000000000  0.032574726

  length of vectors
    10.353007220 10.558695629 30.709992795     0.109140902  0.106979860  0.032574726


 
 k-points in units of 2pi/SCALE and weight: read from INCAR                         
   0.00000000  0.00000000  0.00000000       0.111
   0.03219676  0.01691122  0.00095151       0.222
   0.00000000  0.03565939  0.00020006       0.222
   0.03219676  0.05257061  0.00115157       0.222
  -0.03219676  0.01874817 -0.00075145       0.222
 
 k-points in reciprocal lattice and weights: read from INCAR                         
   0.00000000  0.00000000  0.00000000       0.111
   0.33333333  0.00000000 -0.00000000       0.222
   0.00000000  0.33333333 -0.00000000       0.222
   0.33333333  0.33333333 -0.00000000       0.222
  -0.33333333  0.33333333  0.00000000       0.222
 
 position of ions in fractional coordinates (direct lattice) 
   0.22234435  0.11066682  0.67763651
   0.22162582  0.44426571  0.67743317
   0.22304860  0.77799883  0.67763756
   0.55489124  0.11118500  0.67724878
   0.55554848  0.44434139  0.67743790
   0.55600545  0.77864952  0.67751818
   0.88903836  0.11127712  0.67744210
   0.88858243  0.44421862  0.67766943
   0.88889746  0.77753684  0.67738178
   0.99994315  0.99944137  0.44330148
   0.99987929  0.33314684  0.44326964
   0.99976087  0.66697642  0.44342523
   0.33334426  0.00003307  0.44337078
   0.33374168  0.33352109  0.44342658
   0.33322170  0.66626630  0.44335178
   0.66626353  0.99991428  0.44328515
   0.66743163  0.33339393  0.44317220
   0.66676699  0.66696997  0.44331787
   0.22232798  0.11123373  0.55664431
   0.22255386  0.44438332  0.55681548
   0.22212015  0.77805113  0.55659231
   0.55558962  0.11135762  0.55675695
   0.55497159  0.44445180  0.55651400
   0.55561966  0.77788694  0.55661872
   0.88859637  0.11128626  0.55666746
   0.88941869  0.44480354  0.55667007
   0.88901198  0.77786149  0.55656182
   0.00002303  0.99974419  0.32262702
   0.00021810  0.33421435  0.32256465
   0.00011353  0.66700048  0.32237288
   0.33339714  0.99997554  0.32252855
   0.33229441  0.33290102  0.32259070
   0.33381140  0.66753927  0.32254125
   0.66641379  0.99982012  0.32245795
   0.66726683  0.33351157  0.32266778
   0.66608691  0.66638392  0.32260345
   0.00002338  0.99918987  0.61691952
   0.00033893  0.33306473  0.61684051
   0.99992512  0.66640264  0.61701015
   0.33329212  0.00008245  0.61708006
   0.33320210  0.33284082  0.61705796
   0.33337675  0.66676155  0.61705890
   0.66657772  0.99925915  0.61685811
   0.66679092  0.33331250  0.61709071
   0.66592989  0.66596884  0.61718736
   0.11135862  0.22184043  0.38276060
   0.11130506  0.55536525  0.38309542
   0.11094599  0.88892429  0.38323927
   0.44450548  0.22207154  0.38307364
   0.44447064  0.55553657  0.38300441
   0.44451569  0.88875276  0.38297479
   0.77780923  0.22221558  0.38300735
   0.77801995  0.55551036  0.38291843
   0.77693528  0.88896409  0.38303037
 
 position of ions in cartesian coordinates  (Angst):
   1.20510297  0.91777149 20.80252356
  -0.44008748  4.03618922 20.79628126
  -2.06410097  7.15579140 20.80255583
   4.64573587  0.92268210 20.79062060
   3.01664084  4.03689580 20.79642647
   1.37990637  7.16189441 20.79889095
   8.10455323  0.92350994 20.79655543
   6.46495737  4.03570829 20.80353420
   4.83191427  7.15151691 20.79470359
   5.08324479  9.26612958 13.60875520
   8.35401015  3.03781300 13.60777782
   6.71360678  6.15832533 13.61255423
   3.08882120 -0.07605229 13.61088258
   1.45551690  3.04128439 13.61259562
  -0.18353149  6.15169995 13.61029951
   1.62634870  9.27055299 13.60825405
   4.91104350  3.04013956 13.60478656
   3.26623808  6.15828347 13.60925858
   1.30097289  0.94390920 17.08822669
  -0.33254004  4.05806249 17.09348142
  -1.97510387  7.17712779 17.08663057
   4.75053275  0.94504794 17.09168466
   3.10889314  4.05875449 17.08422656
   1.47840352  7.17558843 17.08744122
   8.19857748  0.94439632 17.08893742
   6.56957193  4.06201557 17.08901770
   4.93018804  7.17536034 17.08569447
  -5.17185886  9.28974389  9.90421289
  -1.90214249  3.06858075  9.90229793
  -3.53699554  6.17939892  9.89641103
  -1.72148976  9.29192341  9.90118976
   1.54227287  3.05629963  9.90309773
  -0.08500204  6.18440646  9.90157960
   1.72705475  9.29048279  9.89902251
   5.00718407  3.06199359  9.90546409
   3.36067055  6.17359586  9.90348922
  -5.40950296  9.23387647 18.93859423
  -2.13560281  3.00715149 18.93616859
   6.57634549  6.12306538 18.94137641
   2.94615842 -0.10550845 18.94352234
   1.31145370  3.00502104 18.94284410
  -0.32623663  6.12641199 18.94287293
   1.49104904  9.23453464 18.93670883
   4.76275858  3.00942450 18.94384947
   3.12047557  6.11897986 18.94681638
  -0.24893206  2.00777542 11.75023228
  -1.88731398  5.12540802 11.76051074
  -3.52887088  8.24339342 11.76492675
   3.19874937  2.00988185 11.75984207
   1.56118484  5.12702518 11.75771678
  -0.07436311  8.24183553 11.75680764
   6.64879249  2.01123975 11.75780712
   5.01462225  5.12679495 11.75507735
   3.36609632  8.24380137 11.75851369
 


--------------------------------------------------------------------------------------------------------


 k-point   1 :   0.0000 0.0000 0.0000  plane waves:   86987
 k-point   2 :   0.3333 0.0000-0.0000  plane waves:   86994
 k-point   3 :   0.0000 0.3333-0.0000  plane waves:   87006
 k-point   4 :   0.3333 0.3333-0.0000  plane waves:   87027
 k-point   5 :  -0.3333 0.3333 0.0000  plane waves:   87055

 maximum and minimum number of plane-waves per node :     87055    86987

 maximum number of plane-waves:     87055
 maximum index in each direction: 
   IXMAX=   20   IYMAX=   20   IZMAX=   58
   IXMIN=  -20   IYMIN=  -20   IZMIN=  -58


 serial   3D FFT for wavefunctions
 parallel 3D FFT for charge:
    minimum data exchange during FFTs selected (reduces bandwidth)


 total amount of memory used by VASP MPI-rank0   366741. kBytes
=======================================================================

   base      :      30000. kBytes
   nonl-proj :     200632. kBytes
   fftplans  :      17372. kBytes
   grid      :      82746. kBytes
   one-center:        839. kBytes
   wavefun   :      35152. kBytes
 
     INWAV:  cpu time    0.0000: real time    0.0000
 Broyden mixing: mesh for mixing (old mesh)
   NGX = 39   NGY = 41   NGZ =117
  (NGX  =160   NGY  =168   NGZ  =480)
  gives a total of 187083 points

 initial charge density was supplied:
 charge density of overlapping atoms calculated
 number of electron     324.0000000 magnetization 
 keeping initial charge density in first step


--------------------------------------------------------------------------------------------------------


 Maximum index for augmentation-charges         1186 (set IRDMAX)


--------------------------------------------------------------------------------------------------------


 First call to EWALD:  gamma=   0.123
 Maximum number of real-space cells 4x 4x 2
 Maximum number of reciprocal cells 2x 2x 5

    FEWALD:  cpu time    0.0031: real time    0.0031


--------------------------------------- Iteration      1(   1)  ---------------------------------------


    POTLOK:  cpu time    0.3123: real time    0.3131
    SETDIJ:  cpu time    0.0109: real time    0.0111
     EDDAV:  cpu time   52.4188: real time   52.5095
       DOS:  cpu time    0.0009: real time    0.0010
    --------------------------------------------
      LOOP:  cpu time   52.7429: real time   52.8347

 eigenvalue-minimisations  :  2000
 total energy-change (2. order) : 0.2108044E+04  (-0.1146053E+05)
 number of electron     324.0000000 magnetization 
 augmentation part      324.0000000 magnetization 

 Free energy of the ion-electron system (eV)
  ---------------------------------------------------
  alpha Z        PSCENC =       241.56384325
  Ewald energy   TEWEN  =     65855.56377806
  -Hartree energ DENC   =    -77517.86076728
  -exchange      EXHF   =         0.00000000
  -V(xc)+E(xc)   XCENC  =     -2102.35008225
  PAW double counting   =      7476.04436201    -4809.59211051
  entropy T*S    EENTRO =        -0.14603395
  eigenvalues    EBANDS =      1011.73850882
  atomic energy  EATOM  =     11953.08265402
  Solvation  Ediel_sol  =         0.00000000
  ---------------------------------------------------
  free energy    TOTEN  =      2108.04415219 eV

  energy without entropy =     2108.19018614  energy(sigma->0) =     2108.11716916


--------------------------------------------------------------------------------------------------------




--------------------------------------- Iteration      1(   2)  ---------------------------------------


     EDDAV:  cpu time   74.9868: real time   75.1400
       DOS:  cpu time    0.0006: real time    0.0006
    --------------------------------------------
      LOOP:  cpu time   74.9874: real time   75.1406

 eigenvalue-minimisations  :  3120
 total energy-change (2. order) :-0.2208332E+04  (-0.2148808E+04)
 number of electron     324.0000000 magnetization 
 augmentation part      324.0000000 magnetization 

 Free energy of the ion-electron system (eV)
  ---------------------------------------------------
  alpha Z        PSCENC =       241.56384325
  Ewald energy   TEWEN  =     65855.56377806
  -Hartree energ DENC   =    -77517.86076728
  -exchange      EXHF   =         0.00000000
  -V(xc)+E(xc)   XCENC  =     -2102.35008225
  PAW double counting   =      7476.04436201    -4809.59211051
  entropy T*S    EENTRO =        -0.00558019
  eigenvalues    EBANDS =     -1196.73438385
  atomic energy  EATOM  =     11953.08265402
  Solvation  Ediel_sol  =         0.00000000
  ---------------------------------------------------
  free energy    TOTEN  =      -100.28828672 eV

  energy without entropy =     -100.28270653  energy(sigma->0) =     -100.28549663


--------------------------------------------------------------------------------------------------------




--------------------------------------- Iteration      1(   3)  ---------------------------------------


     EDDAV:  cpu time   61.6845: real time   61.7901
       DOS:  cpu time    0.0004: real time    0.0004
    --------------------------------------------
      LOOP:  cpu time   61.6849: real time   61.7904

 eigenvalue-minimisations  :  2440
 total energy-change (2. order) :-0.2230304E+03  (-0.2198298E+03)
 number of electron     324.0000000 magnetization 
 augmentation part      324.0000000 magnetization 

 Free energy of the ion-electron system (eV)
  ---------------------------------------------------
  alpha Z        PSCENC =       241.56384325
  Ewald energy   TEWEN  =     65855.56377806
  -Hartree energ DENC   =    -77517.86076728
  -exchange      EXHF   =         0.00000000
  -V(xc)+E(xc)   XCENC  =     -2102.35008225
  PAW double counting   =      7476.04436201    -4809.59211051
  entropy T*S    EENTRO =        -0.00000000
  eigenvalues    EBANDS =     -1419.77031757
  atomic energy  EATOM  =     11953.08265402
  Solvation  Ediel_sol  =         0.00000000
  ---------------------------------------------------
  free energy    TOTEN  =      -323.31864025 eV

  energy without entropy =     -323.31864025  energy(sigma->0) =     -323.31864025


--------------------------------------------------------------------------------------------------------




--------------------------------------- Iteration      1(   4)  ---------------------------------------


     EDDAV:  cpu time   76.9720: real time   77.1338
       DOS:  cpu time    0.0004: real time    0.0004
    --------------------------------------------
      LOOP:  cpu time   76.9724: real time   77.1342

 eigenvalue-minimisations  :  3200
 total energy-change (2. order) :-0.1264868E+02  (-0.1257775E+02)
 number of electron     324.0000000 magnetization 
 augmentation part      324.0000000 magnetization 

 Free energy of the ion-electron system (eV)
  ---------------------------------------------------
  alpha Z        PSCENC =       241.56384325
  Ewald energy   TEWEN  =     65855.56377806
  -Hartree energ DENC   =    -77517.86076728
  -exchange      EXHF   =         0.00000000
  -V(xc)+E(xc)   XCENC  =     -2102.35008225
  PAW double counting   =      7476.04436201    -4809.59211051
  entropy T*S    EENTRO =        -0.00000000
  eigenvalues    EBANDS =     -1432.41899811
  atomic energy  EATOM  =     11953.08265402
  Solvation  Ediel_sol  =         0.00000000
  ---------------------------------------------------
  free energy    TOTEN  =      -335.96732079 eV

  energy without entropy =     -335.96732079  energy(sigma->0) =     -335.96732079


--------------------------------------------------------------------------------------------------------




--------------------------------------- Iteration      1(   5)  ---------------------------------------


     EDDAV:  cpu time   70.4115: real time   70.5590
       DOS:  cpu time    0.0004: real time    0.0004
    CHARGE:  cpu time    1.1834: real time    1.1871
    MIXING:  cpu time    0.0079: real time    0.0080
    --------------------------------------------
      LOOP:  cpu time   71.6032: real time   71.7545

 eigenvalue-minimisations  :  2880
 total energy-change (2. order) :-0.2879877E+00  (-0.2874672E+00)
 number of electron     324.0000004 magnetization 
 augmentation part      -25.7559437 magnetization 

 Broyden mixing:
  rms(total) = 0.19450E+01    rms(broyden)= 0.19450E+01
  rms(prec ) = 0.20563E+01
  weight for this iteration     100.00

 Free energy of the ion-electron system (eV)
  ---------------------------------------------------
  alpha Z        PSCENC =       241.56384325
  Ewald energy   TEWEN  =     65855.56377806
  -Hartree energ DENC   =    -77517.86076728
  -exchange      EXHF   =         0.00000000
  -V(xc)+E(xc)   XCENC  =     -2102.35008225
  PAW double counting   =      7476.04436201    -4809.59211051
  entropy T*S    EENTRO =        -0.00000000
  eigenvalues    EBANDS =     -1432.70698579
  atomic energy  EATOM  =     11953.08265402
  Solvation  Ediel_sol  =         0.00000000
  ---------------------------------------------------
  free energy    TOTEN  =      -336.25530847 eV

  energy without entropy =     -336.25530847  energy(sigma->0) =     -336.25530847


--------------------------------------------------------------------------------------------------------




--------------------------------------- Iteration      1(   6)  ---------------------------------------


    POTLOK:  cpu time    0.2789: real time    0.2791
    SETDIJ:  cpu time    0.0117: real time    0.0117
    EDDIAG:  cpu time    2.5979: real time    2.6008
  RMM-DIIS:  cpu time   45.3410: real time   45.4286
    ORTHCH:  cpu time    0.2168: real time    0.2171
       DOS:  cpu time    0.0005: real time    0.0005
    CHARGE:  cpu time    1.1974: real time    1.1986
    MIXING:  cpu time    0.0071: real time    0.0073
    --------------------------------------------
      LOOP:  cpu time   49.6513: real time   49.7437

 eigenvalue-minimisations  :  2143
 total energy-change (2. order) : 0.9095263E+01  (-0.6114483E+01)
 number of electron     324.0000005 magnetization 
 augmentation part      -19.7091677 magnetization 

 Broyden mixing:
  rms(total) = 0.72397E+00    rms(broyden)= 0.72396E+00
  rms(prec ) = 0.84723E+00
  weight for this iteration     100.00

 eigenvalues of (default mixing * dielectric matrix)
  average eigenvalue GAMMA=   1.0029
  1.0029

 Free energy of the ion-electron system (eV)
  ---------------------------------------------------
  alpha Z        PSCENC =       241.56384325
  Ewald energy   TEWEN  =     65855.56377806
  -Hartree energ DENC   =    -77491.48361841
  -exchange      EXHF   =         0.00000000
  -V(xc)+E(xc)   XCENC  =     -2095.94454333
  PAW double counting   =      7633.11777338    -4977.47224020
  entropy T*S    EENTRO =        -0.00000001
  eigenvalues    EBANDS =     -1445.58769271
  atomic energy  EATOM  =     11953.08265402
  Solvation  Ediel_sol  =         0.00000000
  ---------------------------------------------------
  free energy    TOTEN  =      -327.16004593 eV

  energy without entropy =     -327.16004592  energy(sigma->0) =     -327.16004592


--------------------------------------------------------------------------------------------------------




--------------------------------------- Iteration      1(   7)  ---------------------------------------


    POTLOK:  cpu time    0.2776: real time    0.2779
    SETDIJ:  cpu time    0.0108: real time    0.0108
    EDDIAG:  cpu time    2.6018: real time    2.6105
  RMM-DIIS:  cpu time   42.6724: real time   42.7609
    ORTHCH:  cpu time    0.2179: real time    0.2197
       DOS:  cpu time    0.0005: real time    0.0005
    CHARGE:  cpu time    1.1933: real time    1.1943
    MIXING:  cpu time    0.0072: real time    0.0072
    --------------------------------------------
      LOOP:  cpu time   46.9814: real time   47.0819

 eigenvalue-minimisations  :  2021
 total energy-change (2. order) : 0.3578234E+01  (-0.1184177E+01)
 number of electron     324.0000005 magnetization 
 augmentation part      -21.8472781 magnetization 

 Broyden mixing:
  rms(total) = 0.48460E+00    rms(broyden)= 0.48460E+00
  rms(prec ) = 0.51259E+00
  weight for this iteration     100.00

 eigenvalues of (default mixing * dielectric matrix)
  average eigenvalue GAMMA=   1.4476
  0.7103  2.1849

 Free energy of the ion-electron system (eV)
  ---------------------------------------------------
  alpha Z        PSCENC =       241.56384325
  Ewald energy   TEWEN  =     65855.56377806
  -Hartree energ DENC   =    -77581.56624989
  -exchange      EXHF   =         0.00000000
  -V(xc)+E(xc)   XCENC  =     -2094.98822187
  PAW double counting   =      7896.54600413    -5245.26148580
  entropy T*S    EENTRO =        -0.00000000
  eigenvalues    EBANDS =     -1348.52213414
  atomic energy  EATOM  =     11953.08265402
  Solvation  Ediel_sol  =         0.00000000
  ---------------------------------------------------
  free energy    TOTEN  =      -323.58181224 eV

  energy without entropy =     -323.58181224  energy(sigma->0) =     -323.58181224


--------------------------------------------------------------------------------------------------------




--------------------------------------- Iteration      1(   8)  ---------------------------------------


    POTLOK:  cpu time    0.2802: real time    0.2805
    SETDIJ:  cpu time    0.0110: real time    0.0110
    EDDIAG:  cpu time    2.5903: real time    2.5967
  RMM-DIIS:  cpu time   42.3811: real time   42.4600
    ORTHCH:  cpu time    0.2218: real time    0.2220
       DOS:  cpu time    0.0004: real time    0.0004
    CHARGE:  cpu time    1.1963: real time    1.1989
    MIXING:  cpu time    0.0075: real time    0.0075
    --------------------------------------------
      LOOP:  cpu time   46.6887: real time   46.7770

 eigenvalue-minimisations  :  2019
 total energy-change (2. order) : 0.4698798E+00  (-0.8408206E+00)
 number of electron     324.0000005 magnetization 
 augmentation part      -21.6575373 magnetization 

 Broyden mixing:
  rms(total) = 0.14242E+00    rms(broyden)= 0.14242E+00
  rms(prec ) = 0.16531E+00
  weight for this iteration     100.00

 eigenvalues of (default mixing * dielectric matrix)
  average eigenvalue GAMMA=   1.2492
  2.1142  0.8167  0.8167

 Free energy of the ion-electron system (eV)
  ---------------------------------------------------
  alpha Z        PSCENC =       241.56384325
  Ewald energy   TEWEN  =     65855.56377806
  -Hartree energ DENC   =    -77641.38168599
  -exchange      EXHF   =         0.00000000
  -V(xc)+E(xc)   XCENC  =     -2091.23199543
  PAW double counting   =      8176.62636548    -5531.35407545
  entropy T*S    EENTRO =        -0.00000000
  eigenvalues    EBANDS =     -1285.98081636
  atomic energy  EATOM  =     11953.08265402
  Solvation  Ediel_sol  =         0.00000000
  ---------------------------------------------------
  free energy    TOTEN  =      -323.11193241 eV

  energy without entropy =     -323.11193241  energy(sigma->0) =     -323.11193241


--------------------------------------------------------------------------------------------------------




--------------------------------------- Iteration      1(   9)  ---------------------------------------


    POTLOK:  cpu time    0.2791: real time    0.2794
    SETDIJ:  cpu time    0.0109: real time    0.0110
    EDDIAG:  cpu time    2.5940: real time    2.5969
  RMM-DIIS:  cpu time   48.2824: real time   48.3746
    ORTHCH:  cpu time    0.2151: real time    0.2176
       DOS:  cpu time    0.0005: real time    0.0005
    CHARGE:  cpu time    1.1949: real time    1.1961
    MIXING:  cpu time    0.0082: real time    0.0082
    --------------------------------------------
      LOOP:  cpu time   52.5851: real time   52.6843

 eigenvalue-minimisations  :  2235
 total energy-change (2. order) :-0.3226764E-01  (-0.1565378E+00)
 number of electron     324.0000005 magnetization 
 augmentation part      -21.1849808 magnetization 

 Broyden mixing:
  rms(total) = 0.10545E+00    rms(broyden)= 0.10544E+00
  rms(prec ) = 0.11669E+00
  weight for this iteration     100.00

 eigenvalues of (default mixing * dielectric matrix)
  average eigenvalue GAMMA=   1.1285
  1.9947  1.3630  0.7166  0.4397

 Free energy of the ion-electron system (eV)
  ---------------------------------------------------
  alpha Z        PSCENC =       241.56384325
  Ewald energy   TEWEN  =     65855.56377806
  -Hartree energ DENC   =    -77637.57346516
  -exchange      EXHF   =         0.00000000
  -V(xc)+E(xc)   XCENC  =     -2090.90630805
  PAW double counting   =      8174.65501242    -5529.53299763
  entropy T*S    EENTRO =        -0.00000000
  eigenvalues    EBANDS =     -1289.99671696
  atomic energy  EATOM  =     11953.08265402
  Solvation  Ediel_sol  =         0.00000000
  ---------------------------------------------------
  free energy    TOTEN  =      -323.14420005 eV

  energy without entropy =     -323.14420005  energy(sigma->0) =     -323.14420005


--------------------------------------------------------------------------------------------------------




--------------------------------------- Iteration      1(  10)  ---------------------------------------


    POTLOK:  cpu time    0.2811: real time    0.2814
    SETDIJ:  cpu time    0.0106: real time    0.0106
    EDDIAG:  cpu time    2.5870: real time    2.5939
  RMM-DIIS:  cpu time   51.0448: real time   51.1529
    ORTHCH:  cpu time    0.2180: real time    0.2185
       DOS:  cpu time    0.0005: real time    0.0005
    CHARGE:  cpu time    1.1930: real time    1.1967
    MIXING:  cpu time    0.0074: real time    0.0074
    --------------------------------------------
      LOOP:  cpu time   55.3425: real time   55.4620

 eigenvalue-minimisations  :  2376
 total energy-change (2. order) :-0.4964399E-02  (-0.4415125E-01)
 number of electron     324.0000005 magnetization 
 augmentation part      -21.0029017 magnetization 

 Broyden mixing:
  rms(total) = 0.78899E-01    rms(broyden)= 0.78898E-01
  rms(prec ) = 0.87681E-01
  weight for this iteration     100.00

 eigenvalues of (default mixing * dielectric matrix)
  average eigenvalue GAMMA=   1.2681
  2.3226  1.8302  0.9039  0.9039  0.3802

 Free energy of the ion-electron system (eV)
  ---------------------------------------------------
  alpha Z        PSCENC =       241.56384325
  Ewald energy   TEWEN  =     65855.56377806
  -Hartree energ DENC   =    -77639.67104317
  -exchange      EXHF   =         0.00000000
  -V(xc)+E(xc)   XCENC  =     -2090.72925742
  PAW double counting   =      8187.26072202    -5542.15729761
  entropy T*S    EENTRO =        -0.00000000
  eigenvalues    EBANDS =     -1288.06256361
  atomic energy  EATOM  =     11953.08265402
  Solvation  Ediel_sol  =         0.00000000
  ---------------------------------------------------
  free energy    TOTEN  =      -323.14916445 eV

  energy without entropy =     -323.14916445  energy(sigma->0) =     -323.14916445


--------------------------------------------------------------------------------------------------------




--------------------------------------- Iteration      1(  11)  ---------------------------------------


    POTLOK:  cpu time    0.2823: real time    0.2826
    SETDIJ:  cpu time    0.0102: real time    0.0102
    EDDIAG:  cpu time    2.6091: real time    2.6150
  RMM-DIIS:  cpu time   44.4936: real time   44.5911
    ORTHCH:  cpu time    0.2204: real time    0.2206
       DOS:  cpu time    0.0004: real time    0.0004
    CHARGE:  cpu time    1.1971: real time    1.2005
    MIXING:  cpu time    0.0082: real time    0.0082
    --------------------------------------------
      LOOP:  cpu time   48.8214: real time   48.9287

 eigenvalue-minimisations  :  2127
 total energy-change (2. order) : 0.1332766E-01  (-0.2125730E-01)
 number of electron     324.0000005 magnetization 
 augmentation part      -21.3406068 magnetization 

 Broyden mixing:
  rms(total) = 0.41917E-01    rms(broyden)= 0.41917E-01
  rms(prec ) = 0.47532E-01
  weight for this iteration     100.00

 eigenvalues of (default mixing * dielectric matrix)
  average eigenvalue GAMMA=   1.2029
  2.5274  1.6483  1.3156  0.6761  0.6761  0.3736

 Free energy of the ion-electron system (eV)
  ---------------------------------------------------
  alpha Z        PSCENC =       241.56384325
  Ewald energy   TEWEN  =     65855.56377806
  -Hartree energ DENC   =    -77658.70802044
  -exchange      EXHF   =         0.00000000
  -V(xc)+E(xc)   XCENC  =     -2090.47035672
  PAW double counting   =      8239.12641966    -5594.22945496
  entropy T*S    EENTRO =        -0.00000000
  eigenvalues    EBANDS =     -1269.06469967
  atomic energy  EATOM  =     11953.08265402
  Solvation  Ediel_sol  =         0.00000000
  ---------------------------------------------------
  free energy    TOTEN  =      -323.13583679 eV

  energy without entropy =     -323.13583679  energy(sigma->0) =     -323.13583679


--------------------------------------------------------------------------------------------------------




--------------------------------------- Iteration      1(  12)  ---------------------------------------


    POTLOK:  cpu time    0.2810: real time    0.2813
    SETDIJ:  cpu time    0.0106: real time    0.0106
    EDDIAG:  cpu time    2.6118: real time    2.6171
  RMM-DIIS:  cpu time   52.5806: real time   52.6864
    ORTHCH:  cpu time    0.2220: real time    0.2224
       DOS:  cpu time    0.0004: real time    0.0004
    CHARGE:  cpu time    1.1917: real time    1.1927
    MIXING:  cpu time    0.0086: real time    0.0086
    --------------------------------------------
      LOOP:  cpu time   56.9068: real time   57.0195

 eigenvalue-minimisations  :  2444
 total energy-change (2. order) : 0.9757077E-03  (-0.4510096E-02)
 number of electron     324.0000005 magnetization 
 augmentation part      -21.3376226 magnetization 

 Broyden mixing:
  rms(total) = 0.31625E-01    rms(broyden)= 0.31625E-01
  rms(prec ) = 0.36151E-01
  weight for this iteration     100.00

 eigenvalues of (default mixing * dielectric matrix)
  average eigenvalue GAMMA=   1.1803
  2.5206  1.7023  1.7023  0.7847  0.7847  0.4018  0.3654

 Free energy of the ion-electron system (eV)
  ---------------------------------------------------
  alpha Z        PSCENC =       241.56384325
  Ewald energy   TEWEN  =     65855.56377806
  -Hartree energ DENC   =    -77662.58734603
  -exchange      EXHF   =         0.00000000
  -V(xc)+E(xc)   XCENC  =     -2090.35693949
  PAW double counting   =      8243.97603020    -5599.12173144
  entropy T*S    EENTRO =        -0.00000000
  eigenvalues    EBANDS =     -1265.25514966
  atomic energy  EATOM  =     11953.08265402
  Solvation  Ediel_sol  =         0.00000000
  ---------------------------------------------------
  free energy    TOTEN  =      -323.13486108 eV

  energy without entropy =     -323.13486108  energy(sigma->0) =     -323.13486108


--------------------------------------------------------------------------------------------------------




--------------------------------------- Iteration      1(  13)  ---------------------------------------


    POTLOK:  cpu time    0.2815: real time    0.2818
    SETDIJ:  cpu time    0.0108: real time    0.0108
    EDDIAG:  cpu time    2.5922: real time    2.5967
  RMM-DIIS:  cpu time   50.1218: real time   50.2119
    ORTHCH:  cpu time    0.2151: real time    0.2153
       DOS:  cpu time    0.0004: real time    0.0004
    CHARGE:  cpu time    1.1974: real time    1.2010
    MIXING:  cpu time    0.0077: real time    0.0077
    --------------------------------------------
      LOOP:  cpu time   54.4270: real time   54.5256

 eigenvalue-minimisations  :  2344
 total energy-change (2. order) : 0.2882672E-02  (-0.2539951E-02)
 number of electron     324.0000005 magnetization 
 augmentation part      -21.2271004 magnetization 

 Broyden mixing:
  rms(total) = 0.93871E-02    rms(broyden)= 0.93870E-02
  rms(prec ) = 0.12419E-01
  weight for this iteration     100.00

 eigenvalues of (default mixing * dielectric matrix)
  average eigenvalue GAMMA=   1.1647
  2.4855  1.8919  1.8919  0.7909  0.7909  0.6986  0.3655  0.4024

 Free energy of the ion-electron system (eV)
  ---------------------------------------------------
  alpha Z        PSCENC =       241.56384325
  Ewald energy   TEWEN  =     65855.56377806
  -Hartree energ DENC   =    -77664.47955852
  -exchange      EXHF   =         0.00000000
  -V(xc)+E(xc)   XCENC  =     -2090.27501731
  PAW double counting   =      8239.68462543    -5594.82332945
  entropy T*S    EENTRO =        -0.00000000
  eigenvalues    EBANDS =     -1263.44897390
  atomic energy  EATOM  =     11953.08265402
  Solvation  Ediel_sol  =         0.00000000
  ---------------------------------------------------
  free energy    TOTEN  =      -323.13197841 eV

  energy without entropy =     -323.13197841  energy(sigma->0) =     -323.13197841


--------------------------------------------------------------------------------------------------------




--------------------------------------- Iteration      1(  14)  ---------------------------------------


    POTLOK:  cpu time    0.2821: real time    0.2823
    SETDIJ:  cpu time    0.0106: real time    0.0106
    EDDIAG:  cpu time    2.5836: real time    2.5888
  RMM-DIIS:  cpu time   58.0425: real time   58.1514
    ORTHCH:  cpu time    0.2196: real time    0.2199
       DOS:  cpu time    0.0004: real time    0.0004
    CHARGE:  cpu time    1.1990: real time    1.2002
    MIXING:  cpu time    0.0078: real time    0.0078
    --------------------------------------------
      LOOP:  cpu time   62.3457: real time   62.4614

 eigenvalue-minimisations  :  2745
 total energy-change (2. order) :-0.1118954E-02  (-0.1110247E-02)
 number of electron     324.0000005 magnetization 
 augmentation part      -21.1899359 magnetization 

 Broyden mixing:
  rms(total) = 0.11643E-01    rms(broyden)= 0.11643E-01
  rms(prec ) = 0.14376E-01
  weight for this iteration     100.00

 eigenvalues of (default mixing * dielectric matrix)
  average eigenvalue GAMMA=   1.2946
  3.1618  2.5622  1.5327  1.5327  0.7725  0.7725  0.5577  0.3956  0.3635

 Free energy of the ion-electron system (eV)
  ---------------------------------------------------
  alpha Z        PSCENC =       241.56384325
  Ewald energy   TEWEN  =     65855.56377806
  -Hartree energ DENC   =    -77668.34747932
  -exchange      EXHF   =         0.00000000
  -V(xc)+E(xc)   XCENC  =     -2090.24700226
  PAW double counting   =      8237.98240641    -5593.08088139
  entropy T*S    EENTRO =        -0.00000000
  eigenvalues    EBANDS =     -1259.65041615
  atomic energy  EATOM  =     11953.08265402
  Solvation  Ediel_sol  =         0.00000000
  ---------------------------------------------------
  free energy    TOTEN  =      -323.13309736 eV

  energy without entropy =     -323.13309736  energy(sigma->0) =     -323.13309736


--------------------------------------------------------------------------------------------------------




--------------------------------------- Iteration      1(  15)  ---------------------------------------


    POTLOK:  cpu time    0.2825: real time    0.2828
    SETDIJ:  cpu time    0.0107: real time    0.0107
    EDDIAG:  cpu time    2.5930: real time    2.6002
  RMM-DIIS:  cpu time   43.4055: real time   43.4984
    ORTHCH:  cpu time    0.2167: real time    0.2169
       DOS:  cpu time    0.0004: real time    0.0004
    CHARGE:  cpu time    1.1884: real time    1.1926
    MIXING:  cpu time    0.0080: real time    0.0080
    --------------------------------------------
      LOOP:  cpu time   47.7053: real time   47.8100

 eigenvalue-minimisations  :  2072
 total energy-change (2. order) :-0.5431416E-04  (-0.3118258E-03)
 number of electron     324.0000005 magnetization 
 augmentation part      -21.2271642 magnetization 

 Broyden mixing:
  rms(total) = 0.55800E-02    rms(broyden)= 0.55800E-02
  rms(prec ) = 0.69280E-02
  weight for this iteration     100.00

 eigenvalues of (default mixing * dielectric matrix)
  average eigenvalue GAMMA=   1.2571
  3.4434  2.5296  1.6051  1.6051  0.7683  0.7683  0.5917  0.5055  0.3928  0.3616

 Free energy of the ion-electron system (eV)
  ---------------------------------------------------
  alpha Z        PSCENC =       241.56384325
  Ewald energy   TEWEN  =     65855.56377806
  -Hartree energ DENC   =    -77676.79097376
  -exchange      EXHF   =         0.00000000
  -V(xc)+E(xc)   XCENC  =     -2090.22083875
  PAW double counting   =      8237.49656705    -5592.51625447
  entropy T*S    EENTRO =        -0.00000000
  eigenvalues    EBANDS =     -1251.31192709
  atomic energy  EATOM  =     11953.08265402
  Solvation  Ediel_sol  =         0.00000000
  ---------------------------------------------------
  free energy    TOTEN  =      -323.13315168 eV

  energy without entropy =     -323.13315168  energy(sigma->0) =     -323.13315168


--------------------------------------------------------------------------------------------------------




--------------------------------------- Iteration      1(  16)  ---------------------------------------


    POTLOK:  cpu time    0.2814: real time    0.2816
    SETDIJ:  cpu time    0.0109: real time    0.0109
    EDDIAG:  cpu time    2.5873: real time    2.5898
  RMM-DIIS:  cpu time   52.8488: real time   52.9529
    ORTHCH:  cpu time    0.2184: real time    0.2205
       DOS:  cpu time    0.0005: real time    0.0004
    CHARGE:  cpu time    1.1929: real time    1.1939
    MIXING:  cpu time    0.0083: real time    0.0083
    --------------------------------------------
      LOOP:  cpu time   57.1484: real time   57.2582

 eigenvalue-minimisations  :  2462
 total energy-change (2. order) :-0.6257648E-03  (-0.1274309E-03)
 number of electron     324.0000005 magnetization 
 augmentation part      -21.2368107 magnetization 

 Broyden mixing:
  rms(total) = 0.54451E-02    rms(broyden)= 0.54451E-02
  rms(prec ) = 0.63990E-02
  weight for this iteration     100.00

 eigenvalues of (default mixing * dielectric matrix)
  average eigenvalue GAMMA=   1.2722
  3.4090  2.4303  1.9168  1.9168  1.0722  0.7659  0.7659  0.5760  0.3618  0.3897
  0.3897

 Free energy of the ion-electron system (eV)
  ---------------------------------------------------
  alpha Z        PSCENC =       241.56384325
  Ewald energy   TEWEN  =     65855.56377806
  -Hartree energ DENC   =    -77678.50359457
  -exchange      EXHF   =         0.00000000
  -V(xc)+E(xc)   XCENC  =     -2090.21185044
  PAW double counting   =      8237.27312430    -5592.29227392
  entropy T*S    EENTRO =        -0.00000000
  eigenvalues    EBANDS =     -1249.60945816
  atomic energy  EATOM  =     11953.08265402
  Solvation  Ediel_sol  =         0.00000000
  ---------------------------------------------------
  free energy    TOTEN  =      -323.13377744 eV

  energy without entropy =     -323.13377744  energy(sigma->0) =     -323.13377744


--------------------------------------------------------------------------------------------------------




--------------------------------------- Iteration      1(  17)  ---------------------------------------


    POTLOK:  cpu time    0.2829: real time    0.2832
    SETDIJ:  cpu time    0.0108: real time    0.0108
    EDDIAG:  cpu time    2.5830: real time    2.5918
  RMM-DIIS:  cpu time   43.5532: real time   43.6557
    ORTHCH:  cpu time    0.2171: real time    0.2189
       DOS:  cpu time    0.0005: real time    0.0005
    CHARGE:  cpu time    1.1913: real time    1.1923
    MIXING:  cpu time    0.0083: real time    0.0083
    --------------------------------------------
      LOOP:  cpu time   47.8470: real time   47.9614

 eigenvalue-minimisations  :  2070
 total energy-change (2. order) :-0.1355821E-02  (-0.3417479E-04)
 number of electron     324.0000005 magnetization 
 augmentation part      -21.2271049 magnetization 

 Broyden mixing:
  rms(total) = 0.20602E-02    rms(broyden)= 0.20602E-02
  rms(prec ) = 0.29171E-02
  weight for this iteration     100.00

 eigenvalues of (default mixing * dielectric matrix)
  average eigenvalue GAMMA=   1.3579
  4.2114  2.4694  2.4694  1.5024  1.5024  0.8930  0.7738  0.7738  0.5595  0.3633
  0.3884  0.3884

 Free energy of the ion-electron system (eV)
  ---------------------------------------------------
  alpha Z        PSCENC =       241.56384325
  Ewald energy   TEWEN  =     65855.56377806
  -Hartree energ DENC   =    -77680.89700180
  -exchange      EXHF   =         0.00000000
  -V(xc)+E(xc)   XCENC  =     -2090.19203588
  PAW double counting   =      8236.34363982    -5591.38585353
  entropy T*S    EENTRO =        -0.00000000
  eigenvalues    EBANDS =     -1247.21415722
  atomic energy  EATOM  =     11953.08265402
  Solvation  Ediel_sol  =         0.00000000
  ---------------------------------------------------
  free energy    TOTEN  =      -323.13513326 eV

  energy without entropy =     -323.13513326  energy(sigma->0) =     -323.13513326


--------------------------------------------------------------------------------------------------------




--------------------------------------- Iteration      1(  18)  ---------------------------------------


    POTLOK:  cpu time    0.2831: real time    0.2835
    SETDIJ:  cpu time    0.0108: real time    0.0108
    EDDIAG:  cpu time    2.5856: real time    2.5918
  RMM-DIIS:  cpu time   44.0798: real time   44.1710
    ORTHCH:  cpu time    0.2146: real time    0.2148
       DOS:  cpu time    0.0005: real time    0.0005
    CHARGE:  cpu time    1.1973: real time    1.2009
    MIXING:  cpu time    0.0084: real time    0.0084
    --------------------------------------------
      LOOP:  cpu time   48.3803: real time   48.4817

 eigenvalue-minimisations  :  2097
 total energy-change (2. order) :-0.1376741E-02  (-0.4242467E-04)
 number of electron     324.0000005 magnetization 
 augmentation part      -21.2245256 magnetization 

 Broyden mixing:
  rms(total) = 0.20539E-02    rms(broyden)= 0.20539E-02
  rms(prec ) = 0.24660E-02
  weight for this iteration     100.00

 eigenvalues of (default mixing * dielectric matrix)
  average eigenvalue GAMMA=   1.3959
  5.1735  2.7165  2.3876  1.6197  1.6197  0.9766  0.7738  0.7738  0.5632  0.4005
  0.4005  0.3639  0.3769

 Free energy of the ion-electron system (eV)
  ---------------------------------------------------
  alpha Z        PSCENC =       241.56384325
  Ewald energy   TEWEN  =     65855.56377806
  -Hartree energ DENC   =    -77683.93235856
  -exchange      EXHF   =         0.00000000
  -V(xc)+E(xc)   XCENC  =     -2090.17820207
  PAW double counting   =      8235.54649802    -5590.59106132
  entropy T*S    EENTRO =        -0.00000000
  eigenvalues    EBANDS =     -1244.19166141
  atomic energy  EATOM  =     11953.08265402
  Solvation  Ediel_sol  =         0.00000000
  ---------------------------------------------------
  free energy    TOTEN  =      -323.13651000 eV

  energy without entropy =     -323.13651000  energy(sigma->0) =     -323.13651000


--------------------------------------------------------------------------------------------------------




--------------------------------------- Iteration      1(  19)  ---------------------------------------


    POTLOK:  cpu time    0.2842: real time    0.2856
    SETDIJ:  cpu time    0.0107: real time    0.0107
    EDDIAG:  cpu time    2.5834: real time    2.5881
  RMM-DIIS:  cpu time   47.9433: real time   48.0358
    ORTHCH:  cpu time    0.2191: real time    0.2193
       DOS:  cpu time    0.0004: real time    0.0004
    CHARGE:  cpu time    1.1946: real time    1.1958
    MIXING:  cpu time    0.0086: real time    0.0086
    --------------------------------------------
      LOOP:  cpu time   52.2444: real time   52.3443

 eigenvalue-minimisations  :  2265
 total energy-change (2. order) :-0.5604353E-03  (-0.1252833E-04)
 number of electron     324.0000005 magnetization 
 augmentation part      -21.2238045 magnetization 

 Broyden mixing:
  rms(total) = 0.12780E-02    rms(broyden)= 0.12780E-02
  rms(prec ) = 0.15423E-02
  weight for this iteration     100.00

 eigenvalues of (default mixing * dielectric matrix)
  average eigenvalue GAMMA=   1.5051
  6.3672  2.9383  2.1685  1.9518  1.9518  1.0312  1.0312  0.7747  0.7747  0.5595
  0.3965  0.3965  0.3628  0.3663

 Free energy of the ion-electron system (eV)
  ---------------------------------------------------
  alpha Z        PSCENC =       241.56384325
  Ewald energy   TEWEN  =     65855.56377806
  -Hartree energ DENC   =    -77685.06898365
  -exchange      EXHF   =         0.00000000
  -V(xc)+E(xc)   XCENC  =     -2090.17529361
  PAW double counting   =      8235.43147335    -5590.47327548
  entropy T*S    EENTRO =        -0.00000000
  eigenvalues    EBANDS =     -1243.06126639
  atomic energy  EATOM  =     11953.08265402
  Solvation  Ediel_sol  =         0.00000000
  ---------------------------------------------------
  free energy    TOTEN  =      -323.13707044 eV

  energy without entropy =     -323.13707044  energy(sigma->0) =     -323.13707044


--------------------------------------------------------------------------------------------------------




--------------------------------------- Iteration      1(  20)  ---------------------------------------


    POTLOK:  cpu time    0.2845: real time    0.2848
    SETDIJ:  cpu time    0.0107: real time    0.0107
    EDDIAG:  cpu time    2.5840: real time    2.5915
  RMM-DIIS:  cpu time   42.7482: real time   42.8397
    ORTHCH:  cpu time    0.2158: real time    0.2162
       DOS:  cpu time    0.0004: real time    0.0004
    CHARGE:  cpu time    1.2016: real time    1.2044
    MIXING:  cpu time    0.0091: real time    0.0091
    --------------------------------------------
      LOOP:  cpu time   47.0542: real time   47.1567

 eigenvalue-minimisations  :  2039
 total energy-change (2. order) :-0.6373902E-03  (-0.1101490E-04)
 number of electron     324.0000005 magnetization 
 augmentation part      -21.2228738 magnetization 

 Broyden mixing:
  rms(total) = 0.58618E-03    rms(broyden)= 0.58618E-03
  rms(prec ) = 0.72428E-03
  weight for this iteration     100.00

 eigenvalues of (default mixing * dielectric matrix)
  average eigenvalue GAMMA=   1.5185
  6.7944  3.1823  2.4178  1.8231  1.8231  1.1361  1.1361  0.7743  0.7743  0.8278
  0.5655  0.3967  0.3967  0.3635  0.3654

 Free energy of the ion-electron system (eV)
  ---------------------------------------------------
  alpha Z        PSCENC =       241.56384325
  Ewald energy   TEWEN  =     65855.56377806
  -Hartree energ DENC   =    -77685.59275333
  -exchange      EXHF   =         0.00000000
  -V(xc)+E(xc)   XCENC  =     -2090.17797870
  PAW double counting   =      8235.97759810    -5591.01489180
  entropy T*S    EENTRO =        -0.00000000
  eigenvalues    EBANDS =     -1242.53995745
  atomic energy  EATOM  =     11953.08265402
  Solvation  Ediel_sol  =         0.00000000
  ---------------------------------------------------
  free energy    TOTEN  =      -323.13770783 eV

  energy without entropy =     -323.13770783  energy(sigma->0) =     -323.13770783


--------------------------------------------------------------------------------------------------------




--------------------------------------- Iteration      1(  21)  ---------------------------------------


    POTLOK:  cpu time    0.2869: real time    0.2872
    SETDIJ:  cpu time    0.0108: real time    0.0108
    EDDIAG:  cpu time    2.5927: real time    2.5955
  RMM-DIIS:  cpu time   49.6797: real time   49.7683
    ORTHCH:  cpu time    0.2159: real time    0.2162
       DOS:  cpu time    0.0004: real time    0.0004
    CHARGE:  cpu time    1.1950: real time    1.1960
    MIXING:  cpu time    0.0098: real time    0.0098
    --------------------------------------------
      LOOP:  cpu time   53.9912: real time   54.0842

 eigenvalue-minimisations  :  2337
 total energy-change (2. order) :-0.1979983E-03  (-0.3129210E-05)
 number of electron     324.0000005 magnetization 
 augmentation part      -21.2227158 magnetization 

 Broyden mixing:
  rms(total) = 0.64578E-03    rms(broyden)= 0.64578E-03
  rms(prec ) = 0.76071E-03
  weight for this iteration     100.00

 eigenvalues of (default mixing * dielectric matrix)
  average eigenvalue GAMMA=   1.5197
  7.0959  3.3914  2.5016  1.8296  1.8296  1.5164  1.2009  0.9265  0.7714  0.7714
  0.5630  0.3637  0.3637  0.4013  0.4013  0.3881

 Free energy of the ion-electron system (eV)
  ---------------------------------------------------
  alpha Z        PSCENC =       241.56384325
  Ewald energy   TEWEN  =     65855.56377806
  -Hartree energ DENC   =    -77685.79897148
  -exchange      EXHF   =         0.00000000
  -V(xc)+E(xc)   XCENC  =     -2090.17772778
  PAW double counting   =      8236.10266023    -5591.14333222
  entropy T*S    EENTRO =        -0.00000000
  eigenvalues    EBANDS =     -1242.33080992
  atomic energy  EATOM  =     11953.08265402
  Solvation  Ediel_sol  =         0.00000000
  ---------------------------------------------------
  free energy    TOTEN  =      -323.13790583 eV

  energy without entropy =     -323.13790583  energy(sigma->0) =     -323.13790583


--------------------------------------------------------------------------------------------------------




--------------------------------------- Iteration      1(  22)  ---------------------------------------


    POTLOK:  cpu time    0.2861: real time    0.2864
    SETDIJ:  cpu time    0.0107: real time    0.0107
    EDDIAG:  cpu time    2.5881: real time    2.5931
  RMM-DIIS:  cpu time   40.4072: real time   40.4895
    ORTHCH:  cpu time    0.2191: real time    0.2193
       DOS:  cpu time    0.0004: real time    0.0004
    CHARGE:  cpu time    1.2002: real time    1.2025
    MIXING:  cpu time    0.0091: real time    0.0091
    --------------------------------------------
      LOOP:  cpu time   44.7210: real time   44.8111

 eigenvalue-minimisations  :  1841
 total energy-change (2. order) :-0.9874642E-04  (-0.8658669E-06)
 number of electron     324.0000005 magnetization 
 augmentation part      -21.2235200 magnetization 

 Broyden mixing:
  rms(total) = 0.39934E-03    rms(broyden)= 0.39934E-03
  rms(prec ) = 0.45071E-03
  weight for this iteration     100.00

 eigenvalues of (default mixing * dielectric matrix)
  average eigenvalue GAMMA=   1.6102
  7.6815  3.4428  2.6976  2.6976  1.7882  1.7882  1.1208  1.1208  1.0207  0.7718
  0.7718  0.5640  0.3633  0.3633  0.3977  0.3977  0.3848

[...]
 -0.000  -0.000   0.000   0.000  -0.000   0.011  -0.000   0.000
 -0.000   0.000   0.000   0.000  -0.000  -0.000   0.011   0.000
  0.000   0.000  -0.000  -0.000   0.000   0.000   0.000   0.011
 -0.000   0.000  -0.000  -0.000   0.001   0.000   0.000   0.000
 -0.000  -0.000  -0.014   0.000  -0.000  -0.000   0.000   0.000
 -0.009  -0.000  -0.000  -0.018   0.000  -0.000  -0.000   0.000
  0.000   0.000  -0.000  -0.001  -0.014   0.000   0.000  -0.000
  0.001   0.000   0.000   0.000  -0.000   0.000  -0.000   0.000
 total augmentation occupancy for first ion, spin component:           1
  1.936   0.196   0.003   0.200  -0.004   0.002   0.039   0.002   0.002   0.000   0.007   0.001  -0.002
  0.196   1.334  -0.008  -0.922   0.003  -0.007   0.360   0.000  -0.002   0.002  -0.024  -0.001   0.007
  0.003  -0.008   1.338  -0.003   0.006  -0.473  -0.006  -0.010   0.002  -0.116  -0.000  -0.002  -0.040
  0.200  -0.922  -0.003   1.492   0.010  -0.005  -0.539   0.001  -0.005  -0.001  -0.040  -0.000   0.004
 -0.004   0.003   0.006   0.010   1.329  -0.010   0.002  -0.462  -0.044  -0.002  -0.000  -0.113   0.001
  0.002  -0.007  -0.473  -0.005  -0.010   0.291   0.002  -0.000   0.001   0.038   0.001   0.001   0.009
  0.039   0.360  -0.006  -0.539   0.002   0.002   0.279  -0.001  -0.000   0.000   0.043   0.000  -0.000
  0.002   0.000  -0.010   0.001  -0.462  -0.000  -0.001   0.304   0.006   0.001  -0.001   0.035   0.002
  0.002  -0.002   0.002  -0.005  -0.044   0.001  -0.000   0.006   0.020   0.000  -0.000  -0.000   0.000
  0.000   0.002  -0.116  -0.001  -0.002   0.038   0.000   0.001   0.000   0.017   0.000   0.000  -0.001
  0.007  -0.024  -0.000  -0.040  -0.000   0.001   0.043  -0.001  -0.000   0.000   0.019   0.000  -0.000
  0.001  -0.001  -0.002  -0.000  -0.113   0.001   0.000   0.035  -0.000   0.000   0.000   0.018   0.000
 -0.002   0.007  -0.040   0.004   0.001   0.009  -0.000   0.002   0.000  -0.001  -0.000   0.000   0.021


------------------------ aborting loop because EDIFF is reached ----------------------------------------


    CHARGE:  cpu time    1.2106: real time    1.2116
    FORLOC:  cpu time    0.0783: real time    0.0784
    FORNL :  cpu time   14.7383: real time   14.7606
    STRESS:  cpu time   78.9797: real time   79.1368
    FORCOR:  cpu time    0.3289: real time    0.3292
    FORHAR:  cpu time    0.1330: real time    0.1331
    MIXING:  cpu time    0.0075: real time    0.0075
    OFIELD:  cpu time    0.0000: real time    0.0000

  Number of pair interactions contributing to vdW energy:  266716
  Edisp (eV):  -19.48220
    FORVDW:  cpu time    0.0292: real time    0.0293

  FORCE on cell =-STRESS in cart. coord.  units (eV):
  Direction    XX          YY          ZZ          XY          YZ          ZX
  --------------------------------------------------------------------------------------
  Alpha Z   241.56384   241.56384   241.56384
  Ewald   75181.43503 75064.38033-84240.06435   -29.94781    18.21625    46.21253
  Hartree 77476.23702 77442.64089-77086.99042    -8.40926     3.21843     4.92401
  E(xc)   -1351.04282 -1349.14380 -1367.77860     0.64400    -0.48941    -1.88873
  Local  ************************156279.62595    37.79882   -21.38129   -50.74356
  n-local  3535.63841  3541.35754  3718.03294     1.55974     3.67624    13.11169
  augment  -758.71763  -762.46233  -800.17995    -0.97451    -0.56386    -2.14982
  Kinetic  3304.85293  3268.83377  3232.17678   -11.90475     2.29829     8.26183
  Fock        0.00000     0.00000     0.00000     0.00000     0.00000     0.00000
  vdW       -11.89216   -12.13443    -9.62806     0.15387    -0.04568    -0.55307
  -------------------------------------------------------------------------------------
  Total       9.39597   -27.11402   -33.24186   -11.07990     4.92895    17.17487
  in kB       5.06713   -14.62224   -17.92691    -5.97525     2.65812     9.26219
  external pressure =       -9.16 kB  Pullay stress =        0.00 kB

  kinetic pressure (ideal gas correction) =      0.25 kB
  total pressure  =     -8.91 kB
  Total+kin.     5.306     -14.406     -17.645      -5.984       2.637       9.208

 VOLUME and BASIS-vectors are now :
 -----------------------------------------------------------------------------
  energy-cutoff  :      550.00
  volume of cell :     2970.92
      direct lattice vectors                 reciprocal lattice vectors
    10.353007220  0.000000000  0.000000000     0.096590293  0.050733652  0.002854519
    -4.909841258  9.347700906  0.000000000     0.000000000  0.106978177  0.000600182
    -0.816769960 -0.172229210 30.698646248     0.000000000  0.000000000  0.032574726

  length of vectors
    10.353007220 10.558695629 30.709992795     0.109140902  0.106979860  0.032574726


 FORCES acting on ions
    electron-ion (+dipol)            ewald-force                    non-local-force                 convergence-correction
 -----------------------------------------------------------------------------------------------
   -.595E+00 0.210E+01 -.850E+03   0.618E+00 -.217E+01 0.855E+03   0.253E+00 -.112E+00 -.548E+01   0.974E-03 0.229E-03 0.319E-03
   0.314E+01 -.273E+01 -.848E+03   -.324E+01 0.270E+01 0.853E+03   0.165E+00 0.268E-01 -.547E+01   0.178E-03 -.497E-03 0.668E-03
   0.247E+01 -.228E+01 -.846E+03   -.254E+01 0.225E+01 0.851E+03   0.636E-01 0.212E+00 -.570E+01   -.118E-02 0.265E-03 -.362E-03
   -.921E+00 -.103E+01 -.848E+03   0.879E+00 0.100E+01 0.853E+03   0.257E+00 0.133E+00 -.566E+01   -.149E-03 0.120E-03 -.494E-03
   -.177E+01 -.468E+01 -.849E+03   0.178E+01 0.464E+01 0.854E+03   0.298E+00 0.272E+00 -.561E+01   0.401E-03 0.173E-03 -.503E-03
   -.192E-01 -.160E+01 -.849E+03   0.605E-02 0.153E+01 0.854E+03   0.282E+00 0.274E-01 -.573E+01   0.900E-03 0.359E-03 0.227E-03
   0.242E+01 -.264E+01 -.848E+03   -.252E+01 0.265E+01 0.853E+03   0.186E+00 0.881E-01 -.549E+01   -.709E-03 0.762E-04 0.495E-03
   -.958E+00 -.788E+00 -.846E+03   0.937E+00 0.752E+00 0.851E+03   0.285E+00 -.793E-01 -.568E+01   -.570E-03 0.728E-03 -.873E-03
   -.624E+00 -.245E+00 -.849E+03   0.644E+00 0.152E+00 0.854E+03   0.220E+00 0.236E-01 -.571E+01   0.191E-03 -.129E-02 -.598E-03
   0.215E+01 -.311E+01 0.118E+03   -.225E+01 0.306E+01 -.112E+03   0.355E+00 0.163E+00 -.552E+01   0.991E-03 -.482E-03 0.139E-03
   0.569E-01 -.139E+01 0.122E+03   -.137E+00 0.132E+01 -.116E+03   0.367E+00 0.994E-01 -.605E+01   -.144E-02 0.173E-03 -.777E-03
   -.693E+00 0.132E+01 0.117E+03   0.607E+00 -.142E+01 -.112E+03   0.347E+00 0.127E+00 -.558E+01   0.519E-03 0.334E-03 -.938E-03
   -.112E+01 -.929E+00 0.118E+03   0.107E+01 0.811E+00 -.113E+03   0.455E+00 0.318E+00 -.568E+01   0.565E-03 0.548E-03 -.220E-02
   0.288E+01 -.205E+01 0.119E+03   -.295E+01 0.195E+01 -.114E+03   0.250E+00 0.195E+00 -.562E+01   0.173E-02 -.120E-02 -.551E-05
   0.264E+01 -.163E+01 0.118E+03   -.275E+01 0.153E+01 -.113E+03   0.218E+00 0.406E+00 -.576E+01   -.111E-02 0.119E-02 -.567E-03
   -.798E+00 -.444E+01 0.118E+03   0.702E+00 0.439E+01 -.113E+03   0.345E+00 0.427E+00 -.556E+01   -.154E-02 0.943E-03 -.116E-02
   -.309E+01 -.421E+01 0.118E+03   0.305E+01 0.409E+01 -.113E+03   0.370E+00 0.514E+00 -.572E+01   -.227E-03 -.143E-02 -.179E-02
   -.194E+01 -.149E+01 0.119E+03   0.195E+01 0.138E+01 -.114E+03   0.465E+00 0.295E+00 -.540E+01   0.624E-03 -.197E-03 0.874E-03
   0.387E+01 -.741E+00 -.116E+03   -.382E+01 0.749E+00 0.111E+03   -.458E+00 -.800E-02 0.557E+01   0.112E-02 0.621E-05 0.448E-03
   0.299E+01 -.417E+01 -.120E+03   -.288E+01 0.421E+01 0.115E+03   -.428E+00 0.109E+00 0.564E+01   0.129E-03 -.509E-03 0.440E-03
   0.243E+01 0.225E+01 -.121E+03   -.232E+01 -.231E+01 0.116E+03   -.518E+00 -.195E+00 0.572E+01   -.116E-02 0.538E-03 0.975E-03
   -.760E+00 -.750E+00 -.117E+03   0.888E+00 0.771E+00 0.112E+03   -.263E+00 -.423E-01 0.562E+01   -.327E-03 0.125E-03 0.944E-03
   0.262E+01 -.841E+00 -.116E+03   -.250E+01 0.835E+00 0.111E+03   -.528E+00 -.190E+00 0.575E+01   0.546E-03 0.216E-03 0.124E-02
   0.431E+01 -.206E+01 -.119E+03   -.426E+01 0.201E+01 0.114E+03   -.497E+00 0.903E-01 0.557E+01   0.875E-03 0.296E-03 0.810E-03
   0.130E+01 -.100E+01 -.119E+03   -.121E+01 0.988E+00 0.114E+03   -.246E+00 -.721E-01 0.539E+01   -.835E-03 0.861E-04 0.410E-03
   -.124E+00 -.179E+01 -.117E+03   0.269E+00 0.185E+01 0.112E+03   -.441E+00 -.153E+00 0.578E+01   -.697E-03 0.655E-03 0.148E-02
   -.307E+00 -.295E+01 -.119E+03   0.514E+00 0.298E+01 0.114E+03   -.411E+00 0.548E-01 0.537E+01   0.245E-03 -.142E-02 0.146E-02
   0.353E+01 -.352E+00 0.850E+03   -.339E+01 0.344E+00 -.856E+03   -.510E+00 -.229E+00 0.548E+01   0.101E-02 -.493E-03 -.992E-03
   0.196E+01 -.166E+01 0.845E+03   -.195E+01 0.167E+01 -.850E+03   -.133E+00 -.923E-01 0.587E+01   -.146E-02 0.228E-03 -.238E-03
   0.237E+01 0.122E+01 0.848E+03   -.228E+01 -.126E+01 -.853E+03   -.454E+00 -.783E-01 0.540E+01   0.553E-03 0.382E-03 0.216E-03
   0.199E+01 -.226E+01 0.847E+03   -.183E+01 0.224E+01 -.852E+03   -.541E+00 0.119E+00 0.569E+01   0.527E-03 0.452E-03 0.168E-02
   -.105E+01 -.265E+01 0.848E+03   0.119E+01 0.260E+01 -.853E+03   0.875E-02 0.442E-01 0.560E+01   0.148E-02 -.120E-02 -.640E-03
   0.114E+01 -.186E+01 0.847E+03   -.106E+01 0.182E+01 -.853E+03   -.255E+00 0.213E+00 0.559E+01   -.126E-02 0.121E-02 -.379E-03
   0.107E+01 -.161E+01 0.850E+03   -.971E+00 0.158E+01 -.855E+03   -.364E+00 0.499E-01 0.570E+01   -.148E-02 0.972E-03 0.306E-03
   0.208E+01 -.439E+01 0.847E+03   -.203E+01 0.432E+01 -.852E+03   -.406E+00 0.335E+00 0.552E+01   -.871E-04 -.141E-02 0.121E-02
   0.137E+01 0.400E+00 0.850E+03   -.121E+01 -.479E+00 -.855E+03   -.395E+00 0.206E-01 0.546E+01   0.600E-03 -.750E-04 -.153E-02
   -.353E+01 0.438E+01 -.484E+03   0.364E+01 -.444E+01 0.484E+03   -.247E-01 0.598E-01 -.164E+00   0.222E-03 -.753E-03 0.988E-03
   0.126E+01 -.859E+00 -.483E+03   -.128E+01 0.908E+00 0.483E+03   -.100E+00 0.157E+00 0.345E-02   -.903E-03 0.357E-03 0.101E-02
   -.514E+01 0.242E+01 -.483E+03   0.522E+01 -.246E+01 0.483E+03   0.349E+00 0.180E+00 -.153E-01   -.679E-03 -.201E-03 0.102E-02
   -.215E+01 0.582E+01 -.483E+03   0.217E+01 -.583E+01 0.483E+03   0.907E-01 -.103E+00 0.143E+00   0.126E-03 0.278E-03 0.940E-03
   -.288E+01 0.751E+00 -.483E+03   0.300E+01 -.820E+00 0.483E+03   0.820E-01 0.251E+00 -.406E+00   0.998E-03 0.154E-04 0.108E-02
   -.626E+00 0.232E+01 -.487E+03   0.724E+00 -.239E+01 0.487E+03   0.752E-01 0.896E-01 -.438E+00   -.245E-03 0.358E-03 0.922E-03
   0.366E+00 0.332E+01 -.483E+03   -.391E+00 -.335E+01 0.483E+03   -.161E+00 -.101E+00 0.326E-01   -.512E-03 0.216E-03 0.991E-03
   -.426E+01 0.176E+01 -.483E+03   0.427E+01 -.179E+01 0.483E+03   0.310E+00 0.965E-01 -.145E+00   -.572E-04 0.496E-03 0.102E-02
   -.137E+01 0.424E+01 -.484E+03   0.143E+01 -.437E+01 0.484E+03   0.834E-01 0.440E-01 0.267E+00   0.105E-02 -.406E-03 0.987E-03
   0.377E+01 -.660E+00 0.483E+03   -.382E+01 0.635E+00 -.483E+03   -.568E+00 0.340E+00 0.287E+00   0.247E-03 -.318E-03 -.944E-03
   -.111E+01 0.721E+01 0.483E+03   0.109E+01 -.730E+01 -.483E+03   -.582E-02 -.228E+00 0.274E+00   -.102E-02 0.776E-03 -.940E-03
   -.360E+01 0.244E+01 0.483E+03   0.364E+01 -.246E+01 -.483E+03   0.126E+00 0.451E-01 0.971E-02   0.165E-02 0.880E-04 -.921E-03
   -.171E+01 0.297E+01 0.481E+03   0.169E+01 -.309E+01 -.481E+03   -.247E+00 -.180E+00 -.150E+00   0.139E-02 -.141E-02 -.937E-03
   -.421E+00 0.458E+01 0.487E+03   0.431E+00 -.471E+01 -.487E+03   -.132E+00 -.162E+00 0.958E-01   -.103E-04 -.171E-03 -.862E-03
   -.969E+00 0.407E+01 0.482E+03   0.974E+00 -.417E+01 -.482E+03   -.242E-01 -.439E+00 -.180E-01   -.139E-02 0.165E-02 -.979E-03
   -.518E+01 0.139E+01 0.483E+03   0.521E+01 -.153E+01 -.483E+03   0.267E+00 -.101E+00 0.308E+00   -.181E-02 0.277E-05 -.900E-03
   -.336E+01 0.786E+01 0.483E+03   0.340E+01 -.798E+01 -.483E+03   0.543E-01 -.494E+00 0.156E+00   0.102E-02 -.108E-02 -.929E-03
   -.152E+01 0.351E+00 0.486E+03   0.158E+01 -.395E+00 -.486E+03   -.919E-01 0.977E-01 0.481E-02   -.457E-03 0.630E-03 -.898E-03
 -----------------------------------------------------------------------------------------------
   0.157E+01 -.267E+01 0.462E+00   0.371E-13 -.285E-13 -.216E-11   -.157E+01 0.266E+01 -.466E+00   -.437E-03 0.630E-03 0.939E-03
 
 
 POSITION                                       TOTAL-FORCE (eV/Angst)
 -----------------------------------------------------------------------------------
      1.21144      0.94632     20.79076         0.261984     -0.174225     -0.358210
     -0.41949      4.04163     20.77893         0.065775     -0.002073     -0.252304
     -2.06548      7.14950     20.77867        -0.011919      0.179616     -0.462805
      4.65871      0.92380     20.78447         0.202045      0.101873     -0.505366
      3.00301      4.02648     20.79601         0.289565      0.226309     -0.514007
      1.38353      7.18483     20.80183         0.257637     -0.030463     -0.549585
      8.13087      0.93253     20.77482         0.091025      0.101343     -0.285944
      6.45115      4.05306     20.77849         0.243415     -0.106502     -0.490742
      4.81605      7.16686     20.79321         0.219712     -0.062861     -0.524541
      5.07637      9.26576     13.60045         0.241461      0.106716     -0.316141
     -1.99267      3.03747     13.61581         0.269435      0.022662     -0.799091
     -3.63938      6.16885     13.60723         0.241033      0.033089     -0.369902
     -1.84128      9.26061     13.62120         0.380358      0.194968     -0.503584
      1.46736      3.04385     13.60747         0.162200      0.086003     -0.417032
     -0.17242      6.13541     13.61173         0.098024      0.293338     -0.502772
      1.63903      9.24058     13.60516         0.238091      0.365311     -0.376501
      4.91199      3.01653     13.63044         0.309967      0.380576     -0.578378
      3.24002      6.15119     13.58884         0.451584      0.189324     -0.222261
      1.30533      0.94387     17.07392        -0.393270      0.014074      0.472502
     -0.32949      4.04167     17.10227        -0.303726      0.150610      0.428330
     -1.96220      7.19247     17.10161        -0.391945     -0.239692      0.464423
      4.73542      0.94967     17.07674        -0.129542     -0.010743      0.489110
      3.11584      4.07985     17.05649        -0.399571     -0.175278      0.671472
      1.47276      7.17605     17.09463        -0.423798      0.059601      0.388824
      8.19792      0.95124     17.11664        -0.155811     -0.074410      0.138144
      6.55876      4.06286     17.07064        -0.283322     -0.076642      0.611124
      4.90307      7.17013     17.11120        -0.204098      0.095933      0.166788
     -0.24844     -0.03351      9.90227        -0.359478     -0.229275      0.338870
      8.43452      3.06709      9.90694        -0.118000     -0.073676      0.627466
     -3.54067      6.20674      9.92503        -0.354543     -0.103446      0.215607
      3.19674     -0.04794      9.91259        -0.375539      0.110308      0.542157
      1.51863      3.06116      9.91461         0.148133      0.002393      0.394558
     -0.10811      6.17694      9.91849        -0.171339      0.176089      0.373145
      1.72620      9.29088      9.89295        -0.264339      0.023673      0.545922
      4.99343      3.05115      9.92203        -0.349418      0.266974      0.356279
      3.35047      6.18972      9.91401        -0.235856     -0.047512      0.262895
     -5.39256      9.22705     18.95361         0.073272     -0.012518     -0.192971
     -2.12878      2.99111     18.93744        -0.132550      0.199577      0.060591
      6.54954      6.09930     18.93809         0.460016      0.129733      0.049644
      2.95171     -0.10452     18.92650         0.138003     -0.148828      0.263274
      1.31718      2.97617     18.95971         0.183415      0.185717     -0.483741
     -0.31661      6.10705     18.97462         0.148106      0.014118     -0.516153
      6.41872     -0.10509     18.93601        -0.189744     -0.143890      0.044538
      4.73889      2.99170     18.93829         0.362591      0.054444     -0.123525
      3.11254      6.10997     18.92656         0.149687     -0.097384      0.434658
     -0.20219      1.97353     11.74314        -0.656568      0.338209      0.363995
     -1.88409      5.13726     11.74872        -0.000257     -0.338680      0.350606
     -3.52738      8.23407     11.76250         0.198841      0.008140      0.007799
      3.22294      2.01794     11.78066        -0.257852     -0.306090     -0.248631
      1.56897      5.12420     11.74974        -0.121153     -0.293368      0.022976
     -0.06387      8.25704     11.76691        -0.017991     -0.549435     -0.013980
      6.64367      1.99647     11.74552         0.344585     -0.228033      0.409366
      5.01490      5.15076     11.75621         0.115510     -0.649990      0.155868
      3.38873      8.23049     11.75101        -0.045096      0.060787     -0.045049
 -----------------------------------------------------------------------------------
    total drift:                               -0.001258     -0.003504     -0.002287


--------------------------------------------------------------------------------------------------------



  FREE ENERGIE OF THE ION-ELECTRON SYSTEM (eV)
  ---------------------------------------------------
  free  energy   TOTEN  =      -342.61585261 eV

  energy  without entropy=     -342.61585261  energy(sigma->0) =     -342.61585261
 
 d Force =-0.2628224E-02[-0.513E-02,-0.122E-03]  d Energy =-0.2550704E-02-0.775E-04
 d Force =-0.2505429E+02[-0.251E+02,-0.250E+02]  d Ewald  =-0.2505428E+02-0.161E-05


--------------------------------------------------------------------------------------------------------


    POTLOK:  cpu time    0.3004: real time    0.3007


--------------------------------------------------------------------------------------------------------


           RANDOM_SEED =         152260328              324                0
   IONSTEP:  cpu time    0.0001: real time    0.0001

  ENERGY OF THE ELECTRON-ION-THERMOSTAT SYSTEM (eV)
  ---------------------------------------------------
% ion-electron   TOTEN  =      -342.615853  see above
  kinetic energy EKIN   =         0.681527
  kin. lattice  EKIN_LAT=         0.000000  (temperature   99.48 K)
  nose potential ES     =         0.007553
  nose kinetic   EPS    =         0.000058
  ---------------------------------------------------
  total energy   ETOTAL =      -341.926715 eV

  maximum distance moved by ions :      0.44E-03


 mean value of Nose-termostat <S>:     1.007 mean value of <T> :    99.481
 mean temperature <T/S>/<1/S>  :    99.481

    WAVPRE:  cpu time    0.1042: real time    0.1074
    FEWALD:  cpu time    0.0011: real time    0.0011
    ORTHCH:  cpu time    8.8406: real time    8.8529
    POTLOK:  cpu time    0.2974: real time    0.2977
    EDDIAG:  cpu time    2.5860: real time    2.5918
     LOOP+:  cpu time  512.2450: real time  513.2758
    4ORBIT:  cpu time    0.0000: real time    0.0000

 total amount of memory used by VASP MPI-rank0   366741. kBytes
=======================================================================

   base      :      30000. kBytes
   nonl-proj :     200632. kBytes
   fftplans  :      17372. kBytes
   grid      :      82746. kBytes
   one-center:        839. kBytes
   wavefun   :      35152. kBytes
 
  
  
 General timing and accounting informations for this job:
 ========================================================
  
                  Total CPU time used (sec):     6162.568
                            User time (sec):     6150.048
                          System time (sec):       12.520
                         Elapsed time (sec):     6174.944
  
                   Maximum memory used (kb):      814592.
                   Average memory used (kb):           0.
  
                          Minor page faults:       434786
                          Major page faults:            0
                 Voluntary context switches:          850
