 vasp.6.1.1 19Jun20 (build Dec 21 2021 08:45:49) complex                        
  
 executed on             LinuxIFC date 2023.10.05  08:25:57
 running on   40 total cores
 distrk:  each k-point on   40 cores,    1 groups
 distr:  one band on NCORE=   1 cores,   40 groups


--------------------------------------------------------------------------------------------------------


 INCAR:
 POTCAR:   PAW_PBE Te 08Apr2002                   
 POTCAR:   PAW_PBE Mo 08Apr2002                   
 -----------------------------------------------------------------------------
|                                                                             |
|           W    W    AA    RRRRR   N    N  II  N    N   GGGG   !!!           |
|           W    W   A  A   R    R  NN   N  II  NN   N  G    G  !!!           |
|           W    W  A    A  R    R  N N  N  II  N N  N  G       !!!           |
|           W WW W  AAAAAA  RRRRR   N  N N  II  N  N N  G  GGG   !            |
|           WW  WW  A    A  R   R   N   NN  II  N   NN  G    G                |
|           W    W  A    A  R    R  N    N  II  N    N   GGGG   !!!           |
|                                                                             |
|     For optimal performance we recommend to set                             |
|       NCORE = 4 - approx SQRT(number of cores).                             |
|     NCORE specifies how many cores store one orbital (NPAR=cpu/NCORE).      |
|     This setting can greatly improve the performance of VASP for DFT.       |
|     The default, NCORE=1 might be grossly inefficient on modern             |
|     multi-core architectures or massively parallel machines. Do your        |
|     own testing!!!!                                                         |
|     Unfortunately you need to use the default for GW and RPA                |
|     calculations (for HF NCORE is supported but not extensively tested      |
|     yet).                                                                   |
|                                                                             |
 -----------------------------------------------------------------------------

 POTCAR:   PAW_PBE Te 08Apr2002                   
   VRHFIN =Te: s2p4                                                                                 
   LEXCH  = PE                                                                                      
   EATOM  =   223.2721 eV,   16.4100 Ry                                                             
                                                                                                    
   TITEL  = PAW_PBE Te 08Apr2002                                                                    
   LULTRA =        F    use ultrasoft PP ?                                                          
   IUNSCR =        1    unscreen: 0-lin 1-nonlin 2-no                                               
   RPACOR =    2.200    partial core radius                                                         
   POMASS =  127.600; ZVAL   =    6.000    mass and valenz                                          
   RCORE  =    2.300    outmost cutoff radius                                                       
   RWIGS  =    2.900; RWIGS  =    1.535    wigner-seitz radius (au A)                               
   ENMAX  =  174.982; ENMIN  =  131.236 eV                                                          
   ICORE  =        3    local potential                                                             
   LCOR   =        T    correct aug charges                                                         
   LPAW   =        T    paw PP                                                                      
   EAUG   =  368.792                                                                                
   DEXC   =    -.169                                                                                
   RMAX   =    3.486    core radius for proj-oper                                                   
   RAUG   =    1.300    factor for augmentation sphere                                              
   RDEP   =    2.397    radius for radial grids                                                     
   QCUT   =   -3.586; QGAM   =    7.172    optimization parameters                                  
                                                                                                    
   Description                                                                                      
     l     E      TYP  RCUT    TYP  RCUT                                                            
     0   .000     23  2.300                                                                         
     0   .000     23  2.300                                                                         
     1   .000     23  2.300                                                                         
     1   .000     23  2.300                                                                         
     2   .000     23  2.300                                                                         
     3  -.100     23  2.300                                                                         
  local pseudopotential read in
  partial core-charges read in
  atomic valenz-charges read in
  non local Contribution for L=           0  read in
    real space projection operators read in
  non local Contribution for L=           0  read in
    real space projection operators read in
  non local Contribution for L=           1  read in
    real space projection operators read in
  non local Contribution for L=           1  read in
    real space projection operators read in
  non local Contribution for L=           2  read in
    real space projection operators read in
    PAW grid and wavefunctions read in
 
   number of l-projection  operators is LMAX  =           5
   number of lm-projection operators is LMMAX =          13
 
 POTCAR:   PAW_PBE Mo 08Apr2002                   
   VRHFIN =Mo: 4p5s4d                                                                               
   LEXCH  = PE                                                                                      
   EATOM  =   217.5180 eV,   15.9871 Ry                                                             
                                                                                                    
   TITEL  = PAW_PBE Mo 08Apr2002                                                                    
   LULTRA =        F    use ultrasoft PP ?                                                          
   IUNSCR =        1    unscreen: 0-lin 1-nonlin 2-no                                               
   RPACOR =    2.200    partial core radius                                                         
   POMASS =   95.940; ZVAL   =    6.000    mass and valenz                                          
   RCORE  =    2.750    outmost cutoff radius                                                       
   RWIGS  =    2.750; RWIGS  =    1.455    wigner-seitz radius (au A)                               
   ENMAX  =  224.584; ENMIN  =  168.438 eV                                                          
   RCLOC  =    2.111    cutoff for local pot                                                        
   LCOR   =        T    correct aug charges                                                         
   LPAW   =        T    paw PP                                                                      
   EAUG   =  345.278                                                                                
   DEXC   =    -.088                                                                                
   RMAX   =    3.077    core radius for proj-oper                                                   
   RAUG   =    1.300    factor for augmentation sphere                                              
   RDEP   =    2.815    radius for radial grids                                                     
   QCUT   =   -4.063; QGAM   =    8.126    optimization parameters                                  
                                                                                                    
   Description                                                                                      
     l     E      TYP  RCUT    TYP  RCUT                                                            
     2   .000     23  2.500                                                                         
     2   .000     23  2.500                                                                         
     0   .000     23  2.600                                                                         
     0  1.000     23  2.600                                                                         
     1   .400     23  2.750                                                                         
     1  2.000     23  2.750                                                                         
     3   .000      7   .000                                                                         
  local pseudopotential read in
  partial core-charges read in
  atomic valenz-charges read in
  non local Contribution for L=           2  read in
    real space projection operators read in
  non local Contribution for L=           2  read in
    real space projection operators read in
  non local Contribution for L=           0  read in
    real space projection operators read in
  non local Contribution for L=           0  read in
    real space projection operators read in
  non local Contribution for L=           1  read in
    real space projection operators read in
  non local Contribution for L=           1  read in
    real space projection operators read in
    PAW grid and wavefunctions read in
 
   number of l-projection  operators is LMAX  =           6
   number of lm-projection operators is LMMAX =          18
 
 -----------------------------------------------------------------------------
|                                                                             |
|               ----> ADVICE to this user running VASP <----                  |
|                                                                             |
|     You have a (more or less) 'large supercell' and for larger cells it     |
|     might be more efficient to use real-space projection operators.         |
|     Therefore, try LREAL= Auto in the INCAR file.                           |
|     Mind: If you want to do very accurate calculations, keep the            |
|     reciprocal projection scheme (i.e. LREAL=.FALSE.).                      |
|                                                                             |
 -----------------------------------------------------------------------------

 PAW_PBE Te 08Apr2002                   :
 energy of atom  1       EATOM= -223.2721
 kinetic energy error for atom=    0.0006 (will be added to EATOM!!)
 PAW_PBE Mo 08Apr2002                   :
 energy of atom  2       EATOM= -217.5180
 kinetic energy error for atom=    0.0009 (will be added to EATOM!!)
 
 
 POSCAR: Te Mo
  positions in cartesian coordinates
  No initial velocities read in
 exchange correlation table for  LEXCH =        8
   RHO(1)=    0.500       N(1)  =     2000
   RHO(2)=  100.500       N(2)  =     4000
 


--------------------------------------------------------------------------------------------------------


 ion  position               nearest neighbor table
   1  0.111  0.222  0.313-  38 2.70  41 2.71  37 2.74   3 3.44   2 3.45   7 3.47   4 3.47   5 3.50
                             9 3.51  19 3.68
   2  0.111  0.555  0.313-  42 2.71  39 2.71  38 2.73   1 3.45   3 3.45   8 3.47   5 3.47   7 3.50
                             6 3.51
   3  0.111  0.889  0.313-  37 2.71  40 2.72  39 2.74   1 3.44   2 3.45   9 3.48   6 3.48   8 3.49
                             4 3.50
   4  0.444  0.222  0.313-  41 2.71  44 2.71  40 2.74   6 3.44   5 3.45   1 3.47   7 3.48   3 3.50
                             8 3.51  22 3.68
   5  0.444  0.555  0.313-  42 2.71  45 2.72  41 2.74   4 3.45   6 3.45   2 3.47   8 3.47   9 3.49
                             1 3.50
   6  0.445  0.889  0.313-  43 2.71  40 2.71  42 2.75   4 3.44   5 3.45   9 3.47   3 3.48   7 3.49
                             2 3.51
   7  0.778  0.222  0.313-  38 2.72  44 2.72  43 2.74   9 3.45   8 3.46   1 3.47   4 3.48   6 3.49
                             2 3.50
   8  0.778  0.556  0.313-  45 2.71  39 2.72  44 2.75   9 3.44   7 3.46   2 3.47   5 3.47   3 3.49
                             4 3.51
   9  0.777  0.888  0.313-  43 2.70  37 2.71  45 2.74   8 3.44   7 3.45   6 3.47   3 3.48   5 3.49
                             1 3.51  27 3.68
  10  0.111  0.167  0.566-  52 2.71  46 2.72  54 2.74  12 3.45  11 3.45  16 3.47  13 3.47  18 3.50
                            14 3.50
  11  0.111  0.501  0.566-  53 2.70  47 2.71  52 2.74  12 3.44  10 3.45  17 3.47  14 3.47  15 3.49
                            16 3.50  29 3.68
  12  0.111  0.833  0.566-  54 2.71  48 2.72  53 2.74  11 3.44  10 3.45  18 3.47  15 3.48  17 3.50
                            13 3.50
  13  0.444  0.167  0.566-  46 2.71  49 2.72  48 2.75  14 3.44  15 3.45  10 3.47  16 3.48  12 3.50
                            17 3.50
  14  0.444  0.500  0.566-  47 2.71  50 2.72  46 2.75  13 3.44  15 3.45  11 3.47  17 3.48  10 3.50
                            18 3.50  32 3.68
  15  0.444  0.833  0.566-  51 2.71  48 2.72  47 2.74  14 3.45  13 3.45  18 3.47  12 3.48  11 3.49
                            16 3.50  33 3.68
  16  0.778  0.167  0.566-  49 2.71  52 2.72  51 2.75  18 3.45  17 3.45  10 3.47  13 3.48  15 3.50
                            11 3.50
  17  0.778  0.500  0.566-  50 2.71  53 2.72  49 2.74  16 3.45  18 3.45  11 3.47  14 3.48  12 3.50
                            13 3.50
  18  0.778  0.833  0.566-  51 2.71  54 2.72  50 2.75  16 3.45  17 3.45  12 3.47  15 3.47  10 3.50
                            14 3.50
  19  0.111  0.222  0.434-  37 2.70  38 2.71  41 2.75  21 3.44  20 3.45  22 3.47  25 3.48  27 3.50
                            23 3.51   1 3.68
  20  0.112  0.556  0.434-  39 2.71  38 2.72  42 2.75  21 3.45  19 3.45  23 3.47  26 3.47  24 3.49
                            25 3.51
  21  0.112  0.890  0.434-  39 2.70  37 2.71  40 2.75  19 3.44  20 3.45  24 3.47  27 3.48  22 3.49
                            26 3.51
  22  0.445  0.222  0.434-  40 2.70  41 2.72  44 2.75  24 3.45  23 3.46  25 3.47  19 3.47  21 3.49
                            26 3.50   4 3.68
  23  0.445  0.557  0.434-  42 2.71  41 2.71  45 2.75  24 3.43  22 3.46  20 3.47  26 3.48  27 3.49
                            19 3.51
  24  0.444  0.888  0.434-  42 2.70  40 2.71  43 2.76  23 3.43  22 3.45  21 3.47  27 3.47  20 3.49
                            25 3.51
  25  0.778  0.222  0.434-  43 2.71  44 2.71  38 2.76  26 3.45  27 3.45  22 3.47  19 3.48  24 3.51
                            20 3.51
  26  0.778  0.556  0.434-  44 2.71  45 2.71  39 2.76  25 3.45  27 3.45  20 3.47  23 3.48  22 3.50
                            21 3.51
  27  0.777  0.889  0.434-  45 2.70  43 2.72  37 2.76  26 3.45  25 3.45  24 3.47  21 3.48  23 3.49
                            19 3.50   9 3.68
  28  0.112  0.168  0.687-  54 2.71  52 2.71  46 2.75  29 3.45  30 3.45  31 3.47  34 3.48  32 3.49
                            36 3.51
  29  0.111  0.500  0.687-  52 2.70  53 2.71  47 2.76  28 3.45  30 3.45  35 3.47  32 3.47  34 3.50
                            33 3.50  11 3.68
  30  0.110  0.833  0.687-  53 2.71  54 2.71  48 2.76  29 3.45  28 3.45  36 3.47  33 3.48  35 3.49
                            31 3.50
  31  0.444  0.166  0.687-  48 2.70  46 2.71  49 2.76  33 3.45  32 3.45  34 3.47  28 3.47  30 3.50
                            35 3.51
  32  0.444  0.500  0.687-  46 2.70  47 2.71  50 2.75  33 3.45  31 3.45  29 3.47  35 3.48  28 3.49
                            36 3.50  14 3.68
  33  0.445  0.833  0.687-  47 2.70  48 2.72  51 2.74  32 3.45  31 3.45  36 3.47  30 3.48  34 3.50
                            29 3.50  15 3.68
  34  0.778  0.167  0.687-  51 2.71  49 2.71  52 2.76  35 3.45  36 3.45  31 3.47  28 3.48  33 3.50
                            29 3.50
  35  0.778  0.501  0.687-  50 2.71  49 2.71  53 2.75  36 3.44  34 3.45  29 3.47  32 3.48  30 3.49
                            31 3.51
  36  0.778  0.833  0.687-  50 2.71  51 2.71  54 2.76  35 3.44  34 3.45  30 3.47  33 3.47  32 3.50
                            28 3.51
  37  1.000  1.000  0.373-  19 2.70   3 2.71  21 2.71   9 2.71   1 2.74  27 2.76  38 3.44  39 3.44
                            43 3.47  40 3.48
  38  0.001  0.333  0.373-   1 2.70  19 2.71  20 2.72   7 2.72   2 2.73  25 2.76  37 3.44  39 3.45
                            41 3.47  44 3.48
  39  0.000  0.667  0.373-  21 2.70  20 2.71   2 2.71   8 2.72   3 2.74  26 2.76  37 3.44  38 3.45
                            45 3.47  42 3.47
  40  0.334  0.001  0.373-  22 2.70  24 2.71   6 2.71   3 2.72   4 2.74  21 2.75  41 3.44  42 3.45
                            43 3.47  37 3.48
  41  0.333  0.333  0.373-   4 2.71   1 2.71  23 2.71  22 2.72   5 2.74  19 2.75  40 3.44  42 3.45
                            38 3.47  44 3.47
  42  0.333  0.666  0.373-  24 2.70  23 2.71   2 2.71   5 2.71   6 2.75  20 2.75  41 3.45  40 3.45
                            39 3.47  45 3.48
  43  0.667  1.000  0.373-   9 2.70  25 2.71   6 2.71  27 2.72   7 2.74  24 2.76  45 3.45  44 3.45
                            37 3.47  40 3.47
  44  0.667  0.333  0.373-  25 2.71  26 2.71   4 2.71   7 2.72  22 2.75   8 2.75  45 3.44  43 3.45
                            41 3.47  38 3.48
  45  0.667  0.666  0.373-  27 2.70  26 2.71   8 2.71   5 2.72   9 2.74  23 2.75  44 3.44  43 3.45
                            39 3.47  42 3.48
  46  0.333  0.277  0.627-  32 2.70  31 2.71  13 2.71  10 2.72  28 2.75  14 2.75  48 3.44  47 3.45
                            52 3.47  49 3.47
  47  0.333  0.611  0.627-  33 2.70  32 2.71  11 2.71  14 2.71  15 2.74  29 2.76  48 3.45  46 3.45
                            50 3.47  53 3.47
  48  0.333  0.944  0.627-  31 2.70  33 2.72  15 2.72  12 2.72  13 2.75  30 2.76  46 3.44  47 3.45
                            54 3.47  51 3.48
  49  0.667  0.278  0.627-  16 2.71  35 2.71  34 2.71  13 2.72  17 2.74  31 2.76  51 3.45  50 3.45
                            46 3.47  52 3.48
  50  0.667  0.611  0.627-  36 2.71  35 2.71  17 2.71  14 2.72  18 2.75  32 2.75  51 3.45  49 3.45
                            47 3.47  53 3.47
  51  0.666  0.944  0.627-  34 2.71  36 2.71  18 2.71  15 2.71  33 2.74  16 2.75  50 3.45  49 3.45
                            48 3.48  54 3.48
  52  0.001  0.278  0.627-  29 2.70  10 2.71  28 2.71  16 2.72  11 2.74  34 2.76  53 3.44  54 3.45
                            46 3.47  49 3.48
  53  1.000  0.611  0.627-  11 2.70  30 2.71  29 2.71  17 2.72  12 2.74  35 2.75  52 3.44  54 3.45
                            47 3.47  50 3.47
  54  0.000  0.945  0.627-  12 2.71  30 2.71  28 2.71  18 2.72  10 2.74  36 2.76  52 3.45  53 3.45
                            48 3.47  51 3.48
 

IMPORTANT INFORMATION: All symmetrisations will be switched off!
NOSYMM: (Re-)initialisation of all symmetry stuff for point group C_1.


----------------------------------------------------------------------------------------

                                     Primitive cell                                     

  volume of cell :    2866.7776

  direct lattice vectors                    reciprocal lattice vectors
    10.419205839  0.000000000  0.000000000     0.095976605  0.053726517  0.001524174
    -5.052371309  9.025514304  0.000000000     0.000000000  0.110797010  0.001586433
    -0.239778482 -0.436496844 30.485086143     0.000000000  0.000000000  0.032802925

  length of vectors
    10.419205839 10.343421305 30.489153815     0.110001683  0.110808367  0.032802925

  position of ions in fractional coordinates (direct lattice)
     0.110988318  0.222008202  0.312765533
     0.111013440  0.555378816  0.312900886
     0.111137739  0.889087665  0.312745455
     0.444221035  0.221762414  0.312841557
     0.444278145  0.555288098  0.312721586
     0.444989498  0.889272294  0.312696774
     0.777817095  0.221681198  0.312557807
     0.778244636  0.556463667  0.312609412
     0.777076449  0.888143863  0.312898158
     0.110795039  0.166740987  0.566364830
     0.111441131  0.500830034  0.566472923
     0.110535069  0.833216510  0.566445337
     0.443820548  0.166751497  0.566126588
     0.444256372  0.499856628  0.566360472
     0.444432103  0.833405193  0.566371435
     0.778064608  0.166722312  0.566393906
     0.777958276  0.500011483  0.566283597
     0.777720224  0.833393194  0.566309506
     0.111252380  0.222169131  0.433571502
     0.111513452  0.556293453  0.433756774
     0.111561603  0.889728624  0.433626677
     0.444518282  0.222204161  0.433649837
     0.444525960  0.556551044  0.433658610
     0.443660893  0.888187837  0.433547328
     0.777521110  0.222151511  0.433510111
     0.777637421  0.555525975  0.433950948
     0.777309178  0.888691961  0.433720737
     0.111772476  0.167643859  0.687385965
     0.110901916  0.500287718  0.687257780
     0.110353355  0.833120113  0.687342756
     0.444344997  0.166406325  0.687088278
     0.444030012  0.499871510  0.687113435
     0.444831264  0.833435140  0.687184139
     0.777543187  0.166898935  0.687364615
     0.778175569  0.500673990  0.687198839
     0.777836879  0.833369765  0.687286770
     0.999868392  0.999926253  0.373102770
     0.000674588  0.333348228  0.372973772
     0.000271379  0.667098601  0.373331821
     0.333997167  0.000507576  0.373246018
     0.333165560  0.333145461  0.373128178
     0.332997578  0.666457753  0.373166579
     0.666860599  0.999746244  0.372945050
     0.666533187  0.333243234  0.373208055
     0.666944483  0.666453852  0.373400493
     0.333180697  0.277319600  0.626936073
     0.333414904  0.611245036  0.626831010
     0.332863417  0.944471079  0.626887152
     0.666808554  0.277630609  0.626636452
     0.666517490  0.610957050  0.626765349
     0.666224244  0.943943821  0.626900206
     0.000725162  0.278197051  0.626772128
     0.999839176  0.610672783  0.626822857
     0.000320574  0.944697678  0.626800078

  ion indices of the primitive-cell ions
   primitive index   ion index
                 1           1
                 2           2
                 3           3
                 4           4
                 5           5
                 6           6
                 7           7
                 8           8
                 9           9
                10          10
                11          11
                12          12
                13          13
                14          14
                15          15
                16          16
                17          17
                18          18
                19          19
                20          20
                21          21
                22          22
                23          23
                24          24
                25          25
                26          26
                27          27
                28          28
                29          29
                30          30
                31          31
                32          32
                33          33
                34          34
                35          35
                36          36
                37          37
                38          38
                39          39
                40          40
                41          41
                42          42
                43          43
                44          44
                45          45
                46          46
                47          47
                48          48
                49          49
                50          50
                51          51
                52          52
                53          53
                54          54

----------------------------------------------------------------------------------------

 
 

Automatic generation of k-mesh.
 generate k-points for:    3    3    1
Space group operators:
 irot       det(A)        alpha          n_x          n_y          n_z        tau_x        tau_y        tau_z
    1     1.000000     0.000000     1.000000     0.000000     0.000000     0.000000     0.000000     0.000000
 
 Subroutine IBZKPT returns following result:
 ===========================================
 
 Found      5 irreducible k-points:
 
 Following reciprocal coordinates:
            Coordinates               Weight
  0.000000  0.000000  0.000000      1.000000
  0.333333  0.000000 -0.000000      2.000000
  0.000000  0.333333 -0.000000      2.000000
  0.333333  0.333333 -0.000000      2.000000
 -0.333333  0.333333 -0.000000      2.000000
 
 Following cartesian coordinates:
            Coordinates               Weight
  0.000000  0.000000  0.000000      1.000000
  0.031992  0.017909  0.000508      2.000000
  0.000000  0.036932  0.000529      2.000000
  0.031992  0.054841  0.001037      2.000000
 -0.031992  0.019023  0.000021      2.000000
 


--------------------------------------------------------------------------------------------------------




 Dimension of arrays:
   k-points           NKPTS =      5   k-points in BZ     NKDIM =      5   number of bands    NBANDS=    200
   number of dos      NEDOS =    301   number of ions     NIONS =     54
   non local maximal  LDIM  =      6   non local SUM 2l+1 LMDIM =     18
   total plane-waves  NPLWV = ******
   max r-space proj   IRMAX =      1   max aug-charges    IRDMAX=  34596
   dimension x,y,z NGX =    80 NGY =   80 NGZ =  240
   dimension x,y,z NGXF=   160 NGYF=  160 NGZF=  480
   support grid    NGXF=   160 NGYF=  160 NGZF=  480
   ions per type =              36  18
   NGX,Y,Z   is equivalent  to a cutoff of  12.76, 12.86, 13.09 a.u.
   NGXF,Y,Z  is equivalent  to a cutoff of  25.53, 25.72, 26.17 a.u.

 SYSTEM =  dpgen_md                                
 POSCAR =  Te Mo                                   

 Startparameter for this run:
   NWRITE =      2    write-flag & timer
   PREC   = a         normal or accurate (medium, high low for compatibility)
   ISTART =      0    job   : 0-new  1-cont  2-samecut
   ICHARG =      2    charge: 1-file 2-atom 10-const
   ISPIN  =      1    spin polarized calculation?
   LNONCOLLINEAR =      F non collinear calculations
   LSORBIT =      F    spin-orbit coupling
   INIWAV =      1    electr: 0-lowe 1-rand  2-diag
   LASPH  =      F    aspherical Exc in radial PAW
   METAGGA=      F    non-selfconsistent MetaGGA calc.

 Electronic Relaxation 1
   ENCUT  =  550.0 eV  40.42 Ry    6.36 a.u.  19.92 19.78 58.30*2*pi/ulx,y,z
   ENINI  =  550.0     initial cutoff
   ENAUG  =  368.8 eV  augmentation charge cutoff
   NELM   =    100;   NELMIN=  6; NELMDL= -5     # of ELM steps 
   EDIFF  = 0.1E-05   stopping-criterion for ELM
   LREAL  =      F    real-space projection
   NLSPLINE    = F    spline interpolate recip. space projectors
   LCOMPAT=      F    compatible to vasp.4.4
   GGA_COMPAT  = T    GGA compatible to vasp.4.4-vasp.4.6
   LMAXPAW     = -100 max onsite density
   LMAXMIX     =    2 max onsite mixed and CHGCAR
   VOSKOWN=      0    Vosko Wilk Nusair interpolation
   ROPT   =    0.00000   0.00000
 Ionic relaxation
   EDIFFG = 0.1E-04   stopping-criterion for IOM
   NSW    =     10    number of steps for IOM
   NBLOCK =      1;   KBLOCK =      1    inner block; outer block 
   IBRION =      0    ionic relax: 0-MD 1-quasi-New 2-CG
   NFREE  =      0    steps in history (QN), initial steepest desc. (CG)
   ISIF   =      2    stress and relaxation
   IWAVPR =     11    prediction:  0-non 1-charg 2-wave 3-comb
   ISYM   =      0    0-nonsym 1-usesym 2-fastsym
   LCORR  =      T    Harris-Foulkes like correction to forces

   POTIM  = 2.0000    time-step for ionic-motion
   TEIN   =  100.0    initial temperature
   TEBEG  =  100.0;   TEEND  = 100.0 temperature during run
   SMASS  =   0.04    Nose mass-parameter (am)
   estimated Nose-frequenzy (Omega)   =  0.79E+14 period in steps = 0.40E+02 mass=   0.327E-28a.u.
   SCALEE = 1.0000    scale energy and forces
   NPACO  =    256;   APACO  = 16.0  distance and # of slots for P.C.
   PSTRESS=    0.0 pullay stress

  Mass of Ions in am
   POMASS = 127.60 95.94
  Ionic Valenz
   ZVAL   =   6.00  6.00
  Atomic Wigner-Seitz radii
   RWIGS  =  -1.00 -1.00
  virtual crystal weights 
   VCA    =   1.00  1.00
   NELECT =     324.0000    total number of electrons
   NUPDOWN=      -1.0000    fix difference up-down

 DOS related values:
   EMIN   =  10.00;   EMAX   =-10.00  energy-range for DOS
   EFERMI =   0.00
   ISMEAR =     0;   SIGMA  =   0.10  broadening in eV -4-tet -1-fermi 0-gaus

 Electronic relaxation 2 (details)
   IALGO  =     68    algorithm
   LDIAG  =      T    sub-space diagonalisation (order eigenvalues)
   LSUBROT=      F    optimize rotation matrix (better conditioning)
   TURBO    =      0    0=normal 1=particle mesh
   IRESTART =      0    0=no restart 2=restart with 2 vectors
   NREBOOT  =      0    no. of reboots
   NMIN     =      0    reboot dimension
   EREF     =   0.00    reference energy to select bands
   IMIX   =      4    mixing-type and parameters
     AMIX     =   0.40;   BMIX     =  1.00
     AMIX_MAG =   1.60;   BMIX_MAG =  1.00
     AMIN     =   0.10
     WC   =   100.;   INIMIX=   1;  MIXPRE=   1;  MAXMIX= -45

 Intra band minimization:
   WEIMIN = 0.0010     energy-eigenvalue tresh-hold
   EBREAK =  0.13E-08  absolut break condition
   DEPER  =   0.30     relativ break condition  

   TIME   =   0.40     timestep for ELM

  volume/ion in A,a.u.               =      53.09       358.26
  Fermi-wavevector in a.u.,A,eV,Ry     =   0.791514  1.495744  8.523970  0.626494
  Thomas-Fermi vector in A             =   1.897069
 
 Write flags
   LWAVE        =      F    write WAVECAR
   LDOWNSAMPLE  =      F    k-point downsampling of WAVECAR
   LCHARG       =      F    write CHGCAR
   LVTOT        =      F    write LOCPOT, total local potential
   LVHAR        =      F    write LOCPOT, Hartree potential only
   LELF         =      F    write electronic localiz. function (ELF)
   LORBIT       =      0    0 simple, 1 ext, 2 COOP (PROOUT), +10 PAW based schemes


 Dipole corrections
   LMONO  =      F    monopole corrections only (constant potential shift)
   LDIPOL =      F    correct potential (dipole corrections)
   IDIPOL =      0    1-x, 2-y, 3-z, 4-all directions 
   EPSILON=  1.0000000 bulk dielectric constant

 Exchange correlation treatment:
   GGA     =    --    GGA type
   LEXCH   =     8    internal setting for exchange type
   VOSKOWN=      0    Vosko Wilk Nusair interpolation
   LHFCALC =     F    Hartree Fock is set to
   LHFONE  =     F    Hartree Fock one center treatment
   AEXX    =    0.0000 exact exchange contribution

 Linear response parameters
   LEPSILON=     F    determine dielectric tensor
   LRPA    =     F    only Hartree local field effects (RPA)
   LNABLA  =     F    use nabla operator in PAW spheres
   LVEL    =     F    velocity operator in full k-point grid
   LINTERFAST=   F  fast interpolation
   KINTER  =     0    interpolate to denser k-point grid
   CSHIFT  =0.1000    complex shift for real part using Kramers Kronig
   OMEGAMAX=  -1.0    maximum frequency
   DEG_THRESHOLD= 0.2000000E-02 threshold for treating states as degnerate
   RTIME   =   -0.100 relaxation time in fs
  (WPLASMAI=    0.000 imaginary part of plasma frequency in eV, 0.658/RTIME)
   DFIELD  = 0.0000000 0.0000000 0.0000000 field for delta impulse in time
 
 Orbital magnetization related:
   ORBITALMAG=     F  switch on orbital magnetization
   LCHIMAG   =     F  perturbation theory with respect to B field
   DQ        =  0.001000  dq finite difference perturbation B field
   LLRAUG    =     F  two centre corrections for induced B field



--------------------------------------------------------------------------------------------------------


 molecular dynamics for ions
   using nose mass (canonical ensemble)
 charge density and potential will be updated during run
 non-spin polarized calculation
 RMM-DIIS sequential band-by-band and
  variant of blocked Davidson during initial phase
 perform sub-space diagonalisation
    before iterative eigenvector-optimisation
 modified Broyden-mixing scheme, WC =      100.0
 initial mixing is a Kerker type mixing with AMIX =  0.4000 and BMIX =      1.0000
 Hartree-type preconditioning will be used
 using additional bands           38
 reciprocal scheme for non local part
 use partial core corrections
 calculate Harris-corrections to forces 
   (improved forces if not selfconsistent)
 use gradient corrections 
 use of overlap-Matrix (Vanderbilt PP)
 Gauss-broadening in eV      SIGMA  =   0.10


--------------------------------------------------------------------------------------------------------


  energy-cutoff  :      550.00
  volume of cell :     2866.78
      direct lattice vectors                 reciprocal lattice vectors
    10.419205839  0.000000000  0.000000000     0.095976605  0.053726517  0.001524174
    -5.052371309  9.025514304  0.000000000     0.000000000  0.110797010  0.001586433
    -0.239778482 -0.436496844 30.485086143     0.000000000  0.000000000  0.032802925

  length of vectors
    10.419205839 10.343421305 30.489153815     0.110001683  0.110808367  0.032802925


 
 k-points in units of 2pi/SCALE and weight: read from INCAR                         
   0.00000000  0.00000000  0.00000000       0.111
   0.03199220  0.01790884  0.00050806       0.222
   0.00000000  0.03693234  0.00052881       0.222
   0.03199220  0.05484118  0.00103687       0.222
  -0.03199220  0.01902350  0.00002075       0.222
 
 k-points in reciprocal lattice and weights: read from INCAR                         
   0.00000000  0.00000000  0.00000000       0.111
   0.33333333  0.00000000 -0.00000000       0.222
   0.00000000  0.33333333 -0.00000000       0.222
   0.33333333  0.33333333 -0.00000000       0.222
  -0.33333333  0.33333333 -0.00000000       0.222
 
 position of ions in fractional coordinates (direct lattice) 
   0.11098832  0.22200820  0.31276553
   0.11101344  0.55537882  0.31290089
   0.11113774  0.88908767  0.31274545
   0.44422104  0.22176241  0.31284156
   0.44427814  0.55528810  0.31272159
   0.44498950  0.88927229  0.31269677
   0.77781709  0.22168120  0.31255781
   0.77824464  0.55646367  0.31260941
   0.77707645  0.88814386  0.31289816
   0.11079504  0.16674099  0.56636483
   0.11144113  0.50083003  0.56647292
   0.11053507  0.83321651  0.56644534
   0.44382055  0.16675150  0.56612659
   0.44425637  0.49985663  0.56636047
   0.44443210  0.83340519  0.56637143
   0.77806461  0.16672231  0.56639391
   0.77795828  0.50001148  0.56628360
   0.77772022  0.83339319  0.56630951
   0.11125238  0.22216913  0.43357150
   0.11151345  0.55629345  0.43375677
   0.11156160  0.88972862  0.43362668
   0.44451828  0.22220416  0.43364984
   0.44452596  0.55655104  0.43365861
   0.44366089  0.88818784  0.43354733
   0.77752111  0.22215151  0.43351011
   0.77763742  0.55552597  0.43395095
   0.77730918  0.88869196  0.43372074
   0.11177248  0.16764386  0.68738596
   0.11090192  0.50028772  0.68725778
   0.11035335  0.83312011  0.68734276
   0.44434500  0.16640632  0.68708828
   0.44403001  0.49987151  0.68711343
   0.44483126  0.83343514  0.68718414
   0.77754319  0.16689893  0.68736462
   0.77817557  0.50067399  0.68719884
   0.77783688  0.83336976  0.68728677
   0.99986839  0.99992625  0.37310277
   0.00067459  0.33334823  0.37297377
   0.00027138  0.66709860  0.37333182
   0.33399717  0.00050758  0.37324602
   0.33316556  0.33314546  0.37312818
   0.33299758  0.66645775  0.37316658
   0.66686060  0.99974624  0.37294505
   0.66653319  0.33324323  0.37320806
   0.66694448  0.66645385  0.37340049
   0.33318070  0.27731960  0.62693607
   0.33341490  0.61124504  0.62683101
   0.33286342  0.94447108  0.62688715
   0.66680855  0.27763061  0.62663645
   0.66651749  0.61095705  0.62676535
   0.66622424  0.94394382  0.62690021
   0.00072516  0.27819705  0.62677213
   0.99983918  0.61067278  0.62682286
   0.00032057  0.94469768  0.62680008
 
 position of ions in cartesian coordinates  (Angst):
  -0.04025219  1.86721703  9.53468421
  -1.72433502  4.87599920  9.53881047
  -3.40902366  7.88796104  9.53407213
   3.43299167  1.86496549  9.53700182
   1.74851988  4.87525868  9.53334449
   0.06852540  7.88964866  9.53258811
   6.90927605  1.86435632  9.52835167
   5.22227298  4.88591776  9.52992484
   3.53426066  7.87937608  9.53872729
   0.17615684  1.25770670 17.26568062
  -1.50507923  4.27298499 17.26897587
  -3.19385295  7.27295593 17.26813491
   3.64602219  1.25790555 17.25841782
   1.96753624  4.26424858 17.26554778
   0.28415340  7.27469115 17.26588198
   7.12866321  1.25752546 17.26656702
   5.44368112  4.26567979 17.26320423
   3.75682640  7.27460988 17.26399406
  -0.06728061  1.81593808 13.21746458
  -1.75272502  4.83150106 13.22311261
  -3.43683041  7.84098175 13.21914660
   3.40488965  1.81622005 13.21985263
   1.71572295  4.83386879 13.22012008
   0.03118410  7.82710999 13.21672764
   6.87481418  1.81580585 13.21559307
   5.19158876  4.82448941 13.22903202
   3.50494566  7.83158427 13.22201402
   0.15276105  1.21303024 20.95502034
  -1.53691905  4.21536810 20.95111264
  -3.22424784  7.21931455 20.95370313
   3.62422646  1.20199080 20.94594534
   1.93614860  4.21167462 20.94671225
   0.25919274  7.22222707 20.94886766
   7.09333188  1.20631624 20.95436950
   5.41360504  4.21888013 20.94931579
   3.72915249  7.22159222 20.95199640
   5.27637386  8.86199051 11.37407009
  -1.76660144  2.84583733 11.37013756
  -3.45711922  5.85794981 11.38105273
   3.38792441 -0.15833957 11.37843701
   1.69867788  2.84393985 11.37484466
   0.01290097  5.85223795 11.37601532
   1.80764441  8.86043469 11.36926197
   5.17159066  2.84478744 11.37727971
   3.49232612  5.85210064 11.38314620
   1.92003089  2.22929640 19.11220020
   0.23538105  5.24319106 19.10899734
  -1.45396017  8.25070297 19.11070884
   5.39466872  2.23223420 19.10306622
   3.70751621  5.24062050 19.10699564
   2.02205568  8.24593850 19.11110678
  -1.54828565  2.23728740 19.10720232
   7.18188590  5.23802974 19.10874879
  -4.91991649  8.25278615 19.10805439
 


--------------------------------------------------------------------------------------------------------


 k-point   1 :   0.0000 0.0000 0.0000  plane waves:   83929
 k-point   2 :   0.3333 0.0000-0.0000  plane waves:   83994
 k-point   3 :   0.0000 0.3333-0.0000  plane waves:   83946
 k-point   4 :   0.3333 0.3333-0.0000  plane waves:   83999
 k-point   5 :  -0.3333 0.3333-0.0000  plane waves:   83959

 maximum and minimum number of plane-waves per node :     83999    83929

 maximum number of plane-waves:     83999
 maximum index in each direction: 
   IXMAX=   20   IYMAX=   19   IZMAX=   58
   IXMIN=  -20   IYMIN=  -20   IZMIN=  -58


 serial   3D FFT for wavefunctions
 parallel 3D FFT for charge:
    minimum data exchange during FFTs selected (reduces bandwidth)


 total amount of memory used by VASP MPI-rank0   353624. kBytes
=======================================================================

   base      :      30000. kBytes
   nonl-proj :     193536. kBytes
   fftplans  :      16533. kBytes
   grid      :      78796. kBytes
   one-center:        839. kBytes
   wavefun   :      33920. kBytes
 
     INWAV:  cpu time    0.0001: real time    0.0001
 Broyden mixing: mesh for mixing (old mesh)
   NGX = 39   NGY = 39   NGZ =117
  (NGX  =160   NGY  =160   NGZ  =480)
  gives a total of 177957 points

 initial charge density was supplied:
 charge density of overlapping atoms calculated
 number of electron     324.0000000 magnetization 
 keeping initial charge density in first step


--------------------------------------------------------------------------------------------------------


 Maximum index for augmentation-charges         1162 (set IRDMAX)


--------------------------------------------------------------------------------------------------------


 First call to EWALD:  gamma=   0.125
 Maximum number of real-space cells 4x 4x 2
 Maximum number of reciprocal cells 2x 2x 5

    FEWALD:  cpu time    0.0021: real time    0.0021


--------------------------------------- Iteration      1(   1)  ---------------------------------------


    POTLOK:  cpu time    0.2820: real time    0.2835
    SETDIJ:  cpu time    0.0105: real time    0.0107
     EDDAV:  cpu time   48.3108: real time   48.4477
       DOS:  cpu time    0.0009: real time    0.0011
    --------------------------------------------
      LOOP:  cpu time   48.6042: real time   48.7429

 eigenvalue-minimisations  :  2000
 total energy-change (2. order) : 0.2109420E+04  (-0.1158498E+05)
 number of electron     324.0000000 magnetization 
 augmentation part      324.0000000 magnetization 

 Free energy of the ion-electron system (eV)
  ---------------------------------------------------
  alpha Z        PSCENC =       250.33897892
  Ewald energy   TEWEN  =     59720.47446364
  -Hartree energ DENC   =    -71421.92664864
  -exchange      EXHF   =         0.00000000
  -V(xc)+E(xc)   XCENC  =     -2099.36553633
  PAW double counting   =      7476.04436201    -4809.59211051
  entropy T*S    EENTRO =        -0.11818691
  eigenvalues    EBANDS =      1040.48199574
  atomic energy  EATOM  =     11953.08265402
  Solvation  Ediel_sol  =         0.00000000
  ---------------------------------------------------
  free energy    TOTEN  =      2109.41997195 eV

  energy without entropy =     2109.53815886  energy(sigma->0) =     2109.47906540


--------------------------------------------------------------------------------------------------------




--------------------------------------- Iteration      1(   2)  ---------------------------------------


     EDDAV:  cpu time   64.7917: real time   64.9622
       DOS:  cpu time    0.0005: real time    0.0005
    --------------------------------------------
      LOOP:  cpu time   64.7922: real time   64.9627

 eigenvalue-minimisations  :  2880
 total energy-change (2. order) :-0.2197135E+04  (-0.2116395E+04)
 number of electron     324.0000000 magnetization 
 augmentation part      324.0000000 magnetization 

 Free energy of the ion-electron system (eV)
  ---------------------------------------------------
  alpha Z        PSCENC =       250.33897892
  Ewald energy   TEWEN  =     59720.47446364
  -Hartree energ DENC   =    -71421.92664864
  -exchange      EXHF   =         0.00000000
  -V(xc)+E(xc)   XCENC  =     -2099.36553633
  PAW double counting   =      7476.04436201    -4809.59211051
  entropy T*S    EENTRO =        -0.00211390
  eigenvalues    EBANDS =     -1156.76889725
  atomic energy  EATOM  =     11953.08265402
  Solvation  Ediel_sol  =         0.00000000
  ---------------------------------------------------
  free energy    TOTEN  =       -87.71484803 eV

  energy without entropy =      -87.71273413  energy(sigma->0) =      -87.71379108


--------------------------------------------------------------------------------------------------------




--------------------------------------- Iteration      1(   3)  ---------------------------------------


     EDDAV:  cpu time   59.4093: real time   59.6061
       DOS:  cpu time    0.0004: real time    0.0004
    --------------------------------------------
      LOOP:  cpu time   59.4097: real time   59.6064

 eigenvalue-minimisations  :  2600
 total energy-change (2. order) :-0.2376417E+03  (-0.2340995E+03)
 number of electron     324.0000000 magnetization 
 augmentation part      324.0000000 magnetization 

 Free energy of the ion-electron system (eV)
  ---------------------------------------------------
  alpha Z        PSCENC =       250.33897892
  Ewald energy   TEWEN  =     59720.47446364
  -Hartree energ DENC   =    -71421.92664864
  -exchange      EXHF   =         0.00000000
  -V(xc)+E(xc)   XCENC  =     -2099.36553633
  PAW double counting   =      7476.04436201    -4809.59211051
  entropy T*S    EENTRO =        -0.00000000
  eigenvalues    EBANDS =     -1394.41269705
  atomic energy  EATOM  =     11953.08265402
  Solvation  Ediel_sol  =         0.00000000
  ---------------------------------------------------
  free energy    TOTEN  =      -325.35653393 eV

  energy without entropy =     -325.35653393  energy(sigma->0) =     -325.35653393


--------------------------------------------------------------------------------------------------------




--------------------------------------- Iteration      1(   4)  ---------------------------------------


     EDDAV:  cpu time   68.2941: real time   68.4766
       DOS:  cpu time    0.0004: real time    0.0004
    --------------------------------------------
      LOOP:  cpu time   68.2945: real time   68.4771

 eigenvalue-minimisations  :  3080
 total energy-change (2. order) :-0.1058840E+02  (-0.1050579E+02)
 number of electron     324.0000000 magnetization 
 augmentation part      324.0000000 magnetization 

 Free energy of the ion-electron system (eV)
  ---------------------------------------------------
  alpha Z        PSCENC =       250.33897892
  Ewald energy   TEWEN  =     59720.47446364
  -Hartree energ DENC   =    -71421.92664864
  -exchange      EXHF   =         0.00000000
  -V(xc)+E(xc)   XCENC  =     -2099.36553633
  PAW double counting   =      7476.04436201    -4809.59211051
  entropy T*S    EENTRO =        -0.00000000
  eigenvalues    EBANDS =     -1405.00110024
  atomic energy  EATOM  =     11953.08265402
  Solvation  Ediel_sol  =         0.00000000
  ---------------------------------------------------
  free energy    TOTEN  =      -335.94493712 eV

  energy without entropy =     -335.94493712  energy(sigma->0) =     -335.94493712


--------------------------------------------------------------------------------------------------------




--------------------------------------- Iteration      1(   5)  ---------------------------------------


     EDDAV:  cpu time   66.9475: real time   67.1270
       DOS:  cpu time    0.0004: real time    0.0004
    CHARGE:  cpu time    1.1147: real time    1.1245
    MIXING:  cpu time    0.0073: real time    0.0076
    --------------------------------------------
      LOOP:  cpu time   68.0700: real time   68.2595

 eigenvalue-minimisations  :  3000
 total energy-change (2. order) :-0.3219263E+00  (-0.3211718E+00)
 number of electron     324.0000011 magnetization 
 augmentation part      -25.2758250 magnetization 

 Broyden mixing:
  rms(total) = 0.18712E+01    rms(broyden)= 0.18712E+01
  rms(prec ) = 0.19767E+01
  weight for this iteration     100.00

 Free energy of the ion-electron system (eV)
  ---------------------------------------------------
  alpha Z        PSCENC =       250.33897892
  Ewald energy   TEWEN  =     59720.47446364
  -Hartree energ DENC   =    -71421.92664864
  -exchange      EXHF   =         0.00000000
  -V(xc)+E(xc)   XCENC  =     -2099.36553633
  PAW double counting   =      7476.04436201    -4809.59211051
  entropy T*S    EENTRO =        -0.00000000
  eigenvalues    EBANDS =     -1405.32302653
  atomic energy  EATOM  =     11953.08265402
  Solvation  Ediel_sol  =         0.00000000
  ---------------------------------------------------
  free energy    TOTEN  =      -336.26686341 eV

  energy without entropy =     -336.26686341  energy(sigma->0) =     -336.26686341


--------------------------------------------------------------------------------------------------------




--------------------------------------- Iteration      1(   6)  ---------------------------------------


    POTLOK:  cpu time    0.2433: real time    0.2436
    SETDIJ:  cpu time    0.0103: real time    0.0103
    EDDIAG:  cpu time    2.4498: real time    2.4569
  RMM-DIIS:  cpu time   40.9171: real time   41.0252
    ORTHCH:  cpu time    0.2155: real time    0.2157
       DOS:  cpu time    0.0004: real time    0.0004
    CHARGE:  cpu time    1.1263: real time    1.1278
    MIXING:  cpu time    0.0074: real time    0.0075
    --------------------------------------------
      LOOP:  cpu time   44.9702: real time   45.0874

 eigenvalue-minimisations  :  2124
 total energy-change (2. order) : 0.9232449E+01  (-0.4586290E+01)
 number of electron     324.0000011 magnetization 
 augmentation part      -20.2815615 magnetization 

 Broyden mixing:
  rms(total) = 0.69571E+00    rms(broyden)= 0.69571E+00
  rms(prec ) = 0.80270E+00
  weight for this iteration     100.00

 eigenvalues of (default mixing * dielectric matrix)
  average eigenvalue GAMMA=   1.1112
  1.1112

 Free energy of the ion-electron system (eV)
  ---------------------------------------------------
  alpha Z        PSCENC =       250.33897892
  Ewald energy   TEWEN  =     59720.47446364
  -Hartree energ DENC   =    -71411.55144214
  -exchange      EXHF   =         0.00000000
  -V(xc)+E(xc)   XCENC  =     -2093.00577120
  PAW double counting   =      7700.94220334    -5045.95976694
  entropy T*S    EENTRO =        -0.00000000
  eigenvalues    EBANDS =     -1401.35573431
  atomic energy  EATOM  =     11953.08265402
  Solvation  Ediel_sol  =         0.00000000
  ---------------------------------------------------
  free energy    TOTEN  =      -327.03441466 eV

  energy without entropy =     -327.03441466  energy(sigma->0) =     -327.03441466


--------------------------------------------------------------------------------------------------------




--------------------------------------- Iteration      1(   7)  ---------------------------------------


    POTLOK:  cpu time    0.2325: real time    0.2369
    SETDIJ:  cpu time    0.0180: real time    0.0180
    EDDIAG:  cpu time    2.4698: real time    2.4768
  RMM-DIIS:  cpu time   38.4420: real time   38.5459
    ORTHCH:  cpu time    0.2153: real time    0.2155
       DOS:  cpu time    0.0004: real time    0.0004
    CHARGE:  cpu time    1.1250: real time    1.1262
    MIXING:  cpu time    0.0075: real time    0.0075
    --------------------------------------------
      LOOP:  cpu time   42.5105: real time   42.6272

 eigenvalue-minimisations  :  2013
 total energy-change (2. order) : 0.3129296E+01  (-0.1059004E+01)
 number of electron     324.0000011 magnetization 
 augmentation part      -21.8906706 magnetization 

 Broyden mixing:
  rms(total) = 0.45813E+00    rms(broyden)= 0.45813E+00
  rms(prec ) = 0.48504E+00
  weight for this iteration     100.00

 eigenvalues of (default mixing * dielectric matrix)
  average eigenvalue GAMMA=   1.4571
  0.7407  2.1735

 Free energy of the ion-electron system (eV)
  ---------------------------------------------------
  alpha Z        PSCENC =       250.33897892
  Ewald energy   TEWEN  =     59720.47446364
  -Hartree energ DENC   =    -71499.02192192
  -exchange      EXHF   =         0.00000000
  -V(xc)+E(xc)   XCENC  =     -2091.37408762
  PAW double counting   =      8002.33363285    -5352.90676234
  entropy T*S    EENTRO =        -0.00000000
  eigenvalues    EBANDS =     -1306.83207611
  atomic energy  EATOM  =     11953.08265402
  Solvation  Ediel_sol  =         0.00000000
  ---------------------------------------------------
  free energy    TOTEN  =      -323.90511856 eV

  energy without entropy =     -323.90511856  energy(sigma->0) =     -323.90511856


--------------------------------------------------------------------------------------------------------




--------------------------------------- Iteration      1(   8)  ---------------------------------------


    POTLOK:  cpu time    0.2437: real time    0.2439
    SETDIJ:  cpu time    0.0104: real time    0.0104
    EDDIAG:  cpu time    2.4688: real time    2.4717
  RMM-DIIS:  cpu time   38.1062: real time   38.2258
    ORTHCH:  cpu time    0.2380: real time    0.2382
       DOS:  cpu time    0.0004: real time    0.0004
    CHARGE:  cpu time    1.1314: real time    1.1326
    MIXING:  cpu time    0.0065: real time    0.0065
    --------------------------------------------
      LOOP:  cpu time   42.2054: real time   42.3295

 eigenvalue-minimisations  :  2002
 total energy-change (2. order) : 0.4758926E+00  (-0.6868105E+00)
 number of electron     324.0000011 magnetization 
 augmentation part      -21.4922537 magnetization 

 Broyden mixing:
  rms(total) = 0.11303E+00    rms(broyden)= 0.11303E+00
  rms(prec ) = 0.12856E+00
  weight for this iteration     100.00

 eigenvalues of (default mixing * dielectric matrix)
  average eigenvalue GAMMA=   1.3199
  2.0931  1.0845  0.7822

 Free energy of the ion-electron system (eV)
  ---------------------------------------------------
  alpha Z        PSCENC =       250.33897892
  Ewald energy   TEWEN  =     59720.47446364
  -Hartree energ DENC   =    -71553.52318798
  -exchange      EXHF   =         0.00000000
  -V(xc)+E(xc)   XCENC  =     -2087.59555061
  PAW double counting   =      8289.32312659    -5645.93794329
  entropy T*S    EENTRO =        -0.00000000
  eigenvalues    EBANDS =     -1249.59176729
  atomic energy  EATOM  =     11953.08265402
  Solvation  Ediel_sol  =         0.00000000
  ---------------------------------------------------
  free energy    TOTEN  =      -323.42922599 eV

  energy without entropy =     -323.42922599  energy(sigma->0) =     -323.42922599


--------------------------------------------------------------------------------------------------------




--------------------------------------- Iteration      1(   9)  ---------------------------------------


    POTLOK:  cpu time    0.2466: real time    0.2469
    SETDIJ:  cpu time    0.0108: real time    0.0108
    EDDIAG:  cpu time    2.4504: real time    2.4572
  RMM-DIIS:  cpu time   43.6819: real time   43.8234
    ORTHCH:  cpu time    0.2223: real time    0.2229
       DOS:  cpu time    0.0005: real time    0.0004
    CHARGE:  cpu time    1.1241: real time    1.1294
    MIXING:  cpu time    0.0096: real time    0.0096
    --------------------------------------------
      LOOP:  cpu time   47.7462: real time   47.9006

 eigenvalue-minimisations  :  2248
 total energy-change (2. order) :-0.7829484E-01  (-0.1383861E+00)
 number of electron     324.0000011 magnetization 
 augmentation part      -21.0903570 magnetization 

 Broyden mixing:
  rms(total) = 0.10282E+00    rms(broyden)= 0.10282E+00
  rms(prec ) = 0.11395E+00
  weight for this iteration     100.00

 eigenvalues of (default mixing * dielectric matrix)
  average eigenvalue GAMMA=   1.2261
  1.8553  1.8553  0.7261  0.4679

 Free energy of the ion-electron system (eV)
  ---------------------------------------------------
  alpha Z        PSCENC =       250.33897892
  Ewald energy   TEWEN  =     59720.47446364
  -Hartree energ DENC   =    -71554.45448135
  -exchange      EXHF   =         0.00000000
  -V(xc)+E(xc)   XCENC  =     -2087.17788379
  PAW double counting   =      8297.07037231    -5653.91445375
  entropy T*S    EENTRO =        -0.00000000
  eigenvalues    EBANDS =     -1248.92717084
  atomic energy  EATOM  =     11953.08265402
  Solvation  Ediel_sol  =         0.00000000
  ---------------------------------------------------
  free energy    TOTEN  =      -323.50752083 eV

  energy without entropy =     -323.50752083  energy(sigma->0) =     -323.50752083


--------------------------------------------------------------------------------------------------------




--------------------------------------- Iteration      1(  10)  ---------------------------------------


    POTLOK:  cpu time    0.2412: real time    0.2415
    SETDIJ:  cpu time    0.0149: real time    0.0149
    EDDIAG:  cpu time    2.4515: real time    2.4546
  RMM-DIIS:  cpu time   46.7687: real time   46.9251
    ORTHCH:  cpu time    0.2209: real time    0.2213
       DOS:  cpu time    0.0004: real time    0.0004
    CHARGE:  cpu time    1.1261: real time    1.1275
    MIXING:  cpu time    0.0071: real time    0.0071
    --------------------------------------------
      LOOP:  cpu time   50.8308: real time   50.9924

 eigenvalue-minimisations  :  2382
 total energy-change (2. order) :-0.6070657E-04  (-0.3241314E-01)
 number of electron     324.0000011 magnetization 
 augmentation part      -21.0080490 magnetization 

 Broyden mixing:
  rms(total) = 0.69076E-01    rms(broyden)= 0.69076E-01
  rms(prec ) = 0.78401E-01
  weight for this iteration     100.00

 eigenvalues of (default mixing * dielectric matrix)
  average eigenvalue GAMMA=   1.3167
  2.2958  2.0577  0.9165  0.9165  0.3970

 Free energy of the ion-electron system (eV)
  ---------------------------------------------------
  alpha Z        PSCENC =       250.33897892
  Ewald energy   TEWEN  =     59720.47446364
  -Hartree energ DENC   =    -71560.40201027
  -exchange      EXHF   =         0.00000000
  -V(xc)+E(xc)   XCENC  =     -2086.95595743
  PAW double counting   =      8316.20461791    -5673.09185761
  entropy T*S    EENTRO =        -0.00000000
  eigenvalues    EBANDS =     -1243.15847073
  atomic energy  EATOM  =     11953.08265402
  Solvation  Ediel_sol  =         0.00000000
  ---------------------------------------------------
  free energy    TOTEN  =      -323.50758154 eV

  energy without entropy =     -323.50758154  energy(sigma->0) =     -323.50758154


--------------------------------------------------------------------------------------------------------




--------------------------------------- Iteration      1(  11)  ---------------------------------------


    POTLOK:  cpu time    0.2441: real time    0.2444
    SETDIJ:  cpu time    0.0121: real time    0.0121
    EDDIAG:  cpu time    2.4583: real time    2.4654
  RMM-DIIS:  cpu time   40.4986: real time   40.6226
    ORTHCH:  cpu time    0.2085: real time    0.2087
       DOS:  cpu time    0.0005: real time    0.0005
    CHARGE:  cpu time    1.1259: real time    1.1269
    MIXING:  cpu time    0.0090: real time    0.0091
    --------------------------------------------
      LOOP:  cpu time   44.5569: real time   44.6896

 eigenvalue-minimisations  :  2122
 total energy-change (2. order) : 0.1014531E-01  (-0.1799240E-01)
 number of electron     324.0000011 magnetization 
 augmentation part      -21.3183441 magnetization 

 Broyden mixing:
  rms(total) = 0.35542E-01    rms(broyden)= 0.35542E-01
  rms(prec ) = 0.40347E-01
  weight for this iteration     100.00

 eigenvalues of (default mixing * dielectric matrix)
  average eigenvalue GAMMA=   1.2599
  2.5272  1.6919  1.5168  0.7166  0.7166  0.3902

 Free energy of the ion-electron system (eV)
  ---------------------------------------------------
  alpha Z        PSCENC =       250.33897892
  Ewald energy   TEWEN  =     59720.47446364
  -Hartree energ DENC   =    -71578.35853057
  -exchange      EXHF   =         0.00000000
  -V(xc)+E(xc)   XCENC  =     -2086.71668033
  PAW double counting   =      8360.74479205    -5717.77291393
  entropy T*S    EENTRO =        -0.00000000
  eigenvalues    EBANDS =     -1225.29020004
  atomic energy  EATOM  =     11953.08265402
  Solvation  Ediel_sol  =         0.00000000
  ---------------------------------------------------
  free energy    TOTEN  =      -323.49743623 eV

  energy without entropy =     -323.49743623  energy(sigma->0) =     -323.49743623


--------------------------------------------------------------------------------------------------------




--------------------------------------- Iteration      1(  12)  ---------------------------------------


    POTLOK:  cpu time    0.2401: real time    0.2403
    SETDIJ:  cpu time    0.0103: real time    0.0103
    EDDIAG:  cpu time    2.4470: real time    2.4494
  RMM-DIIS:  cpu time   45.2296: real time   45.3414
    ORTHCH:  cpu time    0.2244: real time    0.2245
       DOS:  cpu time    0.0005: real time    0.0005
    CHARGE:  cpu time    1.1227: real time    1.1240
    MIXING:  cpu time    0.0071: real time    0.0071
    --------------------------------------------
      LOOP:  cpu time   49.2817: real time   49.3977

 eigenvalue-minimisations  :  2359
 total energy-change (2. order) : 0.1259447E-02  (-0.3069946E-02)
 number of electron     324.0000011 magnetization 
 augmentation part      -21.2947055 magnetization 

 Broyden mixing:
  rms(total) = 0.24494E-01    rms(broyden)= 0.24493E-01
  rms(prec ) = 0.28395E-01
  weight for this iteration     100.00

 eigenvalues of (default mixing * dielectric matrix)
  average eigenvalue GAMMA=   1.2383
  2.5376  1.8673  1.8673  0.8007  0.8007  0.4116  0.3826

 Free energy of the ion-electron system (eV)
  ---------------------------------------------------
  alpha Z        PSCENC =       250.33897892
  Ewald energy   TEWEN  =     59720.47446364
  -Hartree energ DENC   =    -71581.87223096
  -exchange      EXHF   =         0.00000000
  -V(xc)+E(xc)   XCENC  =     -2086.60313894
  PAW double counting   =      8363.50191752    -5720.54898688
  entropy T*S    EENTRO =        -0.00000000
  eigenvalues    EBANDS =     -1221.86983411
  atomic energy  EATOM  =     11953.08265402
  Solvation  Ediel_sol  =         0.00000000
  ---------------------------------------------------
  free energy    TOTEN  =      -323.49617678 eV

  energy without entropy =     -323.49617678  energy(sigma->0) =     -323.49617678


--------------------------------------------------------------------------------------------------------




--------------------------------------- Iteration      1(  13)  ---------------------------------------


    POTLOK:  cpu time    0.2427: real time    0.2511
    SETDIJ:  cpu time    0.0142: real time    0.0142
    EDDIAG:  cpu time    2.4751: real time    2.4818
  RMM-DIIS:  cpu time   44.9583: real time   45.0718
    ORTHCH:  cpu time    0.2272: real time    0.2274
       DOS:  cpu time    0.0005: real time    0.0005
    CHARGE:  cpu time    1.1274: real time    1.1285
    MIXING:  cpu time    0.0082: real time    0.0082
    --------------------------------------------
      LOOP:  cpu time   49.0537: real time   49.1836

 eigenvalue-minimisations  :  2320
 total energy-change (2. order) : 0.7984766E-03  (-0.1968196E-02)
 number of electron     324.0000011 magnetization 
 augmentation part      -21.2004069 magnetization 

 Broyden mixing:
  rms(total) = 0.10369E-01    rms(broyden)= 0.10369E-01
  rms(prec ) = 0.13286E-01
  weight for this iteration     100.00

 eigenvalues of (default mixing * dielectric matrix)
  average eigenvalue GAMMA=   1.2894
  2.4628  2.4628  1.9524  1.0433  0.7974  0.7974  0.3824  0.4165

 Free energy of the ion-electron system (eV)
  ---------------------------------------------------
  alpha Z        PSCENC =       250.33897892
  Ewald energy   TEWEN  =     59720.47446364
  -Hartree energ DENC   =    -71584.33431330
  -exchange      EXHF   =         0.00000000
  -V(xc)+E(xc)   XCENC  =     -2086.52271898
  PAW double counting   =      8359.99251708    -5717.01382674
  entropy T*S    EENTRO =        -0.00000000
  eigenvalues    EBANDS =     -1219.51313295
  atomic energy  EATOM  =     11953.08265402
  Solvation  Ediel_sol  =         0.00000000
  ---------------------------------------------------
  free energy    TOTEN  =      -323.49537830 eV

  energy without entropy =     -323.49537830  energy(sigma->0) =     -323.49537830


--------------------------------------------------------------------------------------------------------




--------------------------------------- Iteration      1(  14)  ---------------------------------------


    POTLOK:  cpu time    0.2410: real time    0.2412
    SETDIJ:  cpu time    0.0104: real time    0.0104
    EDDIAG:  cpu time    2.4651: real time    2.4718
  RMM-DIIS:  cpu time   46.8134: real time   46.9675
    ORTHCH:  cpu time    0.2204: real time    0.2206
       DOS:  cpu time    0.0004: real time    0.0004
    CHARGE:  cpu time    1.1146: real time    1.1199
    MIXING:  cpu time    0.0073: real time    0.0073
    --------------------------------------------
      LOOP:  cpu time   50.8727: real time   51.0392

 eigenvalue-minimisations  :  2406
 total energy-change (2. order) :-0.1058850E-02  (-0.5465613E-03)
 number of electron     324.0000011 magnetization 
 augmentation part      -21.1995046 magnetization 

 Broyden mixing:
  rms(total) = 0.61906E-02    rms(broyden)= 0.61906E-02
  rms(prec ) = 0.85434E-02
  weight for this iteration     100.00

 eigenvalues of (default mixing * dielectric matrix)
  average eigenvalue GAMMA=   1.3467
  3.2982  2.5459  1.6233  1.6233  0.7977  0.7977  0.6356  0.4159  0.3823

 Free energy of the ion-electron system (eV)
  ---------------------------------------------------
  alpha Z        PSCENC =       250.33897892
  Ewald energy   TEWEN  =     59720.47446364
  -Hartree energ DENC   =    -71591.02581249
  -exchange      EXHF   =         0.00000000
  -V(xc)+E(xc)   XCENC  =     -2086.49508369
  PAW double counting   =      8357.93350711    -5714.85879933
  entropy T*S    EENTRO =        -0.00000000
  eigenvalues    EBANDS =     -1212.94634534
  atomic energy  EATOM  =     11953.08265402
  Solvation  Ediel_sol  =         0.00000000
  ---------------------------------------------------
  free energy    TOTEN  =      -323.49643715 eV

  energy without entropy =     -323.49643715  energy(sigma->0) =     -323.49643715


--------------------------------------------------------------------------------------------------------




--------------------------------------- Iteration      1(  15)  ---------------------------------------


    POTLOK:  cpu time    0.2429: real time    0.2432
    SETDIJ:  cpu time    0.0107: real time    0.0107
    EDDIAG:  cpu time    2.4678: real time    2.4705
  RMM-DIIS:  cpu time   43.4615: real time   43.6020
    ORTHCH:  cpu time    0.2054: real time    0.2056
       DOS:  cpu time    0.0005: real time    0.0004
    CHARGE:  cpu time    1.1122: real time    1.1135
    MIXING:  cpu time    0.0148: real time    0.0148
    --------------------------------------------
      LOOP:  cpu time   47.5158: real time   47.6607

 eigenvalue-minimisations  :  2256
 total energy-change (2. order) :-0.9023814E-03  (-0.1581248E-03)
 number of electron     324.0000011 magnetization 
 augmentation part      -21.2168421 magnetization 

 Broyden mixing:
  rms(total) = 0.45859E-02    rms(broyden)= 0.45859E-02
  rms(prec ) = 0.58559E-02
  weight for this iteration     100.00

 eigenvalues of (default mixing * dielectric matrix)
  average eigenvalue GAMMA=   1.3192
  3.4443  2.5015  1.7790  1.7790  0.7856  0.7856  0.6945  0.6272  0.4130  0.3819

 Free energy of the ion-electron system (eV)
  ---------------------------------------------------
  alpha Z        PSCENC =       250.33897892
  Ewald energy   TEWEN  =     59720.47446364
  -Hartree energ DENC   =    -71595.61232639
  -exchange      EXHF   =         0.00000000
  -V(xc)+E(xc)   XCENC  =     -2086.47782030
  PAW double counting   =      8357.87005158    -5714.77059842
  entropy T*S    EENTRO =        -0.00000000
  eigenvalues    EBANDS =     -1208.40274259
  atomic energy  EATOM  =     11953.08265402
  Solvation  Ediel_sol  =         0.00000000
  ---------------------------------------------------
  free energy    TOTEN  =      -323.49733953 eV

  energy without entropy =     -323.49733953  energy(sigma->0) =     -323.49733953


--------------------------------------------------------------------------------------------------------




--------------------------------------- Iteration      1(  16)  ---------------------------------------


    POTLOK:  cpu time    0.2433: real time    0.2435
    SETDIJ:  cpu time    0.0179: real time    0.0179
    EDDIAG:  cpu time    2.4669: real time    2.4736
  RMM-DIIS:  cpu time   49.9894: real time   50.1117
    ORTHCH:  cpu time    0.2163: real time    0.2165
       DOS:  cpu time    0.0004: real time    0.0004
    CHARGE:  cpu time    1.1229: real time    1.1241
    MIXING:  cpu time    0.0117: real time    0.0118
    --------------------------------------------
      LOOP:  cpu time   54.0688: real time   54.1995

 eigenvalue-minimisations  :  2553
 total energy-change (2. order) :-0.1073628E-02  (-0.6913832E-04)
 number of electron     324.0000011 magnetization 
 augmentation part      -21.2186632 magnetization 

 Broyden mixing:
  rms(total) = 0.39415E-02    rms(broyden)= 0.39415E-02
  rms(prec ) = 0.49239E-02
  weight for this iteration     100.00

 eigenvalues of (default mixing * dielectric matrix)
  average eigenvalue GAMMA=   1.3516
  3.7121  2.4018  2.1238  2.1238  1.0281  0.8087  0.8087  0.6737  0.4152  0.3790
  0.3928

 Free energy of the ion-electron system (eV)
  ---------------------------------------------------
  alpha Z        PSCENC =       250.33897892
  Ewald energy   TEWEN  =     59720.47446364
  -Hartree energ DENC   =    -71597.66009346
  -exchange      EXHF   =         0.00000000
  -V(xc)+E(xc)   XCENC  =     -2086.46588065
  PAW double counting   =      8357.33566522    -5714.24894181
  entropy T*S    EENTRO =        -0.00000000
  eigenvalues    EBANDS =     -1206.35525906
  atomic energy  EATOM  =     11953.08265402
  Solvation  Ediel_sol  =         0.00000000
  ---------------------------------------------------
  free energy    TOTEN  =      -323.49841316 eV

  energy without entropy =     -323.49841316  energy(sigma->0) =     -323.49841316


--------------------------------------------------------------------------------------------------------




--------------------------------------- Iteration      1(  17)  ---------------------------------------


    POTLOK:  cpu time    0.2498: real time    0.2501
    SETDIJ:  cpu time    0.0104: real time    0.0104
    EDDIAG:  cpu time    2.4695: real time    2.4766
  RMM-DIIS:  cpu time   40.6350: real time   40.7283
    ORTHCH:  cpu time    0.2167: real time    0.2169
       DOS:  cpu time    0.0004: real time    0.0004
    CHARGE:  cpu time    1.1270: real time    1.1282
    MIXING:  cpu time    0.0080: real time    0.0080
    --------------------------------------------
      LOOP:  cpu time   44.7167: real time   44.8188

 eigenvalue-minimisations  :  2087
 total energy-change (2. order) :-0.1616939E-02  (-0.3501950E-04)
 number of electron     324.0000011 magnetization 
 augmentation part      -21.2144585 magnetization 

 Broyden mixing:
  rms(total) = 0.16003E-02    rms(broyden)= 0.16002E-02
  rms(prec ) = 0.21899E-02
  weight for this iteration     100.00

 eigenvalues of (default mixing * dielectric matrix)
  average eigenvalue GAMMA=   1.4595
  4.7981  2.6648  2.3028  1.6721  1.6721  0.9493  0.8088  0.8088  0.6659  0.4146
  0.3837  0.3731

 Free energy of the ion-electron system (eV)
  ---------------------------------------------------
  alpha Z        PSCENC =       250.33897892
  Ewald energy   TEWEN  =     59720.47446364
  -Hartree energ DENC   =    -71600.73165622
  -exchange      EXHF   =         0.00000000
  -V(xc)+E(xc)   XCENC  =     -2086.44714793
  PAW double counting   =      8356.12979900    -5713.06026780
  entropy T*S    EENTRO =        -0.00000000
  eigenvalues    EBANDS =     -1203.28685373
  atomic energy  EATOM  =     11953.08265402
  Solvation  Ediel_sol  =         0.00000000
  ---------------------------------------------------
  free energy    TOTEN  =      -323.50003010 eV

  energy without entropy =     -323.50003010  energy(sigma->0) =     -323.50003010


--------------------------------------------------------------------------------------------------------




--------------------------------------- Iteration      1(  18)  ---------------------------------------


    POTLOK:  cpu time    0.2559: real time    0.2561
    SETDIJ:  cpu time    0.0104: real time    0.0104
    EDDIAG:  cpu time    2.4954: real time    2.5024
  RMM-DIIS:  cpu time   42.3462: real time   42.4903
    ORTHCH:  cpu time    0.2062: real time    0.2145
       DOS:  cpu time    0.0005: real time    0.0005
    CHARGE:  cpu time    1.1215: real time    1.1228
    MIXING:  cpu time    0.0086: real time    0.0086
    --------------------------------------------
      LOOP:  cpu time   46.4446: real time   46.6056

 eigenvalue-minimisations  :  2140
 total energy-change (2. order) :-0.1055857E-02  (-0.2634733E-04)
 number of electron     324.0000011 magnetization 
 augmentation part      -21.2115699 magnetization 

 Broyden mixing:
  rms(total) = 0.15112E-02    rms(broyden)= 0.15112E-02
  rms(prec ) = 0.17988E-02
  weight for this iteration     100.00

 eigenvalues of (default mixing * dielectric matrix)
  average eigenvalue GAMMA=   1.4514
  5.2751  2.7491  2.3060  1.8219  1.8219  0.9369  0.8110  0.8110  0.6647  0.4949
  0.4154  0.3826  0.3782

 Free energy of the ion-electron system (eV)
  ---------------------------------------------------
  alpha Z        PSCENC =       250.33897892
  Ewald energy   TEWEN  =     59720.47446364
  -Hartree energ DENC   =    -71602.74301660
  -exchange      EXHF   =         0.00000000
  -V(xc)+E(xc)   XCENC  =     -2086.43849499
  PAW double counting   =      8355.74143098    -5712.66262531
  entropy T*S    EENTRO =        -0.00000000
  eigenvalues    EBANDS =     -1201.29447663
  atomic energy  EATOM  =     11953.08265402
  Solvation  Ediel_sol  =         0.00000000
  ---------------------------------------------------
  free energy    TOTEN  =      -323.50108596 eV

  energy without entropy =     -323.50108596  energy(sigma->0) =     -323.50108596


--------------------------------------------------------------------------------------------------------




--------------------------------------- Iteration      1(  19)  ---------------------------------------


    POTLOK:  cpu time    0.2453: real time    0.2467
    SETDIJ:  cpu time    0.0124: real time    0.0124
    EDDIAG:  cpu time    2.4562: real time    2.4672
  RMM-DIIS:  cpu time   48.1419: real time   48.2803
    ORTHCH:  cpu time    0.2065: real time    0.2067
       DOS:  cpu time    0.0004: real time    0.0004
    CHARGE:  cpu time    1.1221: real time    1.1234
    MIXING:  cpu time    0.0085: real time    0.0086
    --------------------------------------------
      LOOP:  cpu time   52.1933: real time   52.3457

 eigenvalue-minimisations  :  2460
 total energy-change (2. order) :-0.4032930E-03  (-0.7533664E-05)
 number of electron     324.0000011 magnetization 
 augmentation part      -21.2110057 magnetization 

 Broyden mixing:
  rms(total) = 0.11352E-02    rms(broyden)= 0.11352E-02
  rms(prec ) = 0.13320E-02
  weight for this iteration     100.00

 eigenvalues of (default mixing * dielectric matrix)
  average eigenvalue GAMMA=   1.5563
  6.4362  3.0654  2.4300  1.9533  1.9533  1.0447  1.0447  0.8113  0.8113  0.6657
  0.4167  0.4028  0.3822  0.3703

 Free energy of the ion-electron system (eV)
  ---------------------------------------------------
  alpha Z        PSCENC =       250.33897892
  Ewald energy   TEWEN  =     59720.47446364
  -Hartree energ DENC   =    -71603.28792794
  -exchange      EXHF   =         0.00000000
  -V(xc)+E(xc)   XCENC  =     -2086.43787287
  PAW double counting   =      8355.89060355    -5712.80899937
  entropy T*S    EENTRO =        -0.00000000
  eigenvalues    EBANDS =     -1200.75338921
  atomic energy  EATOM  =     11953.08265402
  Solvation  Ediel_sol  =         0.00000000
  ---------------------------------------------------
  free energy    TOTEN  =      -323.50148925 eV

  energy without entropy =     -323.50148925  energy(sigma->0) =     -323.50148925


--------------------------------------------------------------------------------------------------------




--------------------------------------- Iteration      1(  20)  ---------------------------------------


    POTLOK:  cpu time    0.2532: real time    0.2534
    SETDIJ:  cpu time    0.0186: real time    0.0186
    EDDIAG:  cpu time    2.4479: real time    2.4549
  RMM-DIIS:  cpu time   40.0353: real time   40.1664
    ORTHCH:  cpu time    0.2197: real time    0.2199
       DOS:  cpu time    0.0004: real time    0.0004
    CHARGE:  cpu time    1.1197: real time    1.1209
    MIXING:  cpu time    0.0094: real time    0.0094
    --------------------------------------------
      LOOP:  cpu time   44.1043: real time   44.2440

 eigenvalue-minimisations  :  2038
 total energy-change (2. order) :-0.4943283E-03  (-0.5807286E-05)
 number of electron     324.0000011 magnetization 
 augmentation part      -21.2123347 magnetization 

 Broyden mixing:
  rms(total) = 0.40478E-03    rms(broyden)= 0.40478E-03
  rms(prec ) = 0.49679E-03
  weight for this iteration     100.00

 eigenvalues of (default mixing * dielectric matrix)
  average eigenvalue GAMMA=   1.6166
  6.9948  3.4176  2.4961  1.8446  1.8446  1.8220  0.9819  0.9819  0.8088  0.8088
  0.6764  0.4160  0.4061  0.3825  0.3670

 Free energy of the ion-electron system (eV)
  ---------------------------------------------------
  alpha Z        PSCENC =       250.33897892
  Ewald energy   TEWEN  =     59720.47446364
  -Hartree energ DENC   =    -71603.82233953
  -exchange      EXHF   =         0.00000000
  -V(xc)+E(xc)   XCENC  =     -2086.43951992
  PAW double counting   =      8356.36383645    -5713.28223507
  entropy T*S    EENTRO =        -0.00000000
  eigenvalues    EBANDS =     -1200.21782210
  atomic energy  EATOM  =     11953.08265402
  Solvation  Ediel_sol  =         0.00000000
  ---------------------------------------------------
  free energy    TOTEN  =      -323.50198358 eV

  energy without entropy =     -323.50198358  energy(sigma->0) =     -323.50198358


--------------------------------------------------------------------------------------------------------




--------------------------------------- Iteration      1(  21)  ---------------------------------------


    POTLOK:  cpu time    0.2522: real time    0.2525
    SETDIJ:  cpu time    0.0108: real time    0.0108
    EDDIAG:  cpu time    2.4594: real time    2.4621
  RMM-DIIS:  cpu time   42.7331: real time   42.8208
    ORTHCH:  cpu time    0.2226: real time    0.2228
       DOS:  cpu time    0.0005: real time    0.0005
    CHARGE:  cpu time    1.1186: real time    1.1239
    MIXING:  cpu time    0.0108: real time    0.0108
    --------------------------------------------
      LOOP:  cpu time   46.8080: real time   46.9042

 eigenvalue-minimisations  :  2153
 total energy-change (2. order) :-0.1673452E-03  (-0.2012365E-05)
 number of electron     324.0000011 magnetization 
 augmentation part      -21.2142137 magnetization 

 Broyden mixing:
  rms(total) = 0.41096E-03    rms(broyden)= 0.41095E-03
  rms(prec ) = 0.46761E-03
  weight for this iteration     100.00

 eigenvalues of (default mixing * dielectric matrix)
  average eigenvalue GAMMA=   1.5944
  7.1804  3.4374  2.4997  2.0306  2.0306  1.7999  0.9801  0.8228  0.8228  0.8378
  0.8378  0.6579  0.4160  0.4076  0.3824  0.3673

 Free energy of the ion-electron system (eV)
  ---------------------------------------------------
  alpha Z        PSCENC =       250.33897892
  Ewald energy   TEWEN  =     59720.47446364
  -Hartree energ DENC   =    -71604.03540066
  -exchange      EXHF   =         0.00000000
  -V(xc)+E(xc)   XCENC  =     -2086.44070677
  PAW double counting   =      8356.47502282    -5713.39528580
  entropy T*S    EENTRO =        -0.00000000
  eigenvalues    EBANDS =     -1200.00187710
  atomic energy  EATOM  =     11953.08265402
  Solvation  Ediel_sol  =         0.00000000
  ---------------------------------------------------
  free energy    TOTEN  =      -323.50215092 eV

  energy without entropy =     -323.50215092  energy(sigma->0) =     -323.50215092


--------------------------------------------------------------------------------------------------------




--------------------------------------- Iteration      1(  22)  ---------------------------------------


    POTLOK:  cpu time    0.2457: real time    0.2459
    SETDIJ:  cpu time    0.0104: real time    0.0104
    EDDIAG:  cpu time    2.4432: real time    2.4459
[...]
 -0.000  -0.000   0.000  -0.000   0.000   0.011   0.000  -0.000
  0.000  -0.000  -0.000   0.000   0.000   0.000   0.011  -0.000
  0.000   0.000   0.000   0.000   0.000  -0.000  -0.000   0.011
 -0.001  -0.000  -0.001  -0.000   0.001   0.000   0.000  -0.000
  0.000   0.000   0.015   0.002  -0.000   0.000  -0.000   0.000
 -0.010  -0.000  -0.001   0.019   0.000   0.000   0.000  -0.000
 -0.000  -0.000  -0.000  -0.001   0.015   0.000   0.000   0.000
  0.000   0.000  -0.002   0.000  -0.001  -0.000  -0.000   0.000
 total augmentation occupancy for first ion, spin component:           1
  1.934   0.218   0.002  -0.199  -0.001  -0.005  -0.047   0.003   0.000   0.002   0.009  -0.001   0.001
  0.218   1.418   0.016   0.942  -0.009  -0.032  -0.375   0.024  -0.007  -0.000  -0.027  -0.001   0.001
  0.002   0.016   1.334   0.013   0.005  -0.474  -0.007   0.005  -0.002   0.114   0.001  -0.002   0.040
 -0.199   0.942   0.013   1.503  -0.006  -0.008  -0.559   0.006  -0.002   0.005   0.042  -0.004   0.005
 -0.001  -0.009   0.005  -0.006   1.345   0.005   0.006  -0.491   0.044  -0.002  -0.001   0.121  -0.000
 -0.005  -0.032  -0.474  -0.008   0.005   0.321   0.001  -0.007   0.003  -0.038   0.003  -0.000  -0.004
 -0.047  -0.375  -0.007  -0.559   0.006   0.001   0.297  -0.001   0.000  -0.003  -0.046   0.002   0.000
  0.003   0.024   0.005   0.006  -0.491  -0.007  -0.001   0.324  -0.011  -0.000  -0.002  -0.039   0.002
  0.000  -0.007  -0.002  -0.002   0.044   0.003   0.000  -0.011   0.022  -0.000   0.001   0.000   0.000
  0.002  -0.000   0.114   0.005  -0.002  -0.038  -0.003  -0.000  -0.000   0.019   0.001  -0.000  -0.001
  0.009  -0.027   0.001   0.042  -0.001   0.003  -0.046  -0.002   0.001   0.001   0.021  -0.000  -0.001
 -0.001  -0.001  -0.002  -0.004   0.121  -0.000   0.002  -0.039   0.000  -0.000  -0.000   0.019  -0.000
  0.001   0.001   0.040   0.005  -0.000  -0.004   0.000   0.002   0.000  -0.001  -0.001  -0.000   0.022


------------------------ aborting loop because EDIFF is reached ----------------------------------------


    CHARGE:  cpu time    1.1245: real time    1.1257
    FORLOC:  cpu time    0.0722: real time    0.0723
    FORNL :  cpu time   13.4510: real time   13.4828
    STRESS:  cpu time   70.4654: real time   70.6866
    FORCOR:  cpu time    0.2832: real time    0.2834
    FORHAR:  cpu time    0.1180: real time    0.1181
    MIXING:  cpu time    0.0070: real time    0.0070
    OFIELD:  cpu time    0.0000: real time    0.0000

  Number of pair interactions contributing to vdW energy:  275121
  Edisp (eV):  -18.83651
    FORVDW:  cpu time    0.0301: real time    0.0301

  FORCE on cell =-STRESS in cart. coord.  units (eV):
  Direction    XX          YY          ZZ          XY          YZ          ZX
  --------------------------------------------------------------------------------------
  Alpha Z   250.33898   250.33898   250.33898
  Ewald   68965.29346 68967.04099-78178.37176   -27.79452    19.04015    19.03731
  Hartree 71280.20737 71281.45922-70924.90914    -7.67482     0.02686     2.95455
  E(xc)   -1356.96759 -1356.91565 -1376.69226     0.44324    -1.13255    -0.60759
  Local  ************************144036.80559    34.50397   -19.09173   -21.63758
  n-local  3558.29469  3557.80158  3747.04791     0.67996     8.09805     4.37758
  augment  -759.88042  -759.76013  -802.11154    -0.70227    -1.44223    -0.68750
  Kinetic  3305.51259  3305.94707  3248.50837    -7.91982     3.01736     3.16505
  Fock        0.00000     0.00000     0.00000     0.00000     0.00000     0.00000
  vdW       -11.85201   -11.81814   -10.11504    -0.04957    -0.48497    -0.16785
  -------------------------------------------------------------------------------------
  Total      15.80548    16.01470    -9.49889    -8.51383     8.03094     6.43398
  in kB       8.83333     8.95025    -5.30872    -4.75819     4.48831     3.59580
  external pressure =        4.16 kB  Pullay stress =        0.00 kB

  kinetic pressure (ideal gas correction) =      0.21 kB
  total pressure  =      4.36 kB
  Total+kin.     9.083       9.141      -5.131      -4.795       4.424       3.600

 VOLUME and BASIS-vectors are now :
 -----------------------------------------------------------------------------
  energy-cutoff  :      550.00
  volume of cell :     2866.78
      direct lattice vectors                 reciprocal lattice vectors
    10.419205839  0.000000000  0.000000000     0.095976605  0.053726517  0.001524174
    -5.052371309  9.025514304  0.000000000     0.000000000  0.110797010  0.001586433
    -0.239778482 -0.436496844 30.485086143     0.000000000  0.000000000  0.032802925

  length of vectors
    10.419205839 10.343421305 30.489153815     0.110001683  0.110808367  0.032802925


 FORCES acting on ions
    electron-ion (+dipol)            ewald-force                    non-local-force                 convergence-correction
 -----------------------------------------------------------------------------------------------
   -.184E+01 0.493E+01 0.837E+03   0.185E+01 -.498E+01 -.842E+03   0.308E+00 -.465E+00 0.508E+01   0.491E-03 0.229E-06 -.239E-03
   0.315E+01 -.289E+01 0.835E+03   -.316E+01 0.300E+01 -.840E+03   -.380E+00 0.379E-01 0.515E+01   0.702E-03 0.379E-03 -.394E-03
   0.149E+00 0.108E+01 0.836E+03   -.214E+00 -.101E+01 -.841E+03   0.536E-01 -.154E+00 0.533E+01   0.457E-03 0.536E-03 -.200E-04
   -.286E+00 -.215E+01 0.838E+03   0.256E+00 0.223E+01 -.844E+03   -.141E+00 0.670E-01 0.511E+01   -.154E-03 -.302E-03 0.341E-03
   -.259E+01 -.206E+01 0.836E+03   0.265E+01 0.213E+01 -.841E+03   0.329E-01 -.271E-01 0.541E+01   0.259E-03 0.322E-03 0.775E-03
   -.182E+01 0.278E+01 0.836E+03   0.187E+01 -.278E+01 -.841E+03   0.355E-01 -.424E+00 0.512E+01   -.842E-04 -.488E-05 0.749E-03
   0.689E+00 0.841E+00 0.836E+03   -.712E+00 -.771E+00 -.841E+03   -.109E+00 -.336E+00 0.566E+01   -.352E-03 -.465E-03 -.216E-03
   -.105E+01 0.258E+01 0.836E+03   0.104E+01 -.254E+01 -.841E+03   -.543E-01 -.517E+00 0.536E+01   -.935E-03 0.147E-03 0.223E-04
   -.874E+00 -.878E+00 0.834E+03   0.799E+00 0.949E+00 -.839E+03   0.150E+00 -.883E-01 0.533E+01   -.417E-03 -.581E-03 0.634E-03
   0.299E+01 0.129E+01 -.883E+02   -.308E+01 -.125E+01 0.830E+02   -.137E+00 -.217E+00 0.481E+01   -.105E-03 0.931E-03 0.891E-03
   0.276E+01 0.129E+01 -.873E+02   -.274E+01 -.131E+01 0.821E+02   -.314E+00 -.170E+00 0.536E+01   0.130E-02 -.132E-02 -.449E-03
   -.244E+00 0.263E+01 -.849E+02   0.281E+00 -.262E+01 0.797E+02   -.267E+00 -.276E+00 0.547E+01   0.350E-03 0.118E-02 -.132E-02
   -.507E+01 0.109E+01 -.840E+02   0.512E+01 -.105E+01 0.788E+02   0.208E+00 -.215E+00 0.537E+01   -.844E-03 0.276E-04 0.871E-04
   -.939E+00 -.165E+00 -.854E+02   0.983E+00 0.179E+00 0.802E+02   -.648E-01 -.116E+00 0.537E+01   -.608E-04 -.428E-03 0.542E-03
   0.122E+01 -.127E+01 -.851E+02   -.118E+01 0.131E+01 0.799E+02   -.369E+00 -.134E+00 0.553E+01   0.131E-02 0.626E-03 0.592E-03
   -.606E+00 -.821E+00 -.884E+02   0.622E+00 0.904E+00 0.831E+02   -.899E-02 -.222E+00 0.544E+01   0.942E-03 -.140E-02 0.101E-02
   -.214E+01 0.244E+01 -.863E+02   0.218E+01 -.240E+01 0.811E+02   -.509E-01 -.340E+00 0.535E+01   -.126E-02 -.225E-03 -.120E-02
   -.993E+00 -.886E+00 -.844E+02   0.106E+01 0.933E+00 0.793E+02   -.533E-01 -.143E+00 0.562E+01   -.159E-02 0.550E-03 0.609E-03
   0.127E+01 -.141E+01 0.838E+02   -.132E+01 0.136E+01 -.786E+02   0.816E-01 0.448E+00 -.529E+01   0.548E-03 -.728E-04 0.272E-03
   0.188E+01 0.878E+00 0.847E+02   -.200E+01 -.916E+00 -.794E+02   0.140E+00 0.653E-01 -.547E+01   0.747E-03 0.395E-03 0.271E-03
   -.281E+01 0.455E+00 0.858E+02   0.278E+01 -.465E+00 -.806E+02   0.353E+00 0.157E+00 -.536E+01   0.385E-03 0.611E-03 -.250E-04
   -.133E+01 0.173E+01 0.858E+02   0.129E+01 -.178E+01 -.806E+02   0.424E-01 -.182E-01 -.502E+01   -.181E-03 -.206E-03 -.469E-03
   -.434E+01 -.116E+01 0.863E+02   0.432E+01 0.114E+01 -.810E+02   0.589E+00 0.164E+00 -.530E+01   0.235E-03 0.391E-03 -.698E-03
   -.445E+00 -.406E+01 0.860E+02   0.428E+00 0.411E+01 -.808E+02   0.335E-01 0.372E+00 -.536E+01   0.988E-04 -.362E-04 -.733E-03
   -.113E+01 0.850E+00 0.886E+02   0.109E+01 -.910E+00 -.833E+02   0.886E-01 0.504E-01 -.550E+01   -.327E-03 -.605E-03 0.459E-04
   -.176E+01 -.179E+01 0.853E+02   0.165E+01 0.177E+01 -.801E+02   0.253E+00 0.357E+00 -.514E+01   -.104E-02 0.131E-03 -.188E-03
   0.495E+00 -.673E+00 0.869E+02   -.631E+00 0.625E+00 -.816E+02   0.162E+00 0.139E+00 -.539E+01   -.428E-03 -.536E-03 -.518E-03
   0.740E+00 -.162E+00 -.837E+03   -.839E+00 0.139E+00 0.842E+03   0.193E+00 0.101E+00 -.529E+01   -.214E-03 0.926E-03 -.106E-02
   -.265E+01 0.191E+00 -.836E+03   0.264E+01 -.233E+00 0.841E+03   0.309E+00 0.170E+00 -.542E+01   0.120E-02 -.139E-02 0.320E-03
   -.141E+01 -.765E+00 -.837E+03   0.139E+01 0.774E+00 0.842E+03   0.543E-01 0.141E+00 -.511E+01   0.277E-03 0.117E-02 0.115E-02
   -.147E+01 -.542E+00 -.836E+03   0.142E+01 0.546E+00 0.841E+03   0.146E+00 0.925E-01 -.513E+01   -.739E-03 0.103E-03 -.330E-03
   0.341E-01 -.188E+00 -.835E+03   -.118E+00 0.146E+00 0.841E+03   0.234E+00 0.130E+00 -.528E+01   -.191E-04 -.383E-03 -.909E-03
   -.179E+01 0.203E+00 -.834E+03   0.177E+01 -.269E+00 0.839E+03   0.136E+00 0.119E+00 -.519E+01   0.129E-02 0.680E-03 -.921E-03
   -.302E+01 -.750E-01 -.837E+03   0.297E+01 -.479E-01 0.842E+03   0.326E+00 0.316E+00 -.557E+01   0.916E-03 -.133E-02 -.104E-02
   0.371E+00 0.178E+01 -.836E+03   -.427E+00 -.184E+01 0.841E+03   -.659E-01 0.526E-01 -.492E+01   -.120E-02 -.251E-03 0.117E-02
   0.129E+01 -.404E+01 -.837E+03   -.136E+01 0.399E+01 0.842E+03   0.563E-02 0.560E+00 -.529E+01   -.152E-02 0.503E-03 -.837E-03
   0.322E+01 0.105E+01 0.461E+03   -.331E+01 -.105E+01 -.462E+03   -.343E+00 -.776E-01 -.270E+00   0.108E-04 -.149E-03 -.932E-04
   0.563E+01 0.156E+01 0.459E+03   -.574E+01 -.157E+01 -.459E+03   -.204E+00 0.104E-01 0.177E+00   0.314E-03 -.158E-03 -.112E-03
   0.494E+00 0.466E+00 0.460E+03   -.500E+00 -.486E+00 -.460E+03   0.112E+00 -.179E-01 -.882E-01   -.527E-04 0.450E-03 -.108E-03
   0.178E+01 0.271E+01 0.460E+03   -.187E+01 -.274E+01 -.460E+03   -.108E+00 -.319E+00 0.209E+00   0.360E-03 0.841E-04 -.621E-04
   0.425E+00 -.364E+00 0.464E+03   -.462E+00 0.313E+00 -.464E+03   -.109E+00 0.563E-01 0.180E-01   0.531E-03 0.237E-03 -.172E-04
   0.846E+00 -.260E+01 0.462E+03   -.870E+00 0.268E+01 -.462E+03   -.730E-01 0.419E-01 -.159E+00   0.819E-03 0.498E-03 -.591E-04
   -.284E-01 -.296E+01 0.462E+03   -.735E-02 0.303E+01 -.462E+03   0.540E-01 0.365E+00 0.651E-01   -.360E-03 -.786E-03 -.277E-04
   -.323E+01 -.301E+00 0.462E+03   0.327E+01 0.324E+00 -.463E+03   0.302E+00 0.132E+00 -.435E+00   -.787E-03 -.296E-03 -.548E-04
   0.305E+01 -.146E-01 0.457E+03   -.322E+01 -.414E-01 -.457E+03   -.216E+00 0.274E-01 -.231E+00   -.720E-03 0.486E-04 -.881E-04
   0.463E+00 -.227E+01 -.458E+03   -.459E+00 0.239E+01 0.458E+03   -.338E-01 0.359E-01 0.428E+00   -.685E-03 0.273E-03 -.869E-04
   0.235E+01 -.723E+00 -.459E+03   -.238E+01 0.750E+00 0.460E+03   -.501E-01 -.557E-03 0.187E+00   0.142E-02 -.242E-03 -.780E-04
   -.176E+01 0.811E+00 -.461E+03   0.179E+01 -.801E+00 0.461E+03   0.287E+00 -.325E-01 -.283E+00   0.105E-02 0.906E-03 -.113E-03
   -.114E+01 0.178E+01 -.462E+03   0.110E+01 -.183E+01 0.462E+03   0.176E-01 0.441E-01 -.217E+00   -.144E-03 -.128E-02 -.151E-03
   0.269E+01 -.701E+00 -.463E+03   -.276E+01 0.698E+00 0.463E+03   -.667E-01 -.968E-01 -.301E+00   -.175E-02 0.355E-03 -.121E-03
   -.105E+01 -.158E+01 -.460E+03   0.113E+01 0.158E+01 0.460E+03   0.198E+00 -.501E-01 0.163E+00   0.266E-03 -.261E-04 -.776E-04
   0.584E+01 0.528E+00 -.463E+03   -.597E+01 -.527E+00 0.463E+03   -.444E+00 -.160E-01 0.248E+00   0.789E-03 -.121E-02 -.146E-03
   -.212E+01 0.622E+00 -.459E+03   0.218E+01 -.568E+00 0.459E+03   0.364E+00 0.102E+00 -.228E+00   0.398E-03 -.322E-03 -.120E-03
   0.452E+01 0.113E+01 -.461E+03   -.461E+01 -.122E+01 0.461E+03   -.146E-01 -.781E-01 0.124E-01   -.126E-02 0.160E-02 -.126E-03
 -----------------------------------------------------------------------------------------------
   -.159E+01 0.196E+00 -.123E+00   -.888E-14 -.644E-14 0.512E-12   0.159E+01 -.199E+00 0.128E+00   0.245E-03 0.522E-04 -.374E-02
 
 
 POSITION                                       TOTAL-FORCE (eV/Angst)
 -----------------------------------------------------------------------------------
     -0.07143      1.89400      9.53807         0.297450     -0.486709     -0.016202
     -1.69245      4.85466      9.55159        -0.359743      0.135782      0.017251
     -3.40779      7.88195      9.53593        -0.005398     -0.078435      0.198996
      3.44451      1.85181      9.53059        -0.157866      0.132789      0.019418
      1.73924      4.86129      9.53031         0.090992      0.038746      0.289314
      0.04889      7.90845      9.53969         0.075875     -0.403032      0.006675
      6.90833      1.88310      9.50960        -0.126129     -0.254425      0.521156
      5.22060      4.91353      9.53030        -0.059090     -0.449267      0.269239
      3.53790      7.86507      9.54913         0.082884     -0.025554      0.170855
      0.20124      1.23896     17.30990        -0.209401     -0.181998     -0.504746
     -1.48590      4.26054     17.27399        -0.272283     -0.188116      0.046167
     -3.17586      7.26585     17.25737        -0.216168     -0.255798      0.197586
      3.63226      1.24718     17.25730         0.245593     -0.174049      0.101228
      1.97584      4.26627     17.26231        -0.012519     -0.099813      0.065097
      0.30194      7.27435     17.24730        -0.314655     -0.096122      0.256185
      7.12792      1.26625     17.27742         0.013960     -0.131902      0.132518
      5.42610      4.26835     17.27741        -0.016163     -0.293169      0.056819
      3.75148      7.26378     17.24067         0.013575     -0.100447      0.384904
     -0.05264      1.80333     13.22385         0.041751      0.387379     -0.020181
     -1.75043      4.83995     13.22949         0.025956      0.034626     -0.149600
     -3.43769      7.84351     13.22238         0.312749      0.148288     -0.080355
      3.41019      1.85129     13.19782         0.003808     -0.056906      0.233387
      1.66486      4.81915     13.21619         0.538165      0.141269     -0.007091
      0.04252      7.82272     13.21805         0.017413      0.412263     -0.077752
      6.89057      1.82708     13.20716         0.048934     -0.007859     -0.161369
      5.18974      4.80883     13.21351         0.137920      0.321123      0.166279
      3.52449      7.84482     13.21604         0.030235      0.095602     -0.050799
      0.17158      1.20903     20.95233         0.104113      0.074990     -0.157940
     -1.55001      4.21748     20.96162         0.286112      0.124068     -0.290457
     -3.21775      7.21723     20.94431         0.033721      0.142776      0.016272
      3.61367      1.21654     20.94095         0.087583      0.095952     -0.005309
      1.92505      4.22005     20.94137         0.141772      0.080980     -0.148381
      0.24887      7.23549     20.92977         0.115283      0.054494     -0.042078
      7.09041      1.19234     20.97860         0.268164      0.182236     -0.451702
      5.43002      4.22092     20.93304        -0.113653     -0.000493      0.232871
      3.73864      7.19532     20.96008        -0.055824      0.490036     -0.202654
     -0.06793     -0.15010     11.39228        -0.458198     -0.095799     -0.464280
     -1.75954      2.84824     11.37098        -0.342813     -0.004772      0.368221
      6.95442      5.85486     11.38532         0.113481     -0.034533     -0.123695
      3.38969     -0.13517     11.36578        -0.203695     -0.389392      0.361184
      1.69508      2.84067     11.36702        -0.151673      0.034167     -0.032541
      0.00676      5.85778     11.38562        -0.096887      0.114802     -0.309609
      1.79943      8.83963     11.36772         0.032634      0.461104      0.105407
      5.15127      2.84742     11.38977         0.380321      0.143760     -0.646174
      3.49231      5.84597     11.39863        -0.393685     -0.015291     -0.233765
      1.92444      2.23476     19.08086        -0.035888      0.159985      0.601678
      0.22986      5.24869     19.09137        -0.083359      0.026515      0.260866
     -1.47821      8.25041     19.11806         0.330143     -0.032929     -0.383232
      5.38187      2.22706     19.12542        -0.013419     -0.003625     -0.313329
      3.70455      5.24740     19.12588        -0.155768     -0.106289     -0.388781
      2.01174      8.25203     19.09548         0.275445     -0.051393      0.238120
     -1.52299      2.23218     19.11000        -0.618961     -0.010002      0.309661
      7.15511      5.23023     19.11887         0.450715      0.148286     -0.380031
      5.49364      8.24206     19.11023        -0.124072     -0.156371      0.016068
 -----------------------------------------------------------------------------------
    total drift:                               -0.000564     -0.002471      0.001370


--------------------------------------------------------------------------------------------------------



  FREE ENERGIE OF THE ION-ELECTRON SYSTEM (eV)
  ---------------------------------------------------
  free  energy   TOTEN  =      -342.16729658 eV

  energy  without entropy=     -342.16729658  energy(sigma->0) =     -342.16729658
 
 d Force =-0.2957880E-01[-0.314E-01,-0.277E-01]  d Energy =-0.2953902E-01-0.398E-04
 d Force =-0.6008770E+01[-0.601E+01,-0.600E+01]  d Ewald  =-0.6008769E+01-0.831E-06


--------------------------------------------------------------------------------------------------------


    POTLOK:  cpu time    0.2667: real time    0.2670


--------------------------------------------------------------------------------------------------------


           RANDOM_SEED =         159957219              324                0
   IONSTEP:  cpu time    0.0001: real time    0.0001

  ENERGY OF THE ELECTRON-ION-THERMOSTAT SYSTEM (eV)
  ---------------------------------------------------
% ion-electron   TOTEN  =      -342.167297  see above
  kinetic energy EKIN   =         0.542298
  kin. lattice  EKIN_LAT=         0.000000  (temperature   79.16 K)
  nose potential ES     =        -0.031717
  nose kinetic   EPS    =         0.004800
  ---------------------------------------------------
  total energy   ETOTAL =      -341.651915 eV

  maximum distance moved by ions :      0.60E-03


 mean value of Nose-termostat <S>:     0.967 mean value of <T> :    79.158
 mean temperature <T/S>/<1/S>  :    79.158

    WAVPRE:  cpu time    0.0967: real time    0.0999
    FEWALD:  cpu time    0.0024: real time    0.0024
    ORTHCH:  cpu time    7.8807: real time    7.9063
    POTLOK:  cpu time    0.2628: real time    0.2631
    EDDIAG:  cpu time    2.4727: real time    2.4753
     LOOP+:  cpu time  461.3218: real time  462.6664
    4ORBIT:  cpu time    0.0000: real time    0.0000

 total amount of memory used by VASP MPI-rank0   353624. kBytes
=======================================================================

   base      :      30000. kBytes
   nonl-proj :     193536. kBytes
   fftplans  :      16533. kBytes
   grid      :      78796. kBytes
   one-center:        839. kBytes
   wavefun   :      33920. kBytes
 
  
  
 General timing and accounting informations for this job:
 ========================================================
  
                  Total CPU time used (sec):     5559.417
                            User time (sec):     5547.225
                          System time (sec):       12.193
                         Elapsed time (sec):     5575.872
  
                   Maximum memory used (kb):      782548.
                   Average memory used (kb):           0.
  
                          Minor page faults:       390152
                          Major page faults:            0
                 Voluntary context switches:          708
