 vasp.6.1.1 19Jun20 (build Dec 21 2021 08:45:49) complex                        
  
 executed on             LinuxIFC date 2023.10.08  12:43:24
 running on   40 total cores
 distrk:  each k-point on   40 cores,    1 groups
 distr:  one band on NCORE=   1 cores,   40 groups


--------------------------------------------------------------------------------------------------------


 INCAR:
 POTCAR:   PAW_PBE Te 08Apr2002                   
 POTCAR:   PAW_PBE Mo 08Apr2002                   
 -----------------------------------------------------------------------------
|                                                                             |
|           W    W    AA    RRRRR   N    N  II  N    N   GGGG   !!!           |
|           W    W   A  A   R    R  NN   N  II  NN   N  G    G  !!!           |
|           W    W  A    A  R    R  N N  N  II  N N  N  G       !!!           |
|           W WW W  AAAAAA  RRRRR   N  N N  II  N  N N  G  GGG   !            |
|           WW  WW  A    A  R   R   N   NN  II  N   NN  G    G                |
|           W    W  A    A  R    R  N    N  II  N    N   GGGG   !!!           |
|                                                                             |
|     For optimal performance we recommend to set                             |
|       NCORE = 4 - approx SQRT(number of cores).                             |
|     NCORE specifies how many cores store one orbital (NPAR=cpu/NCORE).      |
|     This setting can greatly improve the performance of VASP for DFT.       |
|     The default, NCORE=1 might be grossly inefficient on modern             |
|     multi-core architectures or massively parallel machines. Do your        |
|     own testing!!!!                                                         |
|     Unfortunately you need to use the default for GW and RPA                |
|     calculations (for HF NCORE is supported but not extensively tested      |
|     yet).                                                                   |
|                                                                             |
 -----------------------------------------------------------------------------

 POTCAR:   PAW_PBE Te 08Apr2002                   
   VRHFIN =Te: s2p4                                                                                 
   LEXCH  = PE                                                                                      
   EATOM  =   223.2721 eV,   16.4100 Ry                                                             
                                                                                                    
   TITEL  = PAW_PBE Te 08Apr2002                                                                    
   LULTRA =        F    use ultrasoft PP ?                                                          
   IUNSCR =        1    unscreen: 0-lin 1-nonlin 2-no                                               
   RPACOR =    2.200    partial core radius                                                         
   POMASS =  127.600; ZVAL   =    6.000    mass and valenz                                          
   RCORE  =    2.300    outmost cutoff radius                                                       
   RWIGS  =    2.900; RWIGS  =    1.535    wigner-seitz radius (au A)                               
   ENMAX  =  174.982; ENMIN  =  131.236 eV                                                          
   ICORE  =        3    local potential                                                             
   LCOR   =        T    correct aug charges                                                         
   LPAW   =        T    paw PP                                                                      
   EAUG   =  368.792                                                                                
   DEXC   =    -.169                                                                                
   RMAX   =    3.486    core radius for proj-oper                                                   
   RAUG   =    1.300    factor for augmentation sphere                                              
   RDEP   =    2.397    radius for radial grids                                                     
   QCUT   =   -3.586; QGAM   =    7.172    optimization parameters                                  
                                                                                                    
   Description                                                                                      
     l     E      TYP  RCUT    TYP  RCUT                                                            
     0   .000     23  2.300                                                                         
     0   .000     23  2.300                                                                         
     1   .000     23  2.300                                                                         
     1   .000     23  2.300                                                                         
     2   .000     23  2.300                                                                         
     3  -.100     23  2.300                                                                         
  local pseudopotential read in
  partial core-charges read in
  atomic valenz-charges read in
  non local Contribution for L=           0  read in
    real space projection operators read in
  non local Contribution for L=           0  read in
    real space projection operators read in
  non local Contribution for L=           1  read in
    real space projection operators read in
  non local Contribution for L=           1  read in
    real space projection operators read in
  non local Contribution for L=           2  read in
    real space projection operators read in
    PAW grid and wavefunctions read in
 
   number of l-projection  operators is LMAX  =           5
   number of lm-projection operators is LMMAX =          13
 
 POTCAR:   PAW_PBE Mo 08Apr2002                   
   VRHFIN =Mo: 4p5s4d                                                                               
   LEXCH  = PE                                                                                      
   EATOM  =   217.5180 eV,   15.9871 Ry                                                             
                                                                                                    
   TITEL  = PAW_PBE Mo 08Apr2002                                                                    
   LULTRA =        F    use ultrasoft PP ?                                                          
   IUNSCR =        1    unscreen: 0-lin 1-nonlin 2-no                                               
   RPACOR =    2.200    partial core radius                                                         
   POMASS =   95.940; ZVAL   =    6.000    mass and valenz                                          
   RCORE  =    2.750    outmost cutoff radius                                                       
   RWIGS  =    2.750; RWIGS  =    1.455    wigner-seitz radius (au A)                               
   ENMAX  =  224.584; ENMIN  =  168.438 eV                                                          
   RCLOC  =    2.111    cutoff for local pot                                                        
   LCOR   =        T    correct aug charges                                                         
   LPAW   =        T    paw PP                                                                      
   EAUG   =  345.278                                                                                
   DEXC   =    -.088                                                                                
   RMAX   =    3.077    core radius for proj-oper                                                   
   RAUG   =    1.300    factor for augmentation sphere                                              
   RDEP   =    2.815    radius for radial grids                                                     
   QCUT   =   -4.063; QGAM   =    8.126    optimization parameters                                  
                                                                                                    
   Description                                                                                      
     l     E      TYP  RCUT    TYP  RCUT                                                            
     2   .000     23  2.500                                                                         
     2   .000     23  2.500                                                                         
     0   .000     23  2.600                                                                         
     0  1.000     23  2.600                                                                         
     1   .400     23  2.750                                                                         
     1  2.000     23  2.750                                                                         
     3   .000      7   .000                                                                         
  local pseudopotential read in
  partial core-charges read in
  atomic valenz-charges read in
  non local Contribution for L=           2  read in
    real space projection operators read in
  non local Contribution for L=           2  read in
    real space projection operators read in
  non local Contribution for L=           0  read in
    real space projection operators read in
  non local Contribution for L=           0  read in
    real space projection operators read in
  non local Contribution for L=           1  read in
    real space projection operators read in
  non local Contribution for L=           1  read in
    real space projection operators read in
    PAW grid and wavefunctions read in
 
   number of l-projection  operators is LMAX  =           6
   number of lm-projection operators is LMMAX =          18
 
 -----------------------------------------------------------------------------
|                                                                             |
|               ----> ADVICE to this user running VASP <----                  |
|                                                                             |
|     You have a (more or less) 'large supercell' and for larger cells it     |
|     might be more efficient to use real-space projection operators.         |
|     Therefore, try LREAL= Auto in the INCAR file.                           |
|     Mind: If you want to do very accurate calculations, keep the            |
|     reciprocal projection scheme (i.e. LREAL=.FALSE.).                      |
|                                                                             |
 -----------------------------------------------------------------------------

 PAW_PBE Te 08Apr2002                   :
 energy of atom  1       EATOM= -223.2721
 kinetic energy error for atom=    0.0006 (will be added to EATOM!!)
 PAW_PBE Mo 08Apr2002                   :
 energy of atom  2       EATOM= -217.5180
 kinetic energy error for atom=    0.0009 (will be added to EATOM!!)
 
 
 POSCAR: Te Mo
  positions in cartesian coordinates
  No initial velocities read in
 exchange correlation table for  LEXCH =        8
   RHO(1)=    0.500       N(1)  =     2000
   RHO(2)=  100.500       N(2)  =     4000
 


--------------------------------------------------------------------------------------------------------


 ion  position               nearest neighbor table
   1  0.111  0.222  0.321-  38 2.71  41 2.74  37 2.76   5 3.46   9 3.47   2 3.52   3 3.52   4 3.54
                             7 3.54  19 3.67
   2  0.111  0.555  0.321-  39 2.71  42 2.74  38 2.76   7 3.46   6 3.47   1 3.52   3 3.52   8 3.53
                             5 3.54  20 3.68
   3  0.111  0.889  0.321-  37 2.72  40 2.74  39 2.75   4 3.46   8 3.46   1 3.52   2 3.52   6 3.53
                             9 3.54  21 3.68
   4  0.444  0.222  0.321-  41 2.71  44 2.74  40 2.75   3 3.46   8 3.46   5 3.52   6 3.52   7 3.53
                             1 3.54  22 3.68
   5  0.444  0.555  0.321-  42 2.71  45 2.74  41 2.74   1 3.46   9 3.46   4 3.52   6 3.53   2 3.54
                             8 3.54  23 3.67
   6  0.444  0.889  0.321-  40 2.71  43 2.74  42 2.75   7 3.46   2 3.47   4 3.52   5 3.53   9 3.53
                             3 3.53  24 3.68
   7  0.778  0.222  0.321-  44 2.71  38 2.74  43 2.76   2 3.46   6 3.46   8 3.52   9 3.52   4 3.53
                             1 3.54
   8  0.778  0.555  0.321-  45 2.72  39 2.74  44 2.76   3 3.46   4 3.46   7 3.52   9 3.53   2 3.53
                             5 3.54
   9  0.777  0.889  0.321-  43 2.72  37 2.74  45 2.76   5 3.46   1 3.47   7 3.52   8 3.53   6 3.53
                             3 3.54  27 3.68
  10  0.223  0.056  0.558-  46 2.72  49 2.74  48 2.76  14 3.45  18 3.47  12 3.52  11 3.52  13 3.53
                            16 3.54
  11  0.222  0.389  0.559-  47 2.71  50 2.74  46 2.75  16 3.46  15 3.46  12 3.52  10 3.52  17 3.53
                            14 3.54  29 3.67
  12  0.222  0.722  0.559-  48 2.71  51 2.74  47 2.75  17 3.45  13 3.47  11 3.52  10 3.52  18 3.53
                            15 3.54  30 3.68
  13  0.556  0.056  0.559-  49 2.71  52 2.74  51 2.75  17 3.46  12 3.47  14 3.52  15 3.53  10 3.53
                            16 3.54  31 3.68
  14  0.555  0.389  0.558-  50 2.72  53 2.74  49 2.75  10 3.45  18 3.46  15 3.52  13 3.52  11 3.54
                            17 3.54  32 3.67
  15  0.556  0.722  0.559-  51 2.71  54 2.74  50 2.76  11 3.46  16 3.47  14 3.52  13 3.53  18 3.53
                            12 3.54  33 3.67
  16  0.889  0.056  0.558-  52 2.71  46 2.74  54 2.76  11 3.46  15 3.47  17 3.52  18 3.52  13 3.54
                            10 3.54  34 3.68
  17  0.890  0.389  0.559-  53 2.71  47 2.73  52 2.75  12 3.45  13 3.46  18 3.52  16 3.52  11 3.53
                            14 3.54  35 3.67
  18  0.889  0.722  0.558-  54 2.71  48 2.74  53 2.75  14 3.46  10 3.47  17 3.52  16 3.52  12 3.53
                            15 3.53  36 3.67
  19  0.111  0.222  0.441-  37 2.68  41 2.72  38 2.79  23 3.46  27 3.46  21 3.52  20 3.53  22 3.53
                            25 3.54   1 3.67
  20  0.111  0.556  0.442-  38 2.69  42 2.72  39 2.80  24 3.46  25 3.46  21 3.51  19 3.53  23 3.54
                            26 3.54   2 3.68
  21  0.111  0.888  0.441-  39 2.69  40 2.72  37 2.80  26 3.46  22 3.46  20 3.51  19 3.52  24 3.53
                            27 3.53   3 3.68
  22  0.444  0.222  0.441-  40 2.69  44 2.72  41 2.79  21 3.46  26 3.47  23 3.52  24 3.52  19 3.53
                            25 3.53   4 3.68
  23  0.444  0.555  0.441-  41 2.68  45 2.71  42 2.80  19 3.46  27 3.46  22 3.52  24 3.53  26 3.53
                            20 3.54   5 3.67
  24  0.444  0.889  0.442-  42 2.69  43 2.71  40 2.79  25 3.46  20 3.46  22 3.52  23 3.53  21 3.53
                            27 3.54   6 3.68
  25  0.777  0.222  0.442-  43 2.69  38 2.72  44 2.79  24 3.46  20 3.46  26 3.52  27 3.53  22 3.53
                            19 3.54
  26  0.778  0.556  0.442-  44 2.70  39 2.72  45 2.79  21 3.46  22 3.47  27 3.51  25 3.52  23 3.53
                            20 3.54
  27  0.778  0.888  0.442-  45 2.69  37 2.72  43 2.80  19 3.46  23 3.46  26 3.51  25 3.53  21 3.53
                            24 3.54   9 3.68
  28  0.222  0.056  0.680-  48 2.70  49 2.72  46 2.80  32 3.46  36 3.47  29 3.52  30 3.52  34 3.53
                            31 3.54
  29  0.223  0.389  0.679-  46 2.69  50 2.71  47 2.79  33 3.46  34 3.47  28 3.52  30 3.52  32 3.53
                            35 3.54  11 3.67
  30  0.222  0.722  0.679-  47 2.69  51 2.72  48 2.79  31 3.46  35 3.46  29 3.52  28 3.52  33 3.53
                            36 3.54  12 3.68
  31  0.556  0.056  0.679-  51 2.69  52 2.72  49 2.79  30 3.46  35 3.46  33 3.52  32 3.52  28 3.54
                            34 3.54  13 3.68
  32  0.556  0.389  0.679-  49 2.69  53 2.71  50 2.79  36 3.46  28 3.46  31 3.52  33 3.53  35 3.53
                            29 3.53  14 3.67
  33  0.555  0.722  0.679-  50 2.69  54 2.72  51 2.79  29 3.46  34 3.46  31 3.52  32 3.53  30 3.53
                            36 3.53  15 3.67
  34  0.889  0.055  0.679-  54 2.68  46 2.72  52 2.80  33 3.46  29 3.47  36 3.52  35 3.53  28 3.53
                            31 3.54  16 3.68
  35  0.889  0.389  0.679-  52 2.69  47 2.72  53 2.79  31 3.46  30 3.46  36 3.52  34 3.53  32 3.53
                            29 3.54  17 3.67
  36  0.888  0.722  0.679-  53 2.69  48 2.72  54 2.79  32 3.46  28 3.47  34 3.52  35 3.52  33 3.53
                            30 3.54  18 3.67
  37  1.000  0.000  0.381-  19 2.68  27 2.72   3 2.72   9 2.74   1 2.76  21 2.80  41 3.46  45 3.47

  38  1.000  0.333  0.381-  20 2.69   1 2.71  25 2.72   7 2.74   2 2.76  19 2.79  43 3.46  42 3.47

  39  1.000  0.666  0.381-  21 2.69   2 2.71  26 2.72   8 2.74   3 2.75  20 2.80  44 3.46  40 3.47

  40  0.333  0.000  0.381-  22 2.69   6 2.71  21 2.72   3 2.74   4 2.75  24 2.79  44 3.46  39 3.47

  41  0.334  0.333  0.381-  23 2.68   4 2.71  19 2.72   1 2.74   5 2.74  22 2.79  45 3.45  37 3.46

  42  0.333  0.667  0.381-  24 2.69   5 2.71  20 2.72   2 2.74   6 2.75  23 2.80  43 3.45  38 3.47

  43  0.666  1.000  0.381-  25 2.69  24 2.71   9 2.72   6 2.74   7 2.76  27 2.80  42 3.45  38 3.46

  44  0.667  0.333  0.381-  26 2.70   7 2.71  22 2.72   4 2.74   8 2.76  25 2.79  40 3.46  39 3.46

  45  0.666  0.666  0.381-  27 2.69  23 2.71   8 2.72   5 2.74   9 2.76  26 2.79  41 3.45  37 3.47

  46  0.111  0.167  0.619-  29 2.69  34 2.72  10 2.72  16 2.74  11 2.75  28 2.80  50 3.46  54 3.46

  47  0.111  0.500  0.619-  30 2.69  11 2.71  35 2.72  17 2.73  12 2.75  29 2.79  52 3.46  51 3.46

  48  0.112  0.833  0.619-  28 2.70  12 2.71  36 2.72  18 2.74  10 2.76  30 2.79  49 3.46  53 3.46

  49  0.444  0.167  0.619-  32 2.69  13 2.71  28 2.72  10 2.74  14 2.75  31 2.79  48 3.46  53 3.46

  50  0.444  0.500  0.619-  33 2.69  29 2.71  14 2.72  11 2.74  15 2.76  32 2.79  46 3.46  54 3.47

  51  0.444  0.834  0.619-  31 2.69  15 2.71  30 2.72  12 2.74  13 2.75  33 2.79  52 3.46  47 3.46

  52  0.778  0.167  0.619-  35 2.69  16 2.71  31 2.72  13 2.74  17 2.75  34 2.80  51 3.46  47 3.46

  53  0.778  0.500  0.619-  36 2.69  17 2.71  32 2.71  14 2.74  18 2.75  35 2.79  49 3.46  48 3.46

  54  0.778  0.834  0.619-  34 2.68  18 2.71  33 2.72  15 2.74  16 2.76  36 2.79  46 3.46  50 3.47

 

IMPORTANT INFORMATION: All symmetrisations will be switched off!
NOSYMM: (Re-)initialisation of all symmetry stuff for point group C_1.


----------------------------------------------------------------------------------------

                                     Primitive cell                                     

  volume of cell :    2914.2478

  direct lattice vectors                    reciprocal lattice vectors
    10.607406091  0.000000000  0.000000000     0.094273755  0.057214658 -0.000721034
    -5.481706062  9.032318535  0.000000000     0.000000000  0.110713544  0.002542886
     0.656634093 -0.698625097 30.417116381     0.000000000  0.000000000  0.032876226

  length of vectors
    10.607406091 10.565598870 30.432223288     0.110279544  0.110742743  0.032876226

  position of ions in fractional coordinates (direct lattice)
     0.111280089  0.222437618  0.320732601
     0.110817106  0.555212455  0.320609716
     0.111175153  0.888903919  0.320642139
     0.444395818  0.222114200  0.320639358
     0.444092017  0.555096060  0.320861203
     0.444394543  0.888941861  0.320572459
     0.777627778  0.222428904  0.320559485
     0.777900105  0.555425100  0.320565707
     0.777446680  0.888949786  0.320591506
     0.222998965  0.055947003  0.558288250
     0.222124510  0.389123895  0.558542308
     0.221860548  0.722176126  0.558503944
     0.555790062  0.055907930  0.558503652
     0.555321650  0.388801698  0.558471918
     0.555704097  0.722109601  0.558662432
     0.889370017  0.056028593  0.558408015
     0.889506441  0.389444745  0.558681460
     0.888862923  0.722230460  0.558470590
     0.111076308  0.221600510  0.441385387
     0.111099589  0.555553322  0.441534866
     0.111099992  0.888178630  0.441451316
     0.443959559  0.221994139  0.441472023
     0.444148299  0.554955515  0.441364261
     0.444422071  0.888955627  0.441540387
     0.777214968  0.222181439  0.441650443
     0.777548072  0.555710652  0.441735294
     0.777835385  0.888154112  0.441558485
     0.222402657  0.055811879  0.679563723
     0.222915013  0.389353716  0.679256377
     0.222407513  0.722439485  0.679339902
     0.555576134  0.055574193  0.679317369
     0.555986784  0.389047759  0.679190948
     0.555464504  0.722490337  0.679294452
     0.888928628  0.055366975  0.679371884
     0.888882035  0.389100122  0.679218169
     0.888410212  0.722287608  0.679169148
     0.999843215  0.000134225  0.381204465
     0.999975502  0.333038941  0.381193824
     0.999621127  0.666391297  0.381006738
     0.333454559  0.000007204  0.381081068
     0.333772138  0.333395824  0.381012180
     0.333193124  0.667290890  0.381022763
     0.666095361  0.999677742  0.381291300
     0.666526901  0.333111735  0.381188747
     0.666367151  0.666121192  0.381239578
     0.111332475  0.167124282  0.619015471
     0.111106438  0.499994218  0.618910423
     0.111501613  0.833274461  0.618926252
     0.444455265  0.166671252  0.618908235
     0.444280773  0.499798608  0.619124480
     0.444371183  0.833509482  0.618923295
     0.777767397  0.166665699  0.618911583
     0.777655845  0.500222766  0.618857925
     0.778463032  0.833909990  0.618999267

  ion indices of the primitive-cell ions
   primitive index   ion index
                 1           1
                 2           2
                 3           3
                 4           4
                 5           5
                 6           6
                 7           7
                 8           8
                 9           9
                10          10
                11          11
                12          12
                13          13
                14          14
                15          15
                16          16
                17          17
                18          18
                19          19
                20          20
                21          21
                22          22
                23          23
                24          24
                25          25
                26          26
                27          27
                28          28
                29          29
                30          30
                31          31
                32          32
                33          33
                34          34
                35          35
                36          36
                37          37
                38          38
                39          39
                40          40
                41          41
                42          42
                43          43
                44          44
                45          45
                46          46
                47          47
                48          48
                49          49
                50          50
                51          51
                52          52
                53          53
                54          54

----------------------------------------------------------------------------------------

 
 

Automatic generation of k-mesh.
 generate k-points for:    3    3    1
Space group operators:
 irot       det(A)        alpha          n_x          n_y          n_z        tau_x        tau_y        tau_z
    1     1.000000     0.000000     1.000000     0.000000     0.000000     0.000000     0.000000     0.000000
 
 Subroutine IBZKPT returns following result:
 ===========================================
 
 Found      5 irreducible k-points:
 
 Following reciprocal coordinates:
            Coordinates               Weight
  0.000000  0.000000  0.000000      1.000000
  0.333333  0.000000  0.000000      2.000000
  0.000000  0.333333 -0.000000      2.000000
  0.333333  0.333333 -0.000000      2.000000
 -0.333333  0.333333  0.000000      2.000000
 
 Following cartesian coordinates:
            Coordinates               Weight
  0.000000  0.000000  0.000000      1.000000
  0.031425  0.019072 -0.000240      2.000000
  0.000000  0.036905  0.000848      2.000000
  0.031425  0.055976  0.000607      2.000000
 -0.031425  0.017833  0.001088      2.000000
 


--------------------------------------------------------------------------------------------------------




 Dimension of arrays:
   k-points           NKPTS =      5   k-points in BZ     NKDIM =      5   number of bands    NBANDS=    200
   number of dos      NEDOS =    301   number of ions     NIONS =     54
   non local maximal  LDIM  =      6   non local SUM 2l+1 LMDIM =     18
   total plane-waves  NPLWV = ******
   max r-space proj   IRMAX =      1   max aug-charges    IRDMAX=  37504
   dimension x,y,z NGX =    84 NGY =   84 NGZ =  240
   dimension x,y,z NGXF=   168 NGYF=  168 NGZF=  480
   support grid    NGXF=   168 NGYF=  168 NGZF=  480
   ions per type =              36  18
   NGX,Y,Z   is equivalent  to a cutoff of  13.17, 13.22, 13.11 a.u.
   NGXF,Y,Z  is equivalent  to a cutoff of  26.33, 26.43, 26.22 a.u.

 SYSTEM =  dpgen_md                                
 POSCAR =  Te Mo                                   

 Startparameter for this run:
   NWRITE =      2    write-flag & timer
   PREC   = a         normal or accurate (medium, high low for compatibility)
   ISTART =      0    job   : 0-new  1-cont  2-samecut
   ICHARG =      2    charge: 1-file 2-atom 10-const
   ISPIN  =      1    spin polarized calculation?
   LNONCOLLINEAR =      F non collinear calculations
   LSORBIT =      F    spin-orbit coupling
   INIWAV =      1    electr: 0-lowe 1-rand  2-diag
   LASPH  =      F    aspherical Exc in radial PAW
   METAGGA=      F    non-selfconsistent MetaGGA calc.

 Electronic Relaxation 1
   ENCUT  =  550.0 eV  40.42 Ry    6.36 a.u.  20.28 20.20 58.19*2*pi/ulx,y,z
   ENINI  =  550.0     initial cutoff
   ENAUG  =  368.8 eV  augmentation charge cutoff
   NELM   =    100;   NELMIN=  6; NELMDL= -5     # of ELM steps 
   EDIFF  = 0.1E-05   stopping-criterion for ELM
   LREAL  =      F    real-space projection
   NLSPLINE    = F    spline interpolate recip. space projectors
   LCOMPAT=      F    compatible to vasp.4.4
   GGA_COMPAT  = T    GGA compatible to vasp.4.4-vasp.4.6
   LMAXPAW     = -100 max onsite density
   LMAXMIX     =    2 max onsite mixed and CHGCAR
   VOSKOWN=      0    Vosko Wilk Nusair interpolation
   ROPT   =    0.00000   0.00000
 Ionic relaxation
   EDIFFG = 0.1E-04   stopping-criterion for IOM
   NSW    =     10    number of steps for IOM
   NBLOCK =      1;   KBLOCK =      1    inner block; outer block 
   IBRION =      0    ionic relax: 0-MD 1-quasi-New 2-CG
   NFREE  =      0    steps in history (QN), initial steepest desc. (CG)
   ISIF   =      2    stress and relaxation
   IWAVPR =     11    prediction:  0-non 1-charg 2-wave 3-comb
   ISYM   =      0    0-nonsym 1-usesym 2-fastsym
   LCORR  =      T    Harris-Foulkes like correction to forces

   POTIM  = 2.0000    time-step for ionic-motion
   TEIN   =  100.0    initial temperature
   TEBEG  =  100.0;   TEEND  = 100.0 temperature during run
   SMASS  =   0.04    Nose mass-parameter (am)
   estimated Nose-frequenzy (Omega)   =  0.79E+14 period in steps = 0.40E+02 mass=   0.327E-28a.u.
   SCALEE = 1.0000    scale energy and forces
   NPACO  =    256;   APACO  = 16.0  distance and # of slots for P.C.
   PSTRESS=    0.0 pullay stress

  Mass of Ions in am
   POMASS = 127.60 95.94
  Ionic Valenz
   ZVAL   =   6.00  6.00
  Atomic Wigner-Seitz radii
   RWIGS  =  -1.00 -1.00
  virtual crystal weights 
   VCA    =   1.00  1.00
   NELECT =     324.0000    total number of electrons
   NUPDOWN=      -1.0000    fix difference up-down

 DOS related values:
   EMIN   =  10.00;   EMAX   =-10.00  energy-range for DOS
   EFERMI =   0.00
   ISMEAR =     0;   SIGMA  =   0.10  broadening in eV -4-tet -1-fermi 0-gaus

 Electronic relaxation 2 (details)
   IALGO  =     68    algorithm
   LDIAG  =      T    sub-space diagonalisation (order eigenvalues)
   LSUBROT=      F    optimize rotation matrix (better conditioning)
   TURBO    =      0    0=normal 1=particle mesh
   IRESTART =      0    0=no restart 2=restart with 2 vectors
   NREBOOT  =      0    no. of reboots
   NMIN     =      0    reboot dimension
   EREF     =   0.00    reference energy to select bands
   IMIX   =      4    mixing-type and parameters
     AMIX     =   0.40;   BMIX     =  1.00
     AMIX_MAG =   1.60;   BMIX_MAG =  1.00
     AMIN     =   0.10
     WC   =   100.;   INIMIX=   1;  MIXPRE=   1;  MAXMIX= -45

 Intra band minimization:
   WEIMIN = 0.0010     energy-eigenvalue tresh-hold
   EBREAK =  0.13E-08  absolut break condition
   DEPER  =   0.30     relativ break condition  

   TIME   =   0.40     timestep for ELM

  volume/ion in A,a.u.               =      53.97       364.19
  Fermi-wavevector in a.u.,A,eV,Ry     =   0.787193  1.487578  8.431152  0.619672
  Thomas-Fermi vector in A             =   1.891884
 
 Write flags
   LWAVE        =      F    write WAVECAR
   LDOWNSAMPLE  =      F    k-point downsampling of WAVECAR
   LCHARG       =      F    write CHGCAR
   LVTOT        =      F    write LOCPOT, total local potential
   LVHAR        =      F    write LOCPOT, Hartree potential only
   LELF         =      F    write electronic localiz. function (ELF)
   LORBIT       =      0    0 simple, 1 ext, 2 COOP (PROOUT), +10 PAW based schemes


 Dipole corrections
   LMONO  =      F    monopole corrections only (constant potential shift)
   LDIPOL =      F    correct potential (dipole corrections)
   IDIPOL =      0    1-x, 2-y, 3-z, 4-all directions 
   EPSILON=  1.0000000 bulk dielectric constant

 Exchange correlation treatment:
   GGA     =    --    GGA type
   LEXCH   =     8    internal setting for exchange type
   VOSKOWN=      0    Vosko Wilk Nusair interpolation
   LHFCALC =     F    Hartree Fock is set to
   LHFONE  =     F    Hartree Fock one center treatment
   AEXX    =    0.0000 exact exchange contribution

 Linear response parameters
   LEPSILON=     F    determine dielectric tensor
   LRPA    =     F    only Hartree local field effects (RPA)
   LNABLA  =     F    use nabla operator in PAW spheres
   LVEL    =     F    velocity operator in full k-point grid
   LINTERFAST=   F  fast interpolation
   KINTER  =     0    interpolate to denser k-point grid
   CSHIFT  =0.1000    complex shift for real part using Kramers Kronig
   OMEGAMAX=  -1.0    maximum frequency
   DEG_THRESHOLD= 0.2000000E-02 threshold for treating states as degnerate
   RTIME   =   -0.100 relaxation time in fs
  (WPLASMAI=    0.000 imaginary part of plasma frequency in eV, 0.658/RTIME)
   DFIELD  = 0.0000000 0.0000000 0.0000000 field for delta impulse in time
 
 Orbital magnetization related:
   ORBITALMAG=     F  switch on orbital magnetization
   LCHIMAG   =     F  perturbation theory with respect to B field
   DQ        =  0.001000  dq finite difference perturbation B field
   LLRAUG    =     F  two centre corrections for induced B field



--------------------------------------------------------------------------------------------------------


 molecular dynamics for ions
   using nose mass (canonical ensemble)
 charge density and potential will be updated during run
 non-spin polarized calculation
 RMM-DIIS sequential band-by-band and
  variant of blocked Davidson during initial phase
 perform sub-space diagonalisation
    before iterative eigenvector-optimisation
 modified Broyden-mixing scheme, WC =      100.0
 initial mixing is a Kerker type mixing with AMIX =  0.4000 and BMIX =      1.0000
 Hartree-type preconditioning will be used
 using additional bands           38
 reciprocal scheme for non local part
 use partial core corrections
 calculate Harris-corrections to forces 
   (improved forces if not selfconsistent)
 use gradient corrections 
 use of overlap-Matrix (Vanderbilt PP)
 Gauss-broadening in eV      SIGMA  =   0.10


--------------------------------------------------------------------------------------------------------


  energy-cutoff  :      550.00
  volume of cell :     2914.25
      direct lattice vectors                 reciprocal lattice vectors
    10.607406091  0.000000000  0.000000000     0.094273755  0.057214658 -0.000721034
    -5.481706062  9.032318535  0.000000000     0.000000000  0.110713544  0.002542886
     0.656634093 -0.698625097 30.417116381     0.000000000  0.000000000  0.032876226

  length of vectors
    10.607406091 10.565598870 30.432223288     0.110279544  0.110742743  0.032876226


 
 k-points in units of 2pi/SCALE and weight: read from INCAR                         
   0.00000000  0.00000000  0.00000000       0.111
   0.03142458  0.01907155 -0.00024034       0.222
   0.00000000  0.03690451  0.00084763       0.222
   0.03142458  0.05597607  0.00060728       0.222
  -0.03142458  0.01783296  0.00108797       0.222
 
 k-points in reciprocal lattice and weights: read from INCAR                         
   0.00000000  0.00000000  0.00000000       0.111
   0.33333333  0.00000000  0.00000000       0.222
   0.00000000  0.33333333 -0.00000000       0.222
   0.33333333  0.33333333 -0.00000000       0.222
  -0.33333333  0.33333333  0.00000000       0.222
 
 position of ions in fractional coordinates (direct lattice) 
   0.11128009  0.22243762  0.32073260
   0.11081711  0.55521246  0.32060972
   0.11117515  0.88890392  0.32064214
   0.44439582  0.22211420  0.32063936
   0.44409202  0.55509606  0.32086120
   0.44439454  0.88894186  0.32057246
   0.77762778  0.22242890  0.32055948
   0.77790011  0.55542510  0.32056571
   0.77744668  0.88894979  0.32059151
   0.22299896  0.05594700  0.55828825
   0.22212451  0.38912389  0.55854231
   0.22186055  0.72217613  0.55850394
   0.55579006  0.05590793  0.55850365
   0.55532165  0.38880170  0.55847192
   0.55570410  0.72210960  0.55866243
   0.88937002  0.05602859  0.55840802
   0.88950644  0.38944474  0.55868146
   0.88886292  0.72223046  0.55847059
   0.11107631  0.22160051  0.44138539
   0.11109959  0.55555332  0.44153487
   0.11109999  0.88817863  0.44145132
   0.44395956  0.22199414  0.44147202
   0.44414830  0.55495552  0.44136426
   0.44442207  0.88895563  0.44154039
   0.77721497  0.22218144  0.44165044
   0.77754807  0.55571065  0.44173529
   0.77783539  0.88815411  0.44155849
   0.22240266  0.05581188  0.67956372
   0.22291501  0.38935372  0.67925638
   0.22240751  0.72243948  0.67933990
   0.55557613  0.05557419  0.67931737
   0.55598678  0.38904776  0.67919095
   0.55546450  0.72249034  0.67929445
   0.88892863  0.05536697  0.67937188
   0.88888203  0.38910012  0.67921817
   0.88841021  0.72228761  0.67916915
   0.99984322  0.00013423  0.38120446
   0.99997550  0.33303894  0.38119382
   0.99962113  0.66639130  0.38100674
   0.33345456  0.00000720  0.38108107
   0.33377214  0.33339582  0.38101218
   0.33319312  0.66729089  0.38102276
   0.66609536  0.99967774  0.38129130
   0.66652690  0.33311174  0.38118875
   0.66636715  0.66612119  0.38123958
   0.11133248  0.16712428  0.61901547
   0.11110644  0.49999422  0.61891042
   0.11150161  0.83327446  0.61892625
   0.44445527  0.16667125  0.61890824
   0.44428077  0.49979861  0.61912448
   0.44437118  0.83350948  0.61892329
   0.77776740  0.16666570  0.61891158
   0.77765585  0.50022277  0.61885793
   0.77846303  0.83390999  0.61899927
 
 position of ions in cartesian coordinates  (Angst):
   0.17165941  1.78505557  9.75576086
  -1.65750616  4.79086976  9.75202305
  -3.48288544  7.80485469  9.75300927
   3.70686488  1.78219951  9.75292466
   1.87847933  4.78964274  9.75967254
   0.05145421  7.80524608  9.75088980
   7.23981404  1.78509781  9.75049516
   5.41731955  4.79282118  9.75068443
   3.58424253  7.80530436  9.75146916
   2.42534665  0.11529697 16.98151869
   0.58985998  3.12447929 16.98924638
  -1.23865959  6.13273994 16.98807947
   5.95575259  0.11479357 16.98807059
   4.12593733  3.12161828 16.98710533
   2.30302324  6.13202834 16.99290020
   9.49344640  0.11595025 16.98516159
   7.66738372  3.12728010 16.99347899
   5.83618572  6.13325400 16.98706494
   0.25331135  1.69320348 13.42567068
  -1.57697472  4.70946723 13.43021739
  -3.40037947  7.71390334 13.42767604
   3.78223830  1.69669834 13.42830591
   1.95897318  4.70418684 13.42502808
   0.13110240  7.72085919 13.43038533
   7.31630418  1.69826545 13.43373292
   5.49158416  4.71074826 13.43631384
   3.67215838  7.71360701 13.43093583
   2.49939570  0.02935040 20.67036885
   0.67625033  3.04222124 20.66102026
  -1.15495635  6.05069964 20.66356086
   6.03464322  0.02737565 20.66287547
   4.21091207  3.03950344 20.65903012
   2.37760580  6.05119071 20.66217840
   9.57182020  0.02546590 20.66453365
   7.74179802  3.03995739 20.65985810
   5.91032515  6.04944713 20.65836702
  10.85531907 -0.26510664 11.59514056
   9.03182950  2.74180223 11.59481691
   7.20060803  5.75287759 11.58912630
   3.78727925 -0.26616773 11.59138719
   1.96306429  2.74515261 11.58929182
   0.12661479  5.76099181 11.58961372
   1.83597332  8.76302813 11.59778184
   5.49440242  2.74246327 11.59466248
   3.66728131  5.75027525 11.59620863
   0.67128925  1.07706001 18.82866561
  -1.15587254  4.08372069 18.82547038
  -2.97861469  7.09400295 18.82595183
   4.20727092  1.07304301 18.82540382
   2.37945576  4.08180433 18.83198136
   0.55097775  7.09612779 18.82586188
   7.74288070  1.07299052 18.82550565
   5.91320039  4.08582168 18.82387353
   4.09268009  7.09969223 18.82817274
 


--------------------------------------------------------------------------------------------------------


 k-point   1 :   0.0000 0.0000 0.0000  plane waves:   85383
 k-point   2 :   0.3333 0.0000 0.0000  plane waves:   85361
 k-point   3 :   0.0000 0.3333-0.0000  plane waves:   85374
 k-point   4 :   0.3333 0.3333-0.0000  plane waves:   85361
 k-point   5 :  -0.3333 0.3333 0.0000  plane waves:   85324

 maximum and minimum number of plane-waves per node :     85383    85324

 maximum number of plane-waves:     85383
 maximum index in each direction: 
   IXMAX=   20   IYMAX=   20   IZMAX=   58
   IXMIN=  -20   IYMIN=  -20   IZMIN=  -58


 serial   3D FFT for wavefunctions
 parallel 3D FFT for charge:
    minimum data exchange during FFTs selected (reduces bandwidth)


 total amount of memory used by VASP MPI-rank0   372519. kBytes
=======================================================================

   base      :      30000. kBytes
   nonl-proj :     196761. kBytes
   fftplans  :      19943. kBytes
   grid      :      90496. kBytes
   one-center:        839. kBytes
   wavefun   :      34480. kBytes
 
     INWAV:  cpu time    0.0000: real time    0.0000
 Broyden mixing: mesh for mixing (old mesh)
   NGX = 41   NGY = 41   NGZ =117
  (NGX  =168   NGY  =168   NGZ  =480)
  gives a total of 196677 points

 initial charge density was supplied:
 charge density of overlapping atoms calculated
 number of electron     324.0000000 magnetization 
 keeping initial charge density in first step


--------------------------------------------------------------------------------------------------------


 Maximum index for augmentation-charges         2246 (set IRDMAX)


--------------------------------------------------------------------------------------------------------


 First call to EWALD:  gamma=   0.124
 Maximum number of real-space cells 4x 4x 2
 Maximum number of reciprocal cells 2x 2x 5

    FEWALD:  cpu time    0.0024: real time    0.0025


--------------------------------------- Iteration      1(   1)  ---------------------------------------


    POTLOK:  cpu time    0.3535: real time    0.3547
    SETDIJ:  cpu time    0.0157: real time    0.0159
     EDDAV:  cpu time   49.6991: real time   49.8062
       DOS:  cpu time    0.0009: real time    0.0010
    --------------------------------------------
      LOOP:  cpu time   50.0692: real time   50.1778

 eigenvalue-minimisations  :  2000
 total energy-change (2. order) : 0.2116589E+04  (-0.1152655E+05)
 number of electron     324.0000000 magnetization 
 augmentation part      324.0000000 magnetization 

 Free energy of the ion-electron system (eV)
  ---------------------------------------------------
  alpha Z        PSCENC =       246.26120469
  Ewald energy   TEWEN  =     64342.51089519
  -Hartree energ DENC   =    -76024.11639753
  -exchange      EXHF   =         0.00000000
  -V(xc)+E(xc)   XCENC  =     -2100.44721493
  PAW double counting   =      7476.04436201    -4809.59211051
  entropy T*S    EENTRO =        -0.13615694
  eigenvalues    EBANDS =      1032.98151517
  atomic energy  EATOM  =     11953.08265402
  Solvation  Ediel_sol  =         0.00000000
  ---------------------------------------------------
  free energy    TOTEN  =      2116.58875117 eV

  energy without entropy =     2116.72490811  energy(sigma->0) =     2116.65682964


--------------------------------------------------------------------------------------------------------




--------------------------------------- Iteration      1(   2)  ---------------------------------------


     EDDAV:  cpu time   69.5891: real time   69.8049
       DOS:  cpu time    0.0006: real time    0.0006
    --------------------------------------------
      LOOP:  cpu time   69.5897: real time   69.8055

 eigenvalue-minimisations  :  3040
 total energy-change (2. order) :-0.2214610E+04  (-0.2140133E+04)
 number of electron     324.0000000 magnetization 
 augmentation part      324.0000000 magnetization 

 Free energy of the ion-electron system (eV)
  ---------------------------------------------------
  alpha Z        PSCENC =       246.26120469
  Ewald energy   TEWEN  =     64342.51089519
  -Hartree energ DENC   =    -76024.11639753
  -exchange      EXHF   =         0.00000000
  -V(xc)+E(xc)   XCENC  =     -2100.44721493
  PAW double counting   =      7476.04436201    -4809.59211051
  entropy T*S    EENTRO =        -0.00237421
  eigenvalues    EBANDS =     -1181.76182931
  atomic energy  EATOM  =     11953.08265402
  Solvation  Ediel_sol  =         0.00000000
  ---------------------------------------------------
  free energy    TOTEN  =       -98.02081059 eV

  energy without entropy =      -98.01843637  energy(sigma->0) =      -98.01962348


--------------------------------------------------------------------------------------------------------




--------------------------------------- Iteration      1(   3)  ---------------------------------------


     EDDAV:  cpu time   58.8649: real time   59.0158
       DOS:  cpu time    0.0004: real time    0.0004
    --------------------------------------------
      LOOP:  cpu time   58.8652: real time   59.0162

 eigenvalue-minimisations  :  2480
 total energy-change (2. order) :-0.2257581E+03  (-0.2223058E+03)
 number of electron     324.0000000 magnetization 
 augmentation part      324.0000000 magnetization 

 Free energy of the ion-electron system (eV)
  ---------------------------------------------------
  alpha Z        PSCENC =       246.26120469
  Ewald energy   TEWEN  =     64342.51089519
  -Hartree energ DENC   =    -76024.11639753
  -exchange      EXHF   =         0.00000000
  -V(xc)+E(xc)   XCENC  =     -2100.44721493
  PAW double counting   =      7476.04436201    -4809.59211051
  entropy T*S    EENTRO =        -0.00000000
  eigenvalues    EBANDS =     -1407.52229766
  atomic energy  EATOM  =     11953.08265402
  Solvation  Ediel_sol  =         0.00000000
  ---------------------------------------------------
  free energy    TOTEN  =      -323.77890471 eV

  energy without entropy =     -323.77890471  energy(sigma->0) =     -323.77890471


--------------------------------------------------------------------------------------------------------




--------------------------------------- Iteration      1(   4)  ---------------------------------------


     EDDAV:  cpu time   71.0834: real time   71.2679
       DOS:  cpu time    0.0004: real time    0.0004
    --------------------------------------------
      LOOP:  cpu time   71.0837: real time   71.2683

 eigenvalue-minimisations  :  3120
 total energy-change (2. order) :-0.1211075E+02  (-0.1203460E+02)
 number of electron     324.0000000 magnetization 
 augmentation part      324.0000000 magnetization 

 Free energy of the ion-electron system (eV)
  ---------------------------------------------------
  alpha Z        PSCENC =       246.26120469
  Ewald energy   TEWEN  =     64342.51089519
  -Hartree energ DENC   =    -76024.11639753
  -exchange      EXHF   =         0.00000000
  -V(xc)+E(xc)   XCENC  =     -2100.44721493
  PAW double counting   =      7476.04436201    -4809.59211051
  entropy T*S    EENTRO =        -0.00000000
  eigenvalues    EBANDS =     -1419.63304484
  atomic energy  EATOM  =     11953.08265402
  Solvation  Ediel_sol  =         0.00000000
  ---------------------------------------------------
  free energy    TOTEN  =      -335.88965190 eV

  energy without entropy =     -335.88965190  energy(sigma->0) =     -335.88965190


--------------------------------------------------------------------------------------------------------




--------------------------------------- Iteration      1(   5)  ---------------------------------------


     EDDAV:  cpu time   68.0264: real time   68.2078
       DOS:  cpu time    0.0004: real time    0.0004
    CHARGE:  cpu time    1.1848: real time    1.1860
    MIXING:  cpu time    0.0076: real time    0.0078
    --------------------------------------------
      LOOP:  cpu time   69.2193: real time   69.4020

 eigenvalue-minimisations  :  2960
 total energy-change (2. order) :-0.3206882E+00  (-0.3200967E+00)
 number of electron     324.0000015 magnetization 
 augmentation part      -25.5331396 magnetization 

 Broyden mixing:
  rms(total) = 0.19087E+01    rms(broyden)= 0.19087E+01
  rms(prec ) = 0.20177E+01
  weight for this iteration     100.00

 Free energy of the ion-electron system (eV)
  ---------------------------------------------------
  alpha Z        PSCENC =       246.26120469
  Ewald energy   TEWEN  =     64342.51089519
  -Hartree energ DENC   =    -76024.11639753
  -exchange      EXHF   =         0.00000000
  -V(xc)+E(xc)   XCENC  =     -2100.44721493
  PAW double counting   =      7476.04436201    -4809.59211051
  entropy T*S    EENTRO =        -0.00000000
  eigenvalues    EBANDS =     -1419.95373308
  atomic energy  EATOM  =     11953.08265402
  Solvation  Ediel_sol  =         0.00000000
  ---------------------------------------------------
  free energy    TOTEN  =      -336.21034014 eV

  energy without entropy =     -336.21034014  energy(sigma->0) =     -336.21034014


--------------------------------------------------------------------------------------------------------




--------------------------------------- Iteration      1(   6)  ---------------------------------------


    POTLOK:  cpu time    0.3060: real time    0.3064
    SETDIJ:  cpu time    0.0114: real time    0.0114
    EDDIAG:  cpu time    2.6178: real time    2.6212
  RMM-DIIS:  cpu time   41.7027: real time   41.8037
    ORTHCH:  cpu time    0.2239: real time    0.2242
       DOS:  cpu time    0.0005: real time    0.0005
    CHARGE:  cpu time    1.1908: real time    1.1919
    MIXING:  cpu time    0.0073: real time    0.0073
    --------------------------------------------
      LOOP:  cpu time   46.0603: real time   46.1665

 eigenvalue-minimisations  :  2130
 total energy-change (2. order) : 0.9110002E+01  (-0.5334231E+01)
 number of electron     324.0000014 magnetization 
 augmentation part      -20.0105262 magnetization 

 Broyden mixing:
  rms(total) = 0.70529E+00    rms(broyden)= 0.70528E+00
  rms(prec ) = 0.81821E+00
  weight for this iteration     100.00

 eigenvalues of (default mixing * dielectric matrix)
  average eigenvalue GAMMA=   1.0537
  1.0537

 Free energy of the ion-electron system (eV)
  ---------------------------------------------------
  alpha Z        PSCENC =       246.26120469
  Ewald energy   TEWEN  =     64342.51089519
  -Hartree energ DENC   =    -76004.43514735
  -exchange      EXHF   =         0.00000000
  -V(xc)+E(xc)   XCENC  =     -2094.03948754
  PAW double counting   =      7671.04500114    -5015.80872318
  entropy T*S    EENTRO =        -0.00000000
  eigenvalues    EBANDS =     -1425.71673534
  atomic energy  EATOM  =     11953.08265402
  Solvation  Ediel_sol  =         0.00000000
  ---------------------------------------------------
  free energy    TOTEN  =      -327.10033837 eV

  energy without entropy =     -327.10033837  energy(sigma->0) =     -327.10033837


--------------------------------------------------------------------------------------------------------




--------------------------------------- Iteration      1(   7)  ---------------------------------------


    POTLOK:  cpu time    0.3109: real time    0.3112
    SETDIJ:  cpu time    0.0113: real time    0.0113
    EDDIAG:  cpu time    2.6093: real time    2.6121
  RMM-DIIS:  cpu time   39.8380: real time   39.9430
    ORTHCH:  cpu time    0.2202: real time    0.2204
       DOS:  cpu time    0.0004: real time    0.0004
    CHARGE:  cpu time    1.1812: real time    1.1824
    MIXING:  cpu time    0.0153: real time    0.0153
    --------------------------------------------
      LOOP:  cpu time   44.1867: real time   44.2961

 eigenvalue-minimisations  :  2018
 total energy-change (2. order) : 0.3262360E+01  (-0.1094021E+01)
 number of electron     324.0000014 magnetization 
 augmentation part      -21.8478856 magnetization 

 Broyden mixing:
  rms(total) = 0.47127E+00    rms(broyden)= 0.47127E+00
  rms(prec ) = 0.49854E+00
  weight for this iteration     100.00

 eigenvalues of (default mixing * dielectric matrix)
  average eigenvalue GAMMA=   1.4589
  0.7289  2.1889

 Free energy of the ion-electron system (eV)
  ---------------------------------------------------
  alpha Z        PSCENC =       246.26120469
  Ewald energy   TEWEN  =     64342.51089519
  -Hartree energ DENC   =    -76093.02818501
  -exchange      EXHF   =         0.00000000
  -V(xc)+E(xc)   XCENC  =     -2092.73281358
  PAW double counting   =      7954.75176229    -5304.49098706
  entropy T*S    EENTRO =        -0.00000000
  eigenvalues    EBANDS =     -1330.19250900
  atomic energy  EATOM  =     11953.08265402
  Solvation  Ediel_sol  =         0.00000000
  ---------------------------------------------------
  free energy    TOTEN  =      -323.83797847 eV

  energy without entropy =     -323.83797847  energy(sigma->0) =     -323.83797847


--------------------------------------------------------------------------------------------------------




--------------------------------------- Iteration      1(   8)  ---------------------------------------


    POTLOK:  cpu time    0.3102: real time    0.3106
    SETDIJ:  cpu time    0.0115: real time    0.0115
    EDDIAG:  cpu time    2.6123: real time    2.6191
  RMM-DIIS:  cpu time   39.2840: real time   39.3559
    ORTHCH:  cpu time    0.2305: real time    0.2307
       DOS:  cpu time    0.0006: real time    0.0006
    CHARGE:  cpu time    1.1913: real time    1.1923
    MIXING:  cpu time    0.0073: real time    0.0073
    --------------------------------------------
      LOOP:  cpu time   43.6477: real time   43.7279

 eigenvalue-minimisations  :  2008
 total energy-change (2. order) : 0.4603929E+00  (-0.7544240E+00)
 number of electron     324.0000014 magnetization 
 augmentation part      -21.5657831 magnetization 

 Broyden mixing:
  rms(total) = 0.12794E+00    rms(broyden)= 0.12794E+00
  rms(prec ) = 0.14786E+00
  weight for this iteration     100.00

 eigenvalues of (default mixing * dielectric matrix)
  average eigenvalue GAMMA=   1.2630
  2.1268  0.8312  0.8312

 Free energy of the ion-electron system (eV)
  ---------------------------------------------------
  alpha Z        PSCENC =       246.26120469
  Ewald energy   TEWEN  =     64342.51089519
  -Hartree energ DENC   =    -76150.38130892
  -exchange      EXHF   =         0.00000000
  -V(xc)+E(xc)   XCENC  =     -2088.94808599
  PAW double counting   =      8245.90281157    -5601.77907866
  entropy T*S    EENTRO =        -0.00000000
  eigenvalues    EBANDS =     -1270.02667747
  atomic energy  EATOM  =     11953.08265402
  Solvation  Ediel_sol  =         0.00000000
  ---------------------------------------------------
  free energy    TOTEN  =      -323.37758557 eV

  energy without entropy =     -323.37758557  energy(sigma->0) =     -323.37758557


--------------------------------------------------------------------------------------------------------




--------------------------------------- Iteration      1(   9)  ---------------------------------------


    POTLOK:  cpu time    0.3053: real time    0.3057
    SETDIJ:  cpu time    0.0112: real time    0.0113
    EDDIAG:  cpu time    2.6215: real time    2.6285
  RMM-DIIS:  cpu time   44.5161: real time   44.6178
    ORTHCH:  cpu time    0.2340: real time    0.2354
       DOS:  cpu time    0.0005: real time    0.0004
    CHARGE:  cpu time    1.1808: real time    1.1820
    MIXING:  cpu time    0.0074: real time    0.0074
    --------------------------------------------
      LOOP:  cpu time   48.8768: real time   48.9885

 eigenvalue-minimisations  :  2251
 total energy-change (2. order) :-0.5382999E-01  (-0.1459544E+00)
 number of electron     324.0000014 magnetization 
 augmentation part      -21.1701956 magnetization 

 Broyden mixing:
  rms(total) = 0.10154E+00    rms(broyden)= 0.10154E+00
  rms(prec ) = 0.11268E+00
  weight for this iteration     100.00

 eigenvalues of (default mixing * dielectric matrix)
  average eigenvalue GAMMA=   1.1669
  1.9450  1.5526  0.7260  0.4441

 Free energy of the ion-electron system (eV)
  ---------------------------------------------------
  alpha Z        PSCENC =       246.26120469
  Ewald energy   TEWEN  =     64342.51089519
  -Hartree energ DENC   =    -76148.53459576
  -exchange      EXHF   =         0.00000000
  -V(xc)+E(xc)   XCENC  =     -2088.62920242
  PAW double counting   =      8247.77312904    -5603.80962966
  entropy T*S    EENTRO =        -0.00000000
  eigenvalues    EBANDS =     -1272.08587067
  atomic energy  EATOM  =     11953.08265402
  Solvation  Ediel_sol  =         0.00000000
  ---------------------------------------------------
  free energy    TOTEN  =      -323.43141556 eV

  energy without entropy =     -323.43141556  energy(sigma->0) =     -323.43141556


--------------------------------------------------------------------------------------------------------




--------------------------------------- Iteration      1(  10)  ---------------------------------------


    POTLOK:  cpu time    0.3040: real time    0.3045
    SETDIJ:  cpu time    0.0112: real time    0.0112
    EDDIAG:  cpu time    2.6085: real time    2.6114
  RMM-DIIS:  cpu time   46.1991: real time   46.3305
    ORTHCH:  cpu time    0.2249: real time    0.2252
       DOS:  cpu time    0.0004: real time    0.0004
    CHARGE:  cpu time    1.1751: real time    1.1762
    MIXING:  cpu time    0.0119: real time    0.0119
    --------------------------------------------
      LOOP:  cpu time   50.5351: real time   50.6712

 eigenvalue-minimisations  :  2326
 total energy-change (2. order) :-0.7112286E-03  (-0.3943859E-01)
 number of electron     324.0000014 magnetization 
 augmentation part      -21.0051305 magnetization 

 Broyden mixing:
  rms(total) = 0.73144E-01    rms(broyden)= 0.73144E-01
  rms(prec ) = 0.82097E-01
  weight for this iteration     100.00

 eigenvalues of (default mixing * dielectric matrix)
  average eigenvalue GAMMA=   1.2965
  2.3507  1.9081  0.9140  0.9140  0.3958

 Free energy of the ion-electron system (eV)
  ---------------------------------------------------
  alpha Z        PSCENC =       246.26120469
  Ewald energy   TEWEN  =     64342.51089519
  -Hartree energ DENC   =    -76151.54505742
  -exchange      EXHF   =         0.00000000
  -V(xc)+E(xc)   XCENC  =     -2088.43020017
  PAW double counting   =      8262.75719594    -5618.80730177
  entropy T*S    EENTRO =        -0.00000000
  eigenvalues    EBANDS =     -1269.26151728
  atomic energy  EATOM  =     11953.08265402
  Solvation  Ediel_sol  =         0.00000000
  ---------------------------------------------------
  free energy    TOTEN  =      -323.43212679 eV

  energy without entropy =     -323.43212679  energy(sigma->0) =     -323.43212679


--------------------------------------------------------------------------------------------------------




--------------------------------------- Iteration      1(  11)  ---------------------------------------


    POTLOK:  cpu time    0.3098: real time    0.3101
    SETDIJ:  cpu time    0.0112: real time    0.0112
    EDDIAG:  cpu time    2.6189: real time    2.6259
  RMM-DIIS:  cpu time   42.0095: real time   42.1366
    ORTHCH:  cpu time    0.2336: real time    0.2338
       DOS:  cpu time    0.0004: real time    0.0004
    CHARGE:  cpu time    1.1627: real time    1.1637
    MIXING:  cpu time    0.0118: real time    0.0118
    --------------------------------------------
      LOOP:  cpu time   46.3579: real time   46.4935

 eigenvalue-minimisations  :  2125
 total energy-change (2. order) : 0.1230486E-01  (-0.1952085E-01)
 number of electron     324.0000014 magnetization 
 augmentation part      -21.3301955 magnetization 

 Broyden mixing:
  rms(total) = 0.38369E-01    rms(broyden)= 0.38369E-01
  rms(prec ) = 0.43528E-01
  weight for this iteration     100.00

 eigenvalues of (default mixing * dielectric matrix)
  average eigenvalue GAMMA=   1.2211
  2.5269  1.7025  1.3318  0.6874  0.6874  0.3904

 Free energy of the ion-electron system (eV)
  ---------------------------------------------------
  alpha Z        PSCENC =       246.26120469
  Ewald energy   TEWEN  =     64342.51089519
  -Hartree energ DENC   =    -76170.35076511
  -exchange      EXHF   =         0.00000000
  -V(xc)+E(xc)   XCENC  =     -2088.17246531
  PAW double counting   =      8313.46644957    -5669.73452054
  entropy T*S    EENTRO =        -0.00000000
  eigenvalues    EBANDS =     -1250.48327445
  atomic energy  EATOM  =     11953.08265402
  Solvation  Ediel_sol  =         0.00000000
  ---------------------------------------------------
  free energy    TOTEN  =      -323.41982193 eV

  energy without entropy =     -323.41982193  energy(sigma->0) =     -323.41982193


--------------------------------------------------------------------------------------------------------




--------------------------------------- Iteration      1(  12)  ---------------------------------------


    POTLOK:  cpu time    0.3113: real time    0.3116
    SETDIJ:  cpu time    0.0113: real time    0.0113
    EDDIAG:  cpu time    2.6441: real time    2.6468
  RMM-DIIS:  cpu time   47.8210: real time   47.9669
    ORTHCH:  cpu time    0.2159: real time    0.2161
       DOS:  cpu time    0.0004: real time    0.0004
    CHARGE:  cpu time    1.1688: real time    1.1699
    MIXING:  cpu time    0.0079: real time    0.0079
    --------------------------------------------
      LOOP:  cpu time   52.1807: real time   52.3309

 eigenvalue-minimisations  :  2424
 total energy-change (2. order) : 0.1118741E-02  (-0.3799955E-02)
 number of electron     324.0000014 magnetization 
 augmentation part      -21.3151160 magnetization 

 Broyden mixing:
  rms(total) = 0.27215E-01    rms(broyden)= 0.27214E-01
  rms(prec ) = 0.31305E-01
  weight for this iteration     100.00

 eigenvalues of (default mixing * dielectric matrix)
  average eigenvalue GAMMA=   1.2062
  2.5199  1.7722  1.7722  0.8015  0.8015  0.4033  0.3730

 Free energy of the ion-electron system (eV)
  ---------------------------------------------------
  alpha Z        PSCENC =       246.26120469
  Ewald energy   TEWEN  =     64342.51089519
  -Hartree energ DENC   =    -76173.59864112
  -exchange      EXHF   =         0.00000000
  -V(xc)+E(xc)   XCENC  =     -2088.07089942
  PAW double counting   =      8316.55536875    -5672.85407913
  entropy T*S    EENTRO =        -0.00000000
  eigenvalues    EBANDS =     -1247.30520618
  atomic energy  EATOM  =     11953.08265402
  Solvation  Ediel_sol  =         0.00000000
  ---------------------------------------------------
  free energy    TOTEN  =      -323.41870319 eV

  energy without entropy =     -323.41870319  energy(sigma->0) =     -323.41870319


--------------------------------------------------------------------------------------------------------




--------------------------------------- Iteration      1(  13)  ---------------------------------------


    POTLOK:  cpu time    0.3065: real time    0.3068
    SETDIJ:  cpu time    0.0161: real time    0.0161
    EDDIAG:  cpu time    2.6301: real time    2.6369
  RMM-DIIS:  cpu time   46.8289: real time   46.9567
    ORTHCH:  cpu time    0.2211: real time    0.2215
       DOS:  cpu time    0.0004: real time    0.0004
    CHARGE:  cpu time    1.1660: real time    1.1712
    MIXING:  cpu time    0.0120: real time    0.0120
    --------------------------------------------
      LOOP:  cpu time   51.1810: real time   51.3216

 eigenvalue-minimisations  :  2347
 total energy-change (2. order) : 0.1686574E-02  (-0.2402179E-02)
 number of electron     324.0000014 magnetization 
 augmentation part      -21.2064570 magnetization 

 Broyden mixing:
  rms(total) = 0.10494E-01    rms(broyden)= 0.10494E-01
  rms(prec ) = 0.13393E-01
  weight for this iteration     100.00

 eigenvalues of (default mixing * dielectric matrix)
  average eigenvalue GAMMA=   1.3010
  2.5176  2.5176  1.8733  1.1126  0.8027  0.8027  0.4071  0.3745

 Free energy of the ion-electron system (eV)
  ---------------------------------------------------
  alpha Z        PSCENC =       246.26120469
  Ewald energy   TEWEN  =     64342.51089519
  -Hartree energ DENC   =    -76175.87197851
  -exchange      EXHF   =         0.00000000
  -V(xc)+E(xc)   XCENC  =     -2087.98791074
  PAW double counting   =      8312.32732382    -5668.60933546
  entropy T*S    EENTRO =        -0.00000000
  eigenvalues    EBANDS =     -1245.12986962
  atomic energy  EATOM  =     11953.08265402
  Solvation  Ediel_sol  =         0.00000000
  ---------------------------------------------------
  free energy    TOTEN  =      -323.41701662 eV

  energy without entropy =     -323.41701662  energy(sigma->0) =     -323.41701662


--------------------------------------------------------------------------------------------------------




--------------------------------------- Iteration      1(  14)  ---------------------------------------


    POTLOK:  cpu time    0.3091: real time    0.3094
    SETDIJ:  cpu time    0.0112: real time    0.0112
    EDDIAG:  cpu time    2.6154: real time    2.6180
  RMM-DIIS:  cpu time   46.9330: real time   47.0765
    ORTHCH:  cpu time    0.2278: real time    0.2280
       DOS:  cpu time    0.0004: real time    0.0004
    CHARGE:  cpu time    1.1682: real time    1.1693
    MIXING:  cpu time    0.0081: real time    0.0081
    --------------------------------------------
      LOOP:  cpu time   51.2732: real time   51.4210

 eigenvalue-minimisations  :  2362
 total energy-change (2. order) :-0.5628183E-03  (-0.6185924E-03)
 number of electron     324.0000014 magnetization 
 augmentation part      -21.2130272 magnetization 

 Broyden mixing:
  rms(total) = 0.65107E-02    rms(broyden)= 0.65107E-02
  rms(prec ) = 0.85752E-02
  weight for this iteration     100.00

 eigenvalues of (default mixing * dielectric matrix)
  average eigenvalue GAMMA=   1.3044
  3.1985  2.5858  1.5329  1.5329  0.7993  0.7993  0.5100  0.4059  0.3753

 Free energy of the ion-electron system (eV)
  ---------------------------------------------------
  alpha Z        PSCENC =       246.26120469
  Ewald energy   TEWEN  =     64342.51089519
  -Hartree energ DENC   =    -76184.01151746
  -exchange      EXHF   =         0.00000000
  -V(xc)+E(xc)   XCENC  =     -2087.95850577
  PAW double counting   =      8310.62310134    -5666.80872393
  entropy T*S    EENTRO =        -0.00000000
  eigenvalues    EBANDS =     -1237.11668751
  atomic energy  EATOM  =     11953.08265402
  Solvation  Ediel_sol  =         0.00000000
  ---------------------------------------------------
  free energy    TOTEN  =      -323.41757944 eV

  energy without entropy =     -323.41757944  energy(sigma->0) =     -323.41757944


--------------------------------------------------------------------------------------------------------




--------------------------------------- Iteration      1(  15)  ---------------------------------------


    POTLOK:  cpu time    0.3063: real time    0.3107
    SETDIJ:  cpu time    0.0174: real time    0.0174
    EDDIAG:  cpu time    2.6209: real time    2.6279
  RMM-DIIS:  cpu time   48.4046: real time   48.5352
    ORTHCH:  cpu time    0.2242: real time    0.2244
       DOS:  cpu time    0.0005: real time    0.0004
    CHARGE:  cpu time    1.1600: real time    1.1651
    MIXING:  cpu time    0.0122: real time    0.0122
    --------------------------------------------
      LOOP:  cpu time   52.7460: real time   52.8933

 eigenvalue-minimisations  :  2445
 total energy-change (2. order) :-0.5538543E-03  (-0.1896117E-03)
 number of electron     324.0000014 magnetization 
 augmentation part      -21.2206636 magnetization 

 Broyden mixing:
  rms(total) = 0.48872E-02    rms(broyden)= 0.48872E-02
  rms(prec ) = 0.61155E-02
  weight for this iteration     100.00

 eigenvalues of (default mixing * dielectric matrix)
  average eigenvalue GAMMA=   1.2791
  3.3992  2.5054  1.6754  1.6754  0.7919  0.7919  0.7605  0.3724  0.4223  0.3967

 Free energy of the ion-electron system (eV)
  ---------------------------------------------------
  alpha Z        PSCENC =       246.26120469
  Ewald energy   TEWEN  =     64342.51089519
  -Hartree energ DENC   =    -76187.63973131
  -exchange      EXHF   =         0.00000000
  -V(xc)+E(xc)   XCENC  =     -2087.94350038
  PAW double counting   =      8310.49607719    -5666.65940607
  entropy T*S    EENTRO =        -0.00000000
  eigenvalues    EBANDS =     -1233.52632663
  atomic energy  EATOM  =     11953.08265402
  Solvation  Ediel_sol  =         0.00000000
  ---------------------------------------------------
  free energy    TOTEN  =      -323.41813329 eV

  energy without entropy =     -323.41813329  energy(sigma->0) =     -323.41813329


--------------------------------------------------------------------------------------------------------




--------------------------------------- Iteration      1(  16)  ---------------------------------------


    POTLOK:  cpu time    0.3129: real time    0.3132
    SETDIJ:  cpu time    0.0112: real time    0.0112
    EDDIAG:  cpu time    2.6233: real time    2.6261
  RMM-DIIS:  cpu time   51.7457: real time   51.8699
    ORTHCH:  cpu time    0.2303: real time    0.2305
       DOS:  cpu time    0.0005: real time    0.0005
    CHARGE:  cpu time    1.1668: real time    1.1720
    MIXING:  cpu time    0.0114: real time    0.0114
    --------------------------------------------
      LOOP:  cpu time   56.1020: real time   56.2348

 eigenvalue-minimisations  :  2587
 total energy-change (2. order) :-0.7598800E-03  (-0.5572230E-04)
 number of electron     324.0000014 magnetization 
 augmentation part      -21.2230021 magnetization 

 Broyden mixing:
  rms(total) = 0.35720E-02    rms(broyden)= 0.35720E-02
  rms(prec ) = 0.46105E-02
  weight for this iteration     100.00

 eigenvalues of (default mixing * dielectric matrix)
  average eigenvalue GAMMA=   1.3414
  3.7143  2.4074  2.0561  2.0561  1.0007  0.8090  0.8090  0.7312  0.3709  0.4082
  0.3922

 Free energy of the ion-electron system (eV)
  ---------------------------------------------------
  alpha Z        PSCENC =       246.26120469
  Ewald energy   TEWEN  =     64342.51089519
  -Hartree energ DENC   =    -76189.21473440
  -exchange      EXHF   =         0.00000000
  -V(xc)+E(xc)   XCENC  =     -2087.93419750
  PAW double counting   =      8310.36454537    -5666.53766459
  entropy T*S    EENTRO =        -0.00000000
  eigenvalues    EBANDS =     -1231.95159596
  atomic energy  EATOM  =     11953.08265402
  Solvation  Ediel_sol  =         0.00000000
  ---------------------------------------------------
  free energy    TOTEN  =      -323.41889317 eV

  energy without entropy =     -323.41889317  energy(sigma->0) =     -323.41889317


--------------------------------------------------------------------------------------------------------




--------------------------------------- Iteration      1(  17)  ---------------------------------------


    POTLOK:  cpu time    0.3082: real time    0.3086
    SETDIJ:  cpu time    0.0114: real time    0.0114
    EDDIAG:  cpu time    2.6411: real time    2.6438
  RMM-DIIS:  cpu time   42.1242: real time   42.2425
    ORTHCH:  cpu time    0.2205: real time    0.2207
       DOS:  cpu time    0.0005: real time    0.0005
    CHARGE:  cpu time    1.1686: real time    1.1737
    MIXING:  cpu time    0.0085: real time    0.0085
    --------------------------------------------
      LOOP:  cpu time   46.4830: real time   46.6098

 eigenvalue-minimisations  :  2077
 total energy-change (2. order) :-0.1819549E-02  (-0.3618956E-04)
 number of electron     324.0000014 magnetization 
 augmentation part      -21.2221122 magnetization 

 Broyden mixing:
  rms(total) = 0.15601E-02    rms(broyden)= 0.15601E-02
  rms(prec ) = 0.21788E-02
  weight for this iteration     100.00

 eigenvalues of (default mixing * dielectric matrix)
  average eigenvalue GAMMA=   1.4424
  4.6919  2.7142  2.2639  1.6184  1.6184  0.9764  0.8084  0.8084  0.6408  0.4081
  0.3706  0.3898

 Free energy of the ion-electron system (eV)
  ---------------------------------------------------
  alpha Z        PSCENC =       246.26120469
  Ewald energy   TEWEN  =     64342.51089519
  -Hartree energ DENC   =    -76192.82663472
  -exchange      EXHF   =         0.00000000
  -V(xc)+E(xc)   XCENC  =     -2087.91496093
  PAW double counting   =      8309.21101154    -5665.40257574
  entropy T*S    EENTRO =        -0.00000000
  eigenvalues    EBANDS =     -1228.34230678
  atomic energy  EATOM  =     11953.08265402
  Solvation  Ediel_sol  =         0.00000000
  ---------------------------------------------------
  free energy    TOTEN  =      -323.42071272 eV

  energy without entropy =     -323.42071272  energy(sigma->0) =     -323.42071272


--------------------------------------------------------------------------------------------------------




--------------------------------------- Iteration      1(  18)  ---------------------------------------


    POTLOK:  cpu time    0.3145: real time    0.3147
    SETDIJ:  cpu time    0.0119: real time    0.0119
    EDDIAG:  cpu time    2.6433: real time    2.6504
  RMM-DIIS:  cpu time   41.8188: real time   41.9503
    ORTHCH:  cpu time    0.2289: real time    0.2292
       DOS:  cpu time    0.0005: real time    0.0005
    CHARGE:  cpu time    1.1619: real time    1.1629
    MIXING:  cpu time    0.0085: real time    0.0085
    --------------------------------------------
      LOOP:  cpu time   46.1882: real time   46.3283

 eigenvalue-minimisations  :  2095
 total energy-change (2. order) :-0.9967347E-03  (-0.2864991E-04)
 number of electron     324.0000014 magnetization 
 augmentation part      -21.2200857 magnetization 

 Broyden mixing:
  rms(total) = 0.13477E-02    rms(broyden)= 0.13477E-02
  rms(prec ) = 0.16424E-02
  weight for this iteration     100.00

 eigenvalues of (default mixing * dielectric matrix)
  average eigenvalue GAMMA=   1.4377
  5.0938  2.7795  2.2823  1.7735  1.7735  0.9288  0.8154  0.8154  0.6593  0.6001
  0.4086  0.3708  0.3892

 Free energy of the ion-electron system (eV)
  ---------------------------------------------------
  alpha Z        PSCENC =       246.26120469
  Ewald energy   TEWEN  =     64342.51089519
  -Hartree energ DENC   =    -76195.00986578
  -exchange      EXHF   =         0.00000000
  -V(xc)+E(xc)   XCENC  =     -2087.90632402
  PAW double counting   =      8308.66556417    -5664.85042798
  entropy T*S    EENTRO =        -0.00000000
  eigenvalues    EBANDS =     -1226.17540976
  atomic energy  EATOM  =     11953.08265402
  Solvation  Ediel_sol  =         0.00000000
  ---------------------------------------------------
  free energy    TOTEN  =      -323.42170945 eV

  energy without entropy =     -323.42170945  energy(sigma->0) =     -323.42170945


--------------------------------------------------------------------------------------------------------




--------------------------------------- Iteration      1(  19)  ---------------------------------------


    POTLOK:  cpu time    0.3215: real time    0.3228
    SETDIJ:  cpu time    0.0173: real time    0.0173
    EDDIAG:  cpu time    2.6032: real time    2.6061
  RMM-DIIS:  cpu time   47.1101: real time   47.2361
    ORTHCH:  cpu time    0.2290: real time    0.2374
       DOS:  cpu time    0.0004: real time    0.0004
    CHARGE:  cpu time    1.1636: real time    1.1646
    MIXING:  cpu time    0.0127: real time    0.0127
    --------------------------------------------
      LOOP:  cpu time   51.4577: real time   51.5973

 eigenvalue-minimisations  :  2346
 total energy-change (2. order) :-0.4350977E-03  (-0.7578325E-05)
 number of electron     324.0000014 magnetization 
 augmentation part      -21.2192054 magnetization 

 Broyden mixing:
  rms(total) = 0.11551E-02    rms(broyden)= 0.11551E-02
  rms(prec ) = 0.13763E-02
  weight for this iteration     100.00

 eigenvalues of (default mixing * dielectric matrix)
  average eigenvalue GAMMA=   1.5362
  6.2998  3.0168  2.4583  1.9256  1.9256  1.0378  1.0378  0.8061  0.8061  0.6391
  0.4090  0.3714  0.3893  0.3839

 Free energy of the ion-electron system (eV)
  ---------------------------------------------------
  alpha Z        PSCENC =       246.26120469
  Ewald energy   TEWEN  =     64342.51089519
  -Hartree energ DENC   =    -76195.55010197
  -exchange      EXHF   =         0.00000000
  -V(xc)+E(xc)   XCENC  =     -2087.90549833
  PAW double counting   =      8308.91255152    -5665.09519615
  entropy T*S    EENTRO =        -0.00000000
  eigenvalues    EBANDS =     -1225.63865352
  atomic energy  EATOM  =     11953.08265402
  Solvation  Ediel_sol  =         0.00000000
  ---------------------------------------------------
  free energy    TOTEN  =      -323.42214455 eV

  energy without entropy =     -323.42214455  energy(sigma->0) =     -323.42214455


--------------------------------------------------------------------------------------------------------




--------------------------------------- Iteration      1(  20)  ---------------------------------------


    POTLOK:  cpu time    0.3104: real time    0.3107
    SETDIJ:  cpu time    0.0113: real time    0.0113
    EDDIAG:  cpu time    2.6205: real time    2.6273
  RMM-DIIS:  cpu time   42.0118: real time   42.1371
    ORTHCH:  cpu time    0.2233: real time    0.2235
       DOS:  cpu time    0.0005: real time    0.0005
    CHARGE:  cpu time    1.1606: real time    1.1636
    MIXING:  cpu time    0.0095: real time    0.0095
    --------------------------------------------
      LOOP:  cpu time   46.3479: real time   46.4835

 eigenvalue-minimisations  :  2075
 total energy-change (2. order) :-0.4821623E-03  (-0.5751090E-05)
 number of electron     324.0000014 magnetization 
 augmentation part      -21.2193169 magnetization 

 Broyden mixing:
  rms(total) = 0.45409E-03    rms(broyden)= 0.45409E-03
  rms(prec ) = 0.55892E-03
  weight for this iteration     100.00

 eigenvalues of (default mixing * dielectric matrix)
  average eigenvalue GAMMA=   1.5663
  6.9726  3.2249  2.5047  1.8477  1.8477  1.2216  1.2216  0.8036  0.8036  0.8400
  0.6596  0.4086  0.3904  0.3704  0.3773

 Free energy of the ion-electron system (eV)
  ---------------------------------------------------
  alpha Z        PSCENC =       246.26120469
  Ewald energy   TEWEN  =     64342.51089519
  -Hartree energ DENC   =    -76196.15114193
  -exchange      EXHF   =         0.00000000
  -V(xc)+E(xc)   XCENC  =     -2087.90559959
  PAW double counting   =      8309.41997900    -5665.60154038
  entropy T*S    EENTRO =        -0.00000000
  eigenvalues    EBANDS =     -1225.03907771
  atomic energy  EATOM  =     11953.08265402
  Solvation  Ediel_sol  =         0.00000000
  ---------------------------------------------------
  free energy    TOTEN  =      -323.42262671 eV

  energy without entropy =     -323.42262671  energy(sigma->0) =     -323.42262671


--------------------------------------------------------------------------------------------------------




--------------------------------------- Iteration      1(  21)  ---------------------------------------


    POTLOK:  cpu time    0.3172: real time    0.3215
    SETDIJ:  cpu time    0.0114: real time    0.0114
    EDDIAG:  cpu time    2.6196: real time    2.6306
  RMM-DIIS:  cpu time   42.3902: real time   42.5104
    ORTHCH:  cpu time    0.2201: real time    0.2203
       DOS:  cpu time    0.0004: real time    0.0004
    CHARGE:  cpu time    1.1654: real time    1.1708
    MIXING:  cpu time    0.0090: real time    0.0090
    --------------------------------------------
      LOOP:  cpu time   46.7333: real time   46.8743

 eigenvalue-minimisations  :  2037
 total energy-change (2. order) :-0.1382473E-03  (-0.1672816E-05)
 number of electron     324.0000014 magnetization 
 augmentation part      -21.2206109 magnetization 

 Broyden mixing:
  rms(total) = 0.42232E-03    rms(broyden)= 0.42232E-03
  rms(prec ) = 0.49534E-03
  weight for this iteration     100.00

 eigenvalues of (default mixing * dielectric matrix)
  average eigenvalue GAMMA=   1.5417
  7.2537  3.2889  2.5043  1.9050  1.9050  1.5682  1.0949  0.9342  0.8049  0.8049
  0.6541  0.4081  0.3707  0.3856  0.3920  0.3920

 Free energy of the ion-electron system (eV)
  ---------------------------------------------------
  alpha Z        PSCENC =       246.26120469
  Ewald energy   TEWEN  =     64342.51089519
  -Hartree energ DENC   =    -76196.33619268
  -exchange      EXHF   =         0.00000000
  -V(xc)+E(xc)   XCENC  =     -2087.90638293
  PAW double counting   =      8309.45016795    -5665.63313905
  entropy T*S    EENTRO =        -0.00000000
  eigenvalues    EBANDS =     -1224.85197214
  atomic energy  EATOM  =     11953.08265402
  Solvation  Ediel_sol  =         0.00000000
  ---------------------------------------------------
  free energy    TOTEN  =      -323.42276496 eV

  energy without entropy =     -323.42276496  energy(sigma->0) =     -323.42276496


--------------------------------------------------------------------------------------------------------




--------------------------------------- Iteration      1(  22)  ---------------------------------------


    POTLOK:  cpu time    0.3148: real time    0.3152
    SETDIJ:  cpu time    0.0116: real time    0.0116
    EDDIAG:  cpu time    2.6123: real time    2.6151
  RMM-DIIS:  cpu time   30.9323: real time   31.0121
    ORTHCH:  cpu time    0.2337: real time    0.2340
       DOS:  cpu time    0.0005: real time    0.0005
    CHARGE:  cpu time    1.1736: real time    1.1748
    MIXING:  cpu time    0.0131: real time    0.0131
    --------------------------------------------
      LOOP:  cpu time   35.2920: real time   35.3764

 eigenvalue-minimisations  :  1456
 total energy-change (2. order) :-0.6421861E-04  (-0.4562874E-06)
 number of electron     324.0000014 magnetization 
 augmentation part      -21.2209408 magnetization 

 Broyden mixing:
  rms(total) = 0.28339E-03    rms(broyden)= 0.28339E-03
[...]
 -0.000  -0.000   0.000  -0.000   0.000   0.011   0.000   0.000
  0.000  -0.000  -0.000   0.000   0.000   0.000   0.011  -0.000
  0.000   0.000   0.000   0.000   0.000   0.000  -0.000   0.011
  0.001  -0.000  -0.000  -0.000  -0.000   0.000   0.000  -0.000
  0.000   0.000   0.014   0.000  -0.000   0.000  -0.000   0.000
 -0.009  -0.000  -0.000   0.019   0.000  -0.000   0.000  -0.000
 -0.000  -0.000  -0.000  -0.000   0.014   0.000   0.000   0.000
 -0.000   0.000  -0.001   0.000  -0.000  -0.000  -0.000   0.000
 total augmentation occupancy for first ion, spin component:           1
  1.934   0.209   0.006  -0.200  -0.005  -0.000  -0.042   0.002  -0.001   0.001   0.007  -0.001   0.001
  0.209   1.357  -0.015   0.932   0.009  -0.002  -0.370  -0.001   0.003  -0.002  -0.023   0.002  -0.002
  0.006  -0.015   1.332   0.005  -0.008  -0.472   0.002   0.005   0.003   0.114   0.003  -0.002   0.045
 -0.200   0.932   0.005   1.499  -0.009   0.002  -0.546  -0.000  -0.003   0.001   0.040  -0.001   0.003
 -0.005   0.009  -0.008  -0.009   1.340   0.005  -0.000  -0.480   0.040  -0.002  -0.002   0.119  -0.000
 -0.000  -0.002  -0.472   0.002   0.005   0.307  -0.001   0.003   0.001  -0.037   0.001   0.001  -0.007
 -0.042  -0.370   0.002  -0.546  -0.000  -0.001   0.287   0.001  -0.000  -0.000  -0.045   0.000  -0.000
  0.002  -0.001   0.005  -0.000  -0.480   0.003   0.001   0.304  -0.008   0.001  -0.000  -0.038   0.001
 -0.001   0.003   0.003  -0.003   0.040   0.001  -0.000  -0.008   0.021  -0.000  -0.000  -0.000  -0.000
  0.001  -0.002   0.114   0.001  -0.002  -0.037  -0.000   0.001  -0.000   0.018   0.000  -0.000  -0.000
  0.007  -0.023   0.003   0.040  -0.002   0.001  -0.045  -0.000  -0.000   0.000   0.020  -0.000  -0.000
 -0.001   0.002  -0.002  -0.001   0.119   0.001   0.000  -0.038  -0.000  -0.000  -0.000   0.018  -0.000
  0.001  -0.002   0.045   0.003  -0.000  -0.007  -0.000   0.001  -0.000  -0.000  -0.000  -0.000   0.020


------------------------ aborting loop because EDIFF is reached ----------------------------------------


    CHARGE:  cpu time    1.1723: real time    1.1736
    FORLOC:  cpu time    0.0828: real time    0.0828
    FORNL :  cpu time   13.9345: real time   13.9830
    STRESS:  cpu time   72.0521: real time   72.2321
    FORCOR:  cpu time    0.3417: real time    0.3420
    FORHAR:  cpu time    0.1456: real time    0.1457
    MIXING:  cpu time    0.0077: real time    0.0077
    OFIELD:  cpu time    0.0000: real time    0.0000

  Number of pair interactions contributing to vdW energy:  270937
  Edisp (eV):  -19.42441
    FORVDW:  cpu time    0.0297: real time    0.0297

  FORCE on cell =-STRESS in cart. coord.  units (eV):
  Direction    XX          YY          ZZ          XY          YZ          ZX
  --------------------------------------------------------------------------------------
  Alpha Z   246.26120   246.26120   246.26120
  Ewald   73578.60506 73669.32953-82784.95403    45.84671    53.71329   -37.41041
  Hartree 75935.22179 75960.05110-75580.75610    13.08047     8.22347    -4.24397
  E(xc)   -1353.96042 -1355.00925 -1373.11127    -0.54051    -1.59443     1.48264
  Local  ************************153307.49983   -57.42069   -60.14629    41.45479
  n-local  3551.05477  3552.00855  3736.01940    -0.32992    10.80994   -10.66502
  augment  -761.06061  -759.80254  -801.04703     0.83031    -1.55654     1.76486
  Kinetic  3288.45283  3301.84366  3248.97413     8.55253     9.32128    -5.84006
  Fock        0.00000     0.00000     0.00000     0.00000     0.00000     0.00000
  vdW       -12.68269   -12.20862    -9.64154     0.25358     0.25759     0.59163
  -------------------------------------------------------------------------------------
  Total      -6.31018    12.61532   -10.75540    10.27247    19.02831   -12.86553
  in kB      -3.46917     6.93557    -5.91304     5.64754    10.46127    -7.07313
  external pressure =       -0.82 kB  Pullay stress =        0.00 kB

  kinetic pressure (ideal gas correction) =      0.21 kB
  total pressure  =     -0.60 kB
  Total+kin.    -3.280       7.108      -5.637       5.643      10.392      -7.009

 VOLUME and BASIS-vectors are now :
 -----------------------------------------------------------------------------
  energy-cutoff  :      550.00
  volume of cell :     2914.25
      direct lattice vectors                 reciprocal lattice vectors
    10.607406091  0.000000000  0.000000000     0.094273755  0.057214658 -0.000721034
    -5.481706062  9.032318535  0.000000000     0.000000000  0.110713544  0.002542886
     0.656634093 -0.698625097 30.417116381     0.000000000  0.000000000  0.032876226

  length of vectors
    10.607406091 10.565598870 30.432223288     0.110279544  0.110742743  0.032876226


 FORCES acting on ions
    electron-ion (+dipol)            ewald-force                    non-local-force                 convergence-correction
 -----------------------------------------------------------------------------------------------
   0.635E+00 0.373E+00 0.850E+03   -.694E+00 -.339E+00 -.855E+03   0.306E+00 -.274E+00 0.531E+01   -.426E-03 0.645E-03 0.174E-02
   0.564E+00 0.283E+01 0.851E+03   -.594E+00 -.277E+01 -.856E+03   0.152E+00 -.428E+00 0.540E+01   0.504E-03 -.150E-02 0.260E-03
   0.604E+00 -.118E+01 0.851E+03   -.617E+00 0.122E+01 -.856E+03   0.237E+00 -.261E-01 0.526E+01   0.295E-04 0.896E-03 -.233E-03
   -.701E+00 0.673E+00 0.848E+03   0.618E+00 -.731E+00 -.853E+03   0.304E+00 -.141E+00 0.536E+01   -.130E-02 -.283E-03 0.433E-03
   0.485E+00 -.262E+01 0.847E+03   -.472E+00 0.266E+01 -.853E+03   0.203E-01 0.379E-01 0.529E+01   -.485E-03 -.121E-02 0.367E-03
   -.254E+01 -.191E+01 0.849E+03   0.254E+01 0.192E+01 -.855E+03   0.230E+00 0.345E-01 0.546E+01   0.265E-03 0.536E-03 0.318E-03
   -.730E+00 0.131E+01 0.850E+03   0.697E+00 -.133E+01 -.855E+03   0.340E+00 -.182E+00 0.550E+01   0.169E-02 -.449E-03 0.687E-03
   0.382E-03 -.171E+01 0.849E+03   -.524E-01 0.172E+01 -.854E+03   0.333E+00 0.608E-01 0.547E+01   0.759E-05 0.582E-04 -.118E-02
   0.296E+01 -.479E-01 0.847E+03   -.303E+01 0.706E-01 -.852E+03   0.912E-02 -.156E+00 0.538E+01   -.300E-03 0.115E-02 0.211E-03
   0.268E+01 -.533E+00 -.111E+03   -.272E+01 0.655E+00 0.105E+03   0.375E-01 -.220E+00 0.551E+01   -.458E-03 0.718E-03 0.125E-02
   -.101E+01 -.273E+00 -.111E+03   0.984E+00 0.349E+00 0.106E+03   0.339E+00 -.232E+00 0.558E+01   -.699E-03 -.106E-02 0.118E-02
   0.570E+00 0.113E+01 -.112E+03   -.586E+00 -.963E+00 0.106E+03   -.569E-01 -.513E+00 0.532E+01   -.120E-02 -.105E-02 0.274E-04
   -.469E+01 -.126E+01 -.116E+03   0.471E+01 0.143E+01 0.111E+03   0.383E+00 -.395E+00 0.515E+01   -.479E-03 0.161E-02 0.556E-04
   -.214E+01 -.979E+00 -.113E+03   0.206E+01 0.112E+01 0.108E+03   0.461E+00 -.269E+00 0.526E+01   -.172E-03 -.973E-03 0.722E-03
   -.107E+01 -.253E+01 -.115E+03   0.103E+01 0.261E+01 0.110E+03   0.252E+00 -.636E-01 0.568E+01   0.465E-03 -.704E-03 -.918E-03
   0.274E+01 -.548E+00 -.114E+03   -.285E+01 0.628E+00 0.108E+03   0.154E+00 -.702E-01 0.560E+01   0.900E-03 0.143E-02 0.626E-03
   0.369E+01 0.254E+01 -.113E+03   -.373E+01 -.245E+01 0.108E+03   -.202E+00 -.431E+00 0.516E+01   0.919E-03 -.953E-04 0.105E-02
   0.135E+01 0.417E-02 -.116E+03   -.141E+01 0.528E-01 0.110E+03   0.296E+00 -.134E+00 0.496E+01   0.778E-03 0.144E-03 0.227E-03
   0.283E+01 0.768E+00 0.113E+03   -.275E+01 -.907E+00 -.107E+03   -.447E+00 0.178E+00 -.544E+01   -.371E-03 0.814E-03 -.144E-02
   0.840E+00 0.915E+00 0.116E+03   -.748E+00 -.100E+01 -.110E+03   -.217E+00 0.290E+00 -.530E+01   0.444E-03 -.170E-02 -.286E-03
   0.474E+01 -.161E+01 0.112E+03   -.471E+01 0.144E+01 -.106E+03   -.454E+00 0.572E+00 -.558E+01   0.125E-03 0.955E-03 0.421E-03
   -.818E+00 -.497E+01 0.115E+03   0.886E+00 0.483E+01 -.110E+03   -.202E+00 0.799E+00 -.531E+01   -.131E-02 -.349E-03 -.235E-03
   0.163E+01 -.877E+00 0.116E+03   -.156E+01 0.736E+00 -.111E+03   -.467E+00 0.317E+00 -.530E+01   -.618E-03 -.129E-02 -.339E-03
   -.339E+00 -.112E+01 0.114E+03   0.426E+00 0.920E+00 -.108E+03   -.396E+00 0.406E+00 -.551E+01   0.197E-03 0.649E-03 -.363E-03
   0.174E+01 -.143E+01 0.112E+03   -.168E+01 0.131E+01 -.107E+03   -.271E+00 0.421E+00 -.536E+01   0.169E-02 -.295E-03 -.779E-03
   0.162E+01 -.366E+00 0.112E+03   -.159E+01 0.155E+00 -.107E+03   -.182E+00 0.487E+00 -.568E+01   0.112E-03 0.162E-04 0.117E-02
   0.338E+00 -.290E+01 0.112E+03   -.232E+00 0.280E+01 -.107E+03   -.250E+00 0.538E+00 -.572E+01   -.317E-03 0.120E-02 -.153E-03
   0.126E+01 -.310E+01 -.851E+03   -.113E+01 0.305E+01 0.856E+03   -.336E+00 0.412E+00 -.560E+01   -.454E-03 0.656E-03 -.873E-03
   0.978E+00 -.955E+00 -.849E+03   -.854E+00 0.800E+00 0.855E+03   -.338E+00 0.414E+00 -.533E+01   -.684E-03 -.974E-03 -.966E-03
   0.662E-01 -.100E+01 -.851E+03   0.684E-01 0.969E+00 0.856E+03   -.400E+00 0.209E+00 -.513E+01   -.125E-02 -.114E-02 0.482E-03
   0.151E+01 -.187E+01 -.849E+03   -.144E+01 0.180E+01 0.854E+03   -.503E+00 0.251E+00 -.552E+01   -.330E-03 0.161E-02 0.537E-03
   0.113E+01 0.337E+00 -.849E+03   -.108E+01 -.442E+00 0.854E+03   -.282E+00 0.247E+00 -.554E+01   -.897E-04 -.845E-03 -.296E-03
   0.907E+00 -.156E+01 -.847E+03   -.845E+00 0.142E+01 0.852E+03   -.230E+00 0.332E+00 -.544E+01   0.458E-03 -.614E-03 0.138E-02
   0.231E+01 -.374E+01 -.850E+03   -.220E+01 0.360E+01 0.855E+03   -.362E+00 0.759E+00 -.565E+01   0.825E-03 0.130E-02 -.163E-03
   0.240E+01 0.768E+00 -.851E+03   -.227E+01 -.869E+00 0.856E+03   -.521E+00 0.317E+00 -.532E+01   0.741E-03 -.561E-05 -.577E-03
   0.275E+01 -.170E+01 -.850E+03   -.269E+01 0.157E+01 0.855E+03   -.296E+00 0.583E+00 -.520E+01   0.717E-03 0.417E-04 0.401E-03
   -.121E+00 0.219E+01 0.481E+03   0.157E+00 -.220E+01 -.481E+03   0.925E-01 -.188E+00 0.470E+00   -.379E-03 0.184E-02 -.183E-03
   -.198E+00 0.167E+01 0.480E+03   0.179E+00 -.174E+01 -.481E+03   -.733E-01 0.194E+00 -.163E+00   0.971E-03 -.779E-03 -.802E-04
   0.289E+01 0.333E+01 0.483E+03   -.295E+01 -.341E+01 -.483E+03   -.391E+00 -.366E+00 0.986E-01   0.740E-03 -.115E-03 -.145E-03
   -.272E+01 0.133E+01 0.483E+03   0.271E+01 -.156E+01 -.483E+03   0.242E+00 -.288E+00 -.913E-02   -.246E-03 0.574E-03 -.146E-03
   -.173E+01 0.180E+01 0.480E+03   0.175E+01 -.194E+01 -.480E+03   0.731E-01 -.121E+00 0.292E-02   -.125E-02 -.610E-03 -.143E-03
   -.393E+01 0.104E+01 0.484E+03   0.397E+01 -.103E+01 -.484E+03   0.345E+00 -.292E+00 0.132E+00   0.695E-04 -.876E-03 -.134E-03
   -.262E+01 0.238E+01 0.481E+03   0.269E+01 -.246E+01 -.481E+03   -.209E-02 -.263E+00 -.135E+00   0.630E-03 0.758E-03 -.211E-03
   -.147E+01 0.170E+01 0.482E+03   0.148E+01 -.178E+01 -.482E+03   -.125E+00 -.360E+00 0.203E+00   0.246E-03 -.982E-03 -.133E-03
   -.344E+01 -.199E+00 0.480E+03   0.358E+01 0.182E+00 -.481E+03   0.207E+00 -.539E-01 0.164E-01   -.839E-03 0.199E-03 -.227E-03
   -.397E+00 0.286E+01 -.479E+03   0.446E+00 -.294E+01 0.479E+03   -.845E-01 -.444E+00 0.190E+00   0.809E-04 0.499E-03 0.512E-03
   -.423E+01 0.178E+01 -.483E+03   0.439E+01 -.177E+01 0.483E+03   0.387E+00 0.314E+00 0.188E-01   -.269E-03 -.131E-02 0.484E-03
   -.608E+00 -.205E+01 -.483E+03   0.705E+00 0.212E+01 0.483E+03   -.100E+00 0.849E-01 -.226E-01   -.383E-03 0.425E-03 0.501E-03
   -.165E+01 -.646E+00 -.479E+03   0.152E+01 0.662E+00 0.479E+03   0.202E+00 0.186E+00 0.668E+00   -.851E-03 0.527E-03 0.581E-03
   -.680E+00 0.408E+00 -.484E+03   0.627E+00 -.501E+00 0.485E+03   -.207E+00 0.962E-01 -.103E+00   -.373E-03 -.190E-02 0.495E-03
   -.644E+01 -.237E+00 -.483E+03   0.656E+01 0.284E+00 0.483E+03   0.470E+00 0.146E+00 -.567E-02   -.758E-03 0.122E-03 0.526E-03
   -.346E+01 0.412E+01 -.481E+03   0.362E+01 -.417E+01 0.481E+03   0.254E+00 -.125E+00 0.172E+00   0.732E-03 0.145E-02 0.476E-03
   0.109E-01 0.611E+01 -.480E+03   0.431E-02 -.631E+01 0.480E+03   0.875E-01 -.353E+00 0.216E+00   0.655E-03 -.548E-03 0.542E-03
   0.286E+01 -.568E+00 -.481E+03   -.294E+01 0.539E+00 0.481E+03   -.195E+00 -.174E+00 0.123E+00   0.109E-02 0.694E-03 0.540E-03
 -----------------------------------------------------------------------------------------------
   0.137E+01 -.212E+01 -.607E+00   -.533E-14 -.535E-13 -.131E-11   -.137E+01 0.212E+01 0.601E+00   -.208E-03 -.162E-03 0.800E-02
 
 
 POSITION                                       TOTAL-FORCE (eV/Angst)
 -----------------------------------------------------------------------------------
      0.16647      1.78132      9.75830         0.234975     -0.226653      0.131525
     -1.64610      4.79465      9.75218         0.117057     -0.350504      0.174845
     -3.48458      7.78473      9.75579         0.214657      0.021442      0.075035
      3.70249      1.78772      9.77152         0.206960     -0.182746      0.095079
      1.88757      4.76467      9.78395         0.026449      0.071134     -0.017153
      0.04502      7.79771      9.75836         0.217255      0.045855      0.224495
      7.23736      1.77760      9.74359         0.295023     -0.191825      0.329632
      5.41406      4.77820      9.75250         0.268941      0.080075      0.257572
      3.60569      7.78979      9.77168        -0.058094     -0.123604      0.162234
      2.42878      0.09573     16.96043        -0.005551     -0.063715      0.286118
      0.58469      3.14416     16.96950         0.299789     -0.107925      0.332223
     -1.21284      6.14219     16.99165        -0.075006     -0.304962      0.030266
      5.93994      0.11447     17.02072         0.384969     -0.197015     -0.235157
      4.10660      3.12540     17.00249         0.360893     -0.096257     -0.086615
      2.29895      6.12508     16.99124         0.203946      0.047694      0.308272
      9.51278      0.11052     16.97675         0.048174      0.050261      0.319050
      7.69745      3.13810     17.00874        -0.233199     -0.291348     -0.169959
      5.84573      6.13174     17.03637         0.230710     -0.042502     -0.413292
      0.26185      1.70421     13.43552        -0.351771      0.008036     -0.209914
     -1.59288      4.71151     13.40350        -0.125216      0.167533      0.016395
     -3.38893      7.70164     13.45108        -0.405211      0.359351     -0.380096
      3.77766      1.67482     13.41003        -0.131918      0.612783     -0.010037
      1.94715      4.72567     13.40064        -0.397646      0.149758      0.077481
      0.12474      7.73281     13.43163        -0.304181      0.183170     -0.219802
      7.31136      1.70288     13.42963        -0.216052      0.266171     -0.095305
      5.49319      4.71454     13.44393        -0.144808      0.249313     -0.396016
      3.66124      7.70165     13.45413        -0.142187      0.387607     -0.467588
      2.49215      0.02525     20.67781        -0.200168      0.350828     -0.501908
      0.66552      3.05079     20.65408        -0.209631      0.254210     -0.161775
     -1.16952      6.04677     20.64532        -0.265878      0.165574      0.067910
      6.03631      0.04344     20.65880        -0.423975      0.175005     -0.316464
      4.20537      3.03994     20.65648        -0.222724      0.132735     -0.341233
      2.36805      6.07602     20.64454        -0.162513      0.201120     -0.163500
      9.59218      0.00920     20.68313        -0.236536      0.598232     -0.520084
      7.74237      3.03974     20.66072        -0.375395      0.210452     -0.155520
      5.91403      6.03831     20.64351        -0.221226      0.434490      0.026851
     -5.22666      8.76397     11.57431         0.121235     -0.209434      0.581954
      9.03943      2.72114     11.60162        -0.084218      0.152760     -0.240234
     -3.37728      5.77321     11.58461        -0.473241     -0.470790      0.062068
      3.76783     -0.25529     11.59257         0.262501     -0.485095     -0.167525
      1.94955      2.74315     11.59735         0.102262     -0.244713     -0.015561
      0.10716      5.77447     11.57930         0.413028     -0.304559      0.129323
      7.32209     -0.25407     11.60651         0.064608     -0.363321     -0.278702
      5.51208      2.76685     11.57915        -0.123076     -0.450470      0.263083
      3.66258      5.74922     11.59926         0.345879     -0.060844     -0.072726
      0.68892      1.10468     18.80338        -0.052522     -0.554513      0.210425
     -1.17509      4.06550     18.82218         0.569416      0.336499      0.086966
     -2.96852      7.08783     18.82818        -0.025819      0.159911      0.000542
      4.18474      1.05934     18.78233         0.108503      0.223972      0.916639
      2.39073      4.08609     18.83163        -0.255994      0.028263     -0.053436
      0.51922      7.08238     18.82610         0.622716      0.190431      0.035357
      7.73730      1.07658     18.81892         0.401740     -0.202784      0.140614
      5.91512      4.09784     18.81301         0.094240     -0.579941      0.210250
      4.11093      7.11546     18.81800        -0.293481     -0.206730      0.139240
 -----------------------------------------------------------------------------------
    total drift:                               -0.001309      0.002418      0.001843


--------------------------------------------------------------------------------------------------------



  FREE ENERGIE OF THE ION-ELECTRON SYSTEM (eV)
  ---------------------------------------------------
  free  energy   TOTEN  =      -342.71264624 eV

  energy  without entropy=     -342.71264624  energy(sigma->0) =     -342.71264624
 
 d Force =-0.2388785E-01[-0.261E-01,-0.217E-01]  d Energy =-0.2383314E-01-0.547E-04
 d Force =-0.1644262E+02[-0.164E+02,-0.164E+02]  d Ewald  =-0.1644263E+02 0.250E-05


--------------------------------------------------------------------------------------------------------


    POTLOK:  cpu time    0.3355: real time    0.3358


--------------------------------------------------------------------------------------------------------


           RANDOM_SEED =         253164835              324                0
   IONSTEP:  cpu time    0.0001: real time    0.0001

  ENERGY OF THE ELECTRON-ION-THERMOSTAT SYSTEM (eV)
  ---------------------------------------------------
% ion-electron   TOTEN  =      -342.712646  see above
  kinetic energy EKIN   =         0.571367
  kin. lattice  EKIN_LAT=         0.000000  (temperature   83.40 K)
  nose potential ES     =        -0.022901
  nose kinetic   EPS    =         0.002789
  ---------------------------------------------------
  total energy   ETOTAL =      -342.161391 eV

  maximum distance moved by ions :      0.40E-03


 mean value of Nose-termostat <S>:     0.975 mean value of <T> :    83.401
 mean temperature <T/S>/<1/S>  :    83.401

    WAVPRE:  cpu time    0.1073: real time    0.1114
    FEWALD:  cpu time    0.0011: real time    0.0011
    ORTHCH:  cpu time    8.0645: real time    8.0771
    POTLOK:  cpu time    0.3305: real time    0.3308
    EDDIAG:  cpu time    2.6398: real time    2.6470
     LOOP+:  cpu time  479.9764: real time  481.2494
    4ORBIT:  cpu time    0.0000: real time    0.0000

 total amount of memory used by VASP MPI-rank0   372519. kBytes
=======================================================================

   base      :      30000. kBytes
   nonl-proj :     196761. kBytes
   fftplans  :      19943. kBytes
   grid      :      90496. kBytes
   one-center:        839. kBytes
   wavefun   :      34480. kBytes
 
  
  
 General timing and accounting informations for this job:
 ========================================================
  
                  Total CPU time used (sec):     5795.636
                            User time (sec):     5781.497
                          System time (sec):       14.139
                         Elapsed time (sec):     5811.438
  
                   Maximum memory used (kb):      834348.
                   Average memory used (kb):           0.
  
                          Minor page faults:       386488
                          Major page faults:            0
                 Voluntary context switches:          709
