-3.426871540999999866e+02
-3.426841864300000111e+02
-3.426753244700000209e+02
-3.426608398000000193e+02
-3.426411448499999892e+02
-3.426167809699999793e+02
-3.425883942400000137e+02
-3.425567061099999933e+02
-3.425224846699999830e+02
-3.424865176100000213e+02
-3.410130338800000231e+02
-3.410251271899999779e+02
-3.410405993100000046e+02
-3.410591426899999874e+02
-3.410804463900000201e+02
-3.411042034700000158e+02
-3.411301109099999849e+02
-3.411578697400000237e+02
-3.411871797300000253e+02
-3.412177361000000246e+02
-3.415008750999999734e+02
-3.415127123999999981e+02
-3.415248287000000005e+02
-3.415370794799999885e+02
-3.415493432999999754e+02
-3.415615263700000241e+02
-3.415735669300000268e+02
-3.415854362200000196e+02
-3.415971317300000010e+02
-3.416086826200000246e+02
-3.420709346900000014e+02
-3.420667821999999774e+02
-3.420580948400000239e+02
-3.420451262299999939e+02
-3.420282492700000034e+02
-3.420079438000000209e+02
-3.419847674800000163e+02
-3.419593392200000039e+02
-3.419323154799999998e+02
-3.419043682299999887e+02
-3.419169306699999993e+02
-3.419100786899999775e+02
-3.419004981400000247e+02
-3.418884103600000230e+02
-3.418741347800000199e+02
-3.418580699099999833e+02
-3.418406750400000078e+02
-3.418224483199999781e+02
-3.418039086100000077e+02
-3.417855688299999883e+02
-3.416135856000000217e+02
-3.416152688299999909e+02
-3.416136220999999864e+02
-3.416088083999999867e+02
-3.416011110100000110e+02
-3.415909288400000037e+02
-3.415787461499999722e+02
-3.415651160799999957e+02
-3.415506273199999896e+02
-3.415358792000000108e+02
-3.413642433599999890e+02
-3.413659217900000158e+02
-3.413701645300000109e+02
-3.413769077599999946e+02
-3.413860612400000036e+02
-3.413975194899999792e+02
-3.414111486300000138e+02
-3.414268013700000211e+02
-3.414443111400000248e+02
-3.414634951400000205e+02
-3.421547755400000028e+02
-3.421506816400000162e+02
-3.421423462899999777e+02
-3.421300234400000022e+02
-3.421141289899999833e+02
-3.420952159400000028e+02
-3.420739456900000164e+02
-3.420510605399999804e+02
-3.420273483899999860e+02
-3.420036117700000204e+02
-3.418569625700000074e+02
-3.418544333099999903e+02
-3.418482911699999818e+02
-3.418387208500000156e+02
-3.418260149700000170e+02
-3.418105581699999789e+02
-3.417928134000000000e+02
-3.417733038700000066e+02
-3.417525945900000011e+02
-3.417312707099999898e+02
-3.418785738000000265e+02
-3.418792696300000102e+02
-3.418756560100000002e+02
-3.418678552999999738e+02
-3.418561173300000178e+02
-3.418408185399999866e+02
-3.418224319000000264e+02
-3.418015122799999972e+02
-3.417786740299999906e+02
-3.417545588899999984e+02
-3.418958779100000243e+02
-3.418980020100000274e+02
-3.418976239400000168e+02
-3.418948896599999898e+02
-3.418900364400000171e+02
-3.418833831700000019e+02
-3.418753191100000208e+02
-3.418662777399999868e+02
-3.418567267600000150e+02
-3.418471405799999729e+02
-3.419107638500000235e+02
-3.419046459300000151e+02
-3.418960474599999770e+02
-3.418852871500000106e+02
-3.418727872700000034e+02
-3.418590564500000255e+02
-3.418446608500000252e+02
-3.418301942599999848e+02
-3.418162495999999919e+02
-3.418033969800000023e+02
-3.417440212000000201e+02
-3.417454222299999742e+02
-3.417435934800000155e+02
-3.417385755700000232e+02
-3.417305168899999899e+02
-3.417196767099999875e+02
-3.417064053899999863e+02
-3.416911372999999799e+02
-3.416743715700000052e+02
-3.416566537699999913e+02
-3.415704540799999904e+02
-3.415702958800000033e+02
-3.415688986399999862e+02
-3.415663908500000048e+02
-3.415629422399999839e+02
-3.415587393700000121e+02
-3.415539873000000171e+02
-3.415488834899999802e+02
-3.415436160799999925e+02
-3.415383495799999878e+02
-3.415168233399999735e+02
-3.415160191699999928e+02
-3.415119613599999866e+02
-3.415047619900000200e+02
-3.414946053400000210e+02
-3.414817561599999749e+02
-3.414665335999999911e+02
-3.414493104100000096e+02
-3.414305004600000188e+02
-3.414105388300000072e+02
-3.415180668400000172e+02
-3.415318817400000171e+02
-3.415437954000000218e+02
-3.415537991200000079e+02
-3.415620141800000056e+02
-3.415686868700000218e+02
-3.415741693300000179e+02
-3.415788690200000133e+02
-3.415832235699999728e+02
-3.415876601699999924e+02
-3.417578899299999762e+02
-3.417551478299999985e+02
-3.417504004599999803e+02
-3.417437722600000143e+02
-3.417354579600000193e+02
-3.417257207900000253e+02
-3.417148804099999779e+02
-3.417032962100000191e+02
-3.416913661199999979e+02
-3.416795052699999928e+02
-3.421651885200000152e+02
-3.421624773899999923e+02
-3.421577297399999793e+02
-3.421510857999999757e+02
-3.421427334100000053e+02
-3.421329211500000156e+02
-3.421219328999999902e+02
-3.421100919799999929e+02
-3.420977473400000122e+02
-3.420852664500000060e+02
-3.418477625599999783e+02
-3.418509544199999937e+02
-3.418537669300000061e+02
-3.418562363699999764e+02
-3.418584152899999822e+02
-3.418603765099999805e+02
-3.418622159600000145e+02
-3.418640417400000047e+02
-3.418659780899999987e+02
-3.418681527800000026e+02
-3.416175673500000016e+02
-3.416127750200000150e+02
-3.416055744199999822e+02
-3.415961637899999914e+02
-3.415848168399999736e+02
-3.415718749900000262e+02
-3.415577344499999981e+02
-3.415428281100000163e+02
-3.415276123799999937e+02
-3.415125453499999821e+02
-3.413651917999999910e+02
-3.413652496299999939e+02
-3.413665482200000270e+02
-3.413691001999999912e+02
-3.413729287699999873e+02
-3.413780665500000282e+02
-3.413845554499999935e+02
-3.413924426799999878e+02
-3.414017817700000137e+02
-3.414126168000000234e+02
-3.415729604399999744e+02
-3.415722164800000087e+02
-3.415720444799999882e+02
-3.415724393099999929e+02
-3.415734004500000083e+02
-3.415749356900000180e+02
-3.415770544599999994e+02
-3.415797733100000073e+02
-3.415831089499999962e+02
-3.415870769499999824e+02
-3.422256696200000192e+02
-3.422242016999999805e+02
-3.422190546200000085e+02
-3.422103429800000072e+02
-3.421982730899999865e+02
-3.421831349600000181e+02
-3.421652901300000167e+02
-3.421451632900000277e+02
-3.421232228800000144e+02
-3.420999675200000070e+02
-3.420014473699999940e+02
-3.419974501699999792e+02
-3.419875498399999856e+02
-3.419720528400000035e+02
-3.419514219700000126e+02
-3.419262579400000277e+02
-3.418972614099999987e+02
-3.418652054699999780e+02
-3.418309023200000070e+02
-3.417951709100000244e+02
-3.424124051399999757e+02
-3.424115111899999988e+02
-3.424074031900000250e+02
-3.424001761499999930e+02
-3.423899956100000281e+02
-3.423771049700000049e+02
-3.423618101100000217e+02
-3.423444697099999985e+02
-3.423254799100000128e+02
-3.423052630899999826e+02
-3.421425440900000012e+02
-3.421454647200000068e+02
-3.421440237599999818e+02
-3.421384040099999879e+02
-3.421289218900000151e+02
-3.421160134799999923e+02
-3.421002185300000065e+02
-3.420821401900000183e+02
-3.420624332799999934e+02
-3.420417764599999941e+02
-3.420920896800000151e+02
-3.420896629999999732e+02
-3.420829728799999998e+02
-3.420721924200000217e+02
-3.420575976900000228e+02
-3.420395460799999796e+02
-3.420184698499999740e+02
-3.419948483499999838e+02
-3.419691953199999830e+02
-3.419420415600000069e+02
-3.424120900500000175e+02
-3.424096630000000232e+02
-3.424024666199999842e+02
-3.423906951800000229e+02
-3.423746561500000212e+02
-3.423547574599999734e+02
-3.423314846200000261e+02
-3.423053865499999802e+02
-3.422770503599999756e+02
-3.422470826300000226e+02
-3.415389157100000261e+02
-3.415386189700000159e+02
-3.415402135300000168e+02
-3.415438860799999929e+02
-3.415498329700000113e+02
-3.415582392200000186e+02
-3.415692649299999744e+02
-3.415830195500000173e+02
-3.415995534099999986e+02
-3.416188325300000201e+02
-3.411909097500000030e+02
-3.411970452300000147e+02
-3.412061689700000215e+02
-3.412182210899999859e+02
-3.412331807300000150e+02
-3.412510523000000262e+02
-3.412718439099999728e+02
-3.412955519000000209e+02
-3.413221452999999883e+02
-3.413515343000000257e+02
-3.412534571799999981e+02
-3.412683670900000266e+02
-3.412841136600000027e+02
-3.413005494199999816e+02
-3.413175904799999785e+02
-3.413352038500000276e+02
-3.413533974599999965e+02
-3.413722138900000118e+02
-3.413917139299999803e+02
-3.414119607100000167e+02
-3.410698474199999737e+02
-3.410620644300000208e+02
-3.410522628599999848e+02
-3.410407216199999993e+02
-3.410278268999999796e+02
-3.410140527500000189e+02
-3.409999371900000256e+02
-3.409860515999999961e+02
-3.409729804199999990e+02
-3.409612781999999811e+02
-3.416583583299999987e+02
-3.416570632899999964e+02
-3.416528504500000167e+02
-3.416458259400000088e+02
-3.416361703700000021e+02
-3.416241240100000027e+02
-3.416099886200000242e+02
-3.415941048199999841e+02
-3.415768508500000280e+02
-3.415586198400000058e+02
-3.414473562599999923e+02
-3.414507171000000199e+02
-3.414501237599999968e+02
-3.414456244699999843e+02
-3.414373829500000284e+02
-3.414256646599999954e+02
-3.414108285300000034e+02
-3.413933140500000150e+02
-3.413736150799999791e+02
-3.413522632799999883e+02
-3.420673558899999875e+02
-3.420677255400000263e+02
-3.420647573499999794e+02
-3.420586079700000255e+02
-3.420495265499999960e+02
-3.420378425299999776e+02
-3.420239544600000272e+02
-3.420083127899999909e+02
-3.419913949400000206e+02
-3.419737055100000021e+02
-3.408418058899999892e+02
-3.408448922200000197e+02
-3.408533066499999791e+02
-3.408670416100000011e+02
-3.408860547799999949e+02
-3.409102562499999749e+02
-3.409394878900000094e+02
-3.409735067099999810e+02
-3.410119779500000163e+02
-3.410544619199999943e+02
-3.417781812000000059e+02
-3.417804271399999720e+02
-3.417831488400000239e+02
-3.417863779799999975e+02
-3.417901974700000096e+02
-3.417947156999999834e+02
-3.418000587799999721e+02
-3.418063639999999737e+02
-3.418137542599999961e+02
-3.418223227899999870e+02
-3.424221555899999885e+02
-3.424231841399999894e+02
-3.424186096000000248e+02
-3.424086852500000191e+02
-3.423938439199999948e+02
-3.423746676999999750e+02
-3.423518644900000254e+02
-3.423262256500000262e+02
-3.422985975299999950e+02
-3.422698421299999723e+02
-3.405708208600000262e+02
-3.405825980999999842e+02
-3.405994726999999784e+02
-3.406212715600000251e+02
-3.406478123599999890e+02
-3.406788794799999778e+02
-3.407142134200000214e+02
-3.407534811699999864e+02
-3.407962797399999886e+02
-3.408421188300000040e+02
-3.422489575399999922e+02
-3.422488936199999898e+02
-3.422448098599999753e+02
-3.422368178699999817e+02
-3.422251377900000193e+02
-3.422101007300000219e+02
-3.421921354799999904e+02
-3.421717451000000096e+02
-3.421494905600000038e+02
-3.421259696600000098e+02
-3.418871460500000126e+02
-3.418847052899999994e+02
-3.418799116800000206e+02
-3.418729560400000196e+02
-3.418641187399999808e+02
-3.418537600999999881e+02
-3.418423139700000206e+02
-3.418302563699999723e+02
-3.418180967100000203e+02
-3.418063509099999919e+02
-3.409753913700000112e+02
-3.409966474199999880e+02
-3.410187937399999782e+02
-3.410415005199999996e+02
-3.410644735000000196e+02
-3.410874669899999958e+02
-3.411102877700000136e+02
-3.411328060999999821e+02
-3.411549537600000122e+02
-3.411767225799999892e+02
-3.415267429099999958e+02
-3.415317669400000113e+02
-3.415332431300000167e+02
-3.415313431499999979e+02
-3.415263659699999721e+02
-3.415187218799999869e+02
-3.415089194099999759e+02
-3.414975331499999811e+02
-3.414851853999999776e+02
-3.414725208400000156e+02
-3.415978002100000026e+02
-3.416013682000000244e+02
-3.416042794400000275e+02
-3.416065192300000035e+02
-3.416081176199999732e+02
-3.416091572700000256e+02
-3.416097637199999895e+02
-3.416101055299999985e+02
-3.416103803600000219e+02
-3.416108131600000206e+02
-3.409631681700000172e+02
-3.409754289599999879e+02
-3.409908278099999848e+02
-3.410092324199999894e+02
-3.410304904800000259e+02
-3.410544354699999872e+02
-3.410808908899999778e+02
-3.411096628299999907e+02
-3.411405546799999797e+02
-3.411733606999999893e+02
-3.414329396200000133e+02
-3.414281787400000212e+02
-3.414226840300000276e+02
-3.414168631200000164e+02
-3.414112120199999936e+02
-3.414062834800000132e+02
-3.414026480300000230e+02
-3.414008597200000281e+02
-3.414014136900000267e+02
-3.414047232899999926e+02
-3.425070825399999990e+02
-3.425086090899999931e+02
-3.425046907099999771e+02
-3.424954482399999733e+02
-3.424811546999999905e+02
-3.424622228499999892e+02
-3.424391950799999904e+02
-3.424127101899999843e+02
-3.423834836699999755e+02
-3.423522827099999972e+02
-3.418200719999999819e+02
-3.418192036300000041e+02
-3.418184247500000197e+02
-3.418177794999999719e+02
-3.418173340800000233e+02
-3.418171658399999728e+02
-3.418173715899999934e+02
-3.418180534400000283e+02
-3.418193272400000069e+02
-3.418213029699999765e+02
-3.421393287099999725e+02
-3.421348954399999798e+02
-3.421270529600000145e+02
-3.421159596400000282e+02
-3.421018785100000059e+02
-3.420851620199999843e+02
-3.420662396000000172e+02
-3.420456026499999780e+02
-3.420237871699999914e+02
-3.420013530300000184e+02
-3.419105953299999783e+02
-3.419169439899999929e+02
-3.419193122899999935e+02
-3.419175918700000238e+02
-3.419118321600000172e+02
-3.419022277700000245e+02
-3.418891121099999850e+02
-3.418729456600000276e+02
-3.418542848700000150e+02
-3.418337607899999853e+02
-3.419639441300000158e+02
-3.419576600299999996e+02
-3.419487328999999818e+02
-3.419374711699999807e+02
-3.419242791099999863e+02
-3.419096350199999961e+02
-3.418940739799999733e+02
-3.418781607799999733e+02
-3.418624658200000113e+02
-3.418475384000000190e+02
-3.422794318699999963e+02
-3.422748924100000067e+02
-3.422653904200000170e+02
-3.422512149600000271e+02
-3.422327939099999980e+02
-3.422106693700000051e+02
-3.421854741800000284e+02
-3.421579020099999866e+02
-3.421286810400000036e+02
-3.420985390499999994e+02
-3.421206078700000148e+02
-3.421182782700000189e+02
-3.421115157199999999e+02
-3.421004532499999868e+02
-3.420853291299999910e+02
-3.420664831099999788e+02
-3.420443391599999927e+02
-3.420193812200000139e+02
-3.419921440200000120e+02
-3.419631834400000230e+02
-3.418343713799999932e+02
-3.418340481299999851e+02
-3.418304712099999847e+02
-3.418237652000000253e+02
-3.418141709999999875e+02
-3.418020202600000061e+02
-3.417877303800000277e+02
-3.417717901099999835e+02
-3.417547210199999768e+02
-3.417370736999999963e+02
-3.419208818899999756e+02
-3.419224371099999757e+02
-3.419192974399999798e+02
-3.419115486900000178e+02
-3.418994149800000173e+02
-3.418832435900000064e+02
-3.418634926400000040e+02
-3.418407096700000238e+02
-3.418155034399999863e+02
-3.417885222699999872e+02
-3.406972231799999804e+02
-3.407081694799999809e+02
-3.407205274899999949e+02
-3.407342718900000023e+02
-3.407494535700000142e+02
-3.407662071299999980e+02
-3.407847063099999900e+02
-3.408051376799999730e+02
-3.408276647600000047e+02
-3.408524055199999907e+02
-3.417722318799999925e+02
-3.417709355299999743e+02
-3.417643413999999780e+02
-3.417526653099999976e+02
-3.417362833199999841e+02
-3.417157027900000230e+02
-3.416915477100000089e+02
-3.416645251400000234e+02
-3.416353981999999974e+02
-3.416049574799999959e+02
-3.417208901100000276e+02
-3.417226741900000206e+02
-3.417219399599999861e+02
-3.417187481400000024e+02
-3.417132376000000136e+02
-3.417056183400000009e+02
-3.416961686500000042e+02
-3.416852236299999959e+02
-3.416731674100000191e+02
-3.416604019399999856e+02
-3.415888295299999982e+02
-3.415943775399999822e+02
-3.415994250200000124e+02
-3.416039285400000267e+02
-3.416078798699999766e+02
-3.416113018099999863e+02
-3.416142471599999908e+02
-3.416168004300000121e+02
-3.416190683500000205e+02
-3.416211840199999870e+02
-3.417654812800000173e+02
-3.417600720300000035e+02
-3.417530060299999946e+02
-3.417446267000000262e+02
-3.417353675300000191e+02
-3.417257357699999716e+02
-3.417162863199999947e+02
-3.417075977499999908e+02
-3.417002445599999874e+02
-3.416947736000000191e+02
-3.419419986300000005e+02
-3.419314466000000152e+02
-3.419184028500000068e+02
-3.419032959099999971e+02
-3.418866764699999976e+02
-3.418691733499999827e+02
-3.418514738800000146e+02
-3.418342844100000093e+02
-3.418183033000000250e+02
-3.418041858500000103e+02
-3.421778402300000153e+02
-3.421697134300000016e+02
-3.421576279099999738e+02
-3.421418825599999991e+02
-3.421228921599999921e+02
-3.421011615499999721e+02
-3.420772650900000258e+02
-3.420518132600000172e+02
-3.420254395399999794e+02
-3.419987713599999779e+02
-3.416622952499999997e+02
-3.416759550699999863e+02
-3.416884856199999945e+02
-3.416997480399999745e+02
-3.417096685399999956e+02
-3.417182473699999719e+02
-3.417255575600000270e+02
-3.417317387200000098e+02
-3.417369940699999802e+02
-3.417415776400000027e+02
-3.415288148399999955e+02
-3.415430740499999729e+02
-3.415574343100000192e+02
-3.415717580599999792e+02
-3.415860101999999756e+02
-3.416002333299999805e+02
-3.416145469599999842e+02
-3.416291136199999983e+02
-3.416441068099999825e+02
-3.416596975799999996e+02
-3.422236858699999971e+02
-3.422231741499999771e+02
-3.422177931100000023e+02
-3.422077388899999733e+02
-3.421933567699999799e+02
-3.421751227600000220e+02
-3.421536258900000007e+02
-3.421295448600000100e+02
-3.421036192600000163e+02
-3.420766306500000269e+02
-3.418917306299999836e+02
-3.418816568400000051e+02
-3.418670970300000249e+02
-3.418484448699999803e+02
-3.418262128399999824e+02
-3.418010156000000279e+02
-3.417735369499999933e+02
-3.417445071899999789e+02
-3.417146747699999878e+02
-3.416847882999999797e+02
-3.410776926300000014e+02
-3.410760082400000215e+02
-3.410768083599999727e+02
-3.410801190600000155e+02
-3.410860001099999863e+02
-3.410945276400000239e+02
-3.411057894799999985e+02
-3.411198563600000284e+02
-3.411367695700000127e+02
-3.411565175100000147e+02
-3.417878237799999965e+02
-3.417918317799999954e+02
-3.417924221000000102e+02
-3.417897311099999911e+02
-3.417840130299999828e+02
-3.417756326100000024e+02
-3.417650521699999899e+02
-3.417528130300000271e+02
-3.417395162600000162e+02
-3.417257989600000201e+02
-3.415618844100000047e+02
-3.415773825499999816e+02
-3.415944472200000064e+02
-3.416128838999999857e+02
-3.416325482600000214e+02
-3.416533357900000283e+02
-3.416751773600000206e+02
-3.416980223499999738e+02
-3.417218312300000207e+02
-3.417465547300000139e+02
-3.420369309199999748e+02
-3.420392112000000111e+02
-3.420376109499999870e+02
-3.420322066100000029e+02
-3.420231902900000023e+02
-3.420108476099999848e+02
-3.419955626899999857e+02
-3.419777914000000010e+02
-3.419580535000000054e+02
-3.419369104300000117e+02
-3.422695510699999772e+02
-3.422688563599999725e+02
-3.422649230600000010e+02
-3.422578577500000279e+02
-3.422478893599999878e+02
-3.422353623100000277e+02
-3.422207162500000095e+02
-3.422044600599999740e+02
-3.421871540500000037e+02
-3.421693696599999726e+02
-3.409613505099999884e+02
-3.409710422800000060e+02
-3.409829689599999938e+02
-3.409970796499999892e+02
-3.410133870799999727e+02
-3.410319565300000022e+02
-3.410528797000000054e+02
-3.410762494200000106e+02
-3.411021337799999742e+02
-3.411305388200000266e+02
-3.423285722699999951e+02
-3.423220336399999724e+02
-3.423118588799999884e+02
-3.422982693499999982e+02
-3.422815635200000202e+02
-3.422621146500000009e+02
-3.422403404799999862e+02
-3.422167040200000088e+02
-3.421916867300000149e+02
-3.421657814499999972e+02
-3.420584611400000199e+02
-3.420553088099999854e+02
-3.420473215200000254e+02
-3.420346999600000117e+02
-3.420177580700000135e+02
-3.419969102200000179e+02
-3.419726493499999833e+02
-3.419455315399999904e+02
-3.419161467199999720e+02
-3.418851075200000196e+02
-3.424268742099999940e+02
-3.424249618000000055e+02
-3.424181758299999956e+02
-3.424067306800000097e+02
-3.423909598299999857e+02
-3.423712892899999929e+02
-3.423482302099999970e+02
-3.423223437300000001e+02
-3.422942279700000086e+02
-3.422644888300000048e+02
-3.414550907299999949e+02
-3.414634244999999737e+02
-3.414725764400000116e+02
-3.414823985099999959e+02
-3.414927680999999779e+02
-3.415035898500000258e+02
-3.415148053199999936e+02
-3.415263839400000165e+02
-3.415383311800000001e+02
-3.415506819799999789e+02
-3.414599969600000122e+02
-3.414656542600000080e+02
-3.414704817699999921e+02
-3.414745171000000141e+02
-3.414778994000000125e+02
-3.414808563600000184e+02
-3.414836872299999868e+02
-3.414867389300000013e+02
-3.414903846000000271e+02
-3.414950002900000072e+02
-3.399826291100000049e+02
-3.399860570199999756e+02
-3.399999890799999775e+02
-3.400243467099999748e+02
-3.400589254199999800e+02
-3.401033650699999953e+02
-3.401571205600000098e+02
-3.402194351499999811e+02
-3.402893250100000273e+02
-3.403655679199999895e+02
-3.416082467800000018e+02
-3.416112500400000158e+02
-3.416109406400000239e+02
-3.416074428800000078e+02
-3.416010209300000042e+02
-3.415920633999999723e+02
-3.415810606499999835e+02
-3.415685749200000032e+02
-3.415552123300000176e+02
-3.415415983999999980e+02
-3.420477025100000219e+02
-3.420453335700000252e+02
-3.420378022799999940e+02
-3.420253357199999868e+02
-3.420083194000000049e+02
-3.419872734799999989e+02
-3.419628354399999921e+02
-3.419357253800000080e+02
-3.419067247199999997e+02
-3.418766429300000027e+02
-3.418474766699999918e+02
-3.418455632000000151e+02
-3.418410962099999892e+02
-3.418342114700000138e+02
-3.418251215799999727e+02
-3.418141067299999918e+02
-3.418015066099999899e+02
-3.417877041599999757e+02
-3.417731169400000226e+02
-3.417581765900000050e+02
-3.407765741700000035e+02
-3.407851759100000208e+02
-3.407971227500000282e+02
-3.408122971700000221e+02
-3.408306391400000166e+02
-3.408521321399999806e+02
-3.408767899900000202e+02
-3.409046297799999934e+02
-3.409356411599999888e+02
-3.409697616999999923e+02
-3.422106559900000207e+02
-3.422122569100000078e+02
-3.422107065199999738e+02
-3.422060902299999725e+02
-3.421985701899999981e+02
-3.421883853300000169e+02
-3.421758401999999819e+02
-3.421612907400000267e+02
-3.421451385699999719e+02
-3.421278100100000188e+02
-3.416166522299999997e+02
-3.416212631500000043e+02
-3.416240259100000003e+02
-3.416249563900000226e+02
-3.416241660100000104e+02
-3.416218532500000151e+02
-3.416182884599999738e+02
-3.416138053000000241e+02
-3.416087714299999902e+02
-3.416035762700000191e+02
-3.416060645300000260e+02
-3.416072609000000284e+02
-3.416084207100000185e+02
-3.416096363400000087e+02
-3.416110520400000041e+02
-3.416128427099999953e+02
-3.416152116100000171e+02
-3.416183608399999798e+02
-3.416224863599999821e+02
-3.416277501000000143e+02
-3.409993664599999761e+02
-3.410027604300000235e+02
-3.410089698300000123e+02
-3.410179454500000134e+02
-3.410296458500000085e+02
-3.410440366400000016e+02
-3.410610782699999959e+02
-3.410807175400000233e+02
-3.411028783300000100e+02
-3.411274388400000248e+02
-3.417008141499999851e+02
-3.417053291600000193e+02
-3.417070571599999766e+02
-3.417060886099999948e+02
-3.417026531899999782e+02
-3.416971011900000121e+02
-3.416898900900000058e+02
-3.416815574600000218e+02
-3.416726959299999749e+02
-3.416639202100000148e+02
-3.414284298300000273e+02
-3.414342686800000024e+02
-3.414411819000000037e+02
-3.414491254899999717e+02
-3.414580689100000086e+02
-3.414679859799999804e+02
-3.414788628900000163e+02
-3.414906902199999763e+02
-3.415034662699999899e+02
-3.415171900400000027e+02
-3.418458579499999814e+02
-3.418446957900000029e+02
-3.418403822600000126e+02
-3.418331391400000143e+02
-3.418232696900000178e+02
-3.418111484400000109e+02
-3.417972075399999881e+02
-3.417819144299999721e+02
-3.417657606000000214e+02
-3.417492462800000226e+02
-3.421853133100000264e+02
-3.421932203200000231e+02
-3.421972199799999999e+02
-3.421973819300000059e+02
-3.421939140299999735e+02
-3.421871493300000111e+02
-3.421775332700000263e+02
-3.421655961899999738e+02
-3.421519295300000181e+02
-3.421371619600000145e+02
-3.419881323000000179e+02
-3.419902388500000256e+02
-3.419897901300000171e+02
-3.419868599399999880e+02
-3.419815952100000231e+02
-3.419742042899999888e+02
-3.419649546200000145e+02
-3.419541573899999776e+02
-3.419421594799999866e+02
-3.419293277400000193e+02
-3.417536100600000282e+02
-3.417504225499999961e+02
-3.417462603899999749e+02
-3.417412445400000252e+02
-3.417355169599999840e+02
-3.417292387599999870e+02
-3.417225847299999941e+02
-3.417157397299999957e+02
-3.417088884199999939e+02
-3.417022115400000075e+02
-3.423509531099999776e+02
-3.423483514299999797e+02
-3.423404603100000259e+02
-3.423275474199999735e+02
-3.423100268300000266e+02
-3.422884419100000173e+02
-3.422634347100000127e+02
-3.422357270100000051e+02
-3.422060764600000198e+02
-3.421752503000000161e+02
-3.412979249399999730e+02
-3.412912531299999728e+02
-3.412815979299999753e+02
-3.412691014499999937e+02
-3.412539810600000010e+02
-3.412365207199999873e+02
-3.412170633000000066e+02
-3.411959972000000221e+02
-3.411737453999999730e+02
-3.411507600900000057e+02
-3.417346948100000077e+02
-3.417332688100000269e+02
-3.417281864999999925e+02
-3.417195732700000121e+02
-3.417076916400000073e+02
-3.416929362800000263e+02
-3.416757944299999963e+02
-3.416568388900000173e+02
-3.416366798500000073e+02
-3.416159440399999880e+02
-3.415694675500000130e+02
-3.415660779300000058e+02
-3.415584098400000244e+02
-3.415467470400000138e+02
-3.415315009799999757e+02
-3.415131877100000111e+02
-3.414924049300000206e+02
-3.414698077900000044e+02
-3.414460824199999820e+02
-3.414219374599999810e+02
-3.414432096400000205e+02
-3.414388107099999843e+02
-3.414313187999999855e+02
-3.414208854199999905e+02
-3.414077661399999783e+02
-3.413923002000000224e+02
-3.413749002800000198e+02
-3.413560340999999880e+02
-3.413361976499999741e+02
-3.413159028700000022e+02
-3.418650207599999931e+02
-3.418721308799999861e+02
-3.418762235500000202e+02
-3.418774516799999788e+02
-3.418760773500000028e+02
-3.418724650799999836e+02
-3.418670546899999749e+02
-3.418603499499999998e+02
-3.418528893299999822e+02
-3.418452152799999908e+02
-3.423015728500000137e+02
-3.422967705600000272e+02
-3.422871346599999924e+02
-3.422729000599999836e+02
-3.422544343499999968e+02
-3.422322228599999789e+02
-3.422068433599999935e+02
-3.421789441700000225e+02
-3.421492254099999855e+02
-3.421184034500000166e+02
-3.399715064100000177e+02
-3.399831506300000115e+02
-3.400050785000000246e+02
-3.400369581499999754e+02
-3.400783272900000043e+02
-3.401285815499999785e+02
-3.401869608700000072e+02
-3.402525413000000185e+02
-3.403242300300000238e+02
-3.404007896200000118e+02
-3.420791894600000091e+02
-3.420813518499999759e+02
-3.420809797200000162e+02
-3.420781746999999768e+02
-3.420731144800000152e+02
-3.420660627500000146e+02
-3.420573443499999939e+02
-3.420473465800000099e+02
-3.420364930399999821e+02
-3.420252347800000052e+02
-3.421297375899999906e+02
-3.421262554699999896e+02
-3.421193306499999949e+02
-3.421090909600000032e+02
-3.420957405699999754e+02
-3.420795360000000187e+02
-3.420607939299999884e+02
-3.420398674599999822e+02
-3.420171353999999724e+02
-3.419929880899999830e+02
-3.421290154700000130e+02
-3.421304930000000013e+02
-3.421282884899999885e+02
-3.421226128100000210e+02
-3.421137894400000050e+02
-3.421022371899999825e+02
-3.420884594300000003e+02
-3.420730221000000029e+02
-3.420565236200000072e+02
-3.420395896599999901e+02
-3.412190172100000041e+02
-3.412115108500000247e+02
-3.412048194399999943e+02
-3.411991296699999907e+02
-3.411946426399999837e+02
-3.411915615199999934e+02
-3.411900891500000057e+02
-3.411904299500000093e+02
-3.411927663100000245e+02
-3.411972682699999950e+02
-3.422548689899999772e+02
-3.422575414099999875e+02
-3.422558088299999781e+02
-3.422497538499999905e+02
-3.422395560499999760e+02
-3.422255030499999862e+02
-3.422079711000000088e+02
-3.421874046799999860e+02
-3.421643032700000049e+02
-3.421391984800000046e+02
-3.416730789599999980e+02
-3.416726517100000251e+02
-3.416711228099999857e+02
-3.416687305899999956e+02
-3.416658431000000178e+02
-3.416629391899999746e+02
-3.416605825500000151e+02
-3.416593751099999849e+02
-3.416599201799999719e+02
-3.416627854199999774e+02
-3.418643315400000233e+02
-3.418575263100000257e+02
-3.418488153000000125e+02
-3.418383577000000173e+02
-3.418263991100000112e+02
-3.418132645800000091e+02
-3.417993406100000016e+02
-3.417850578499999870e+02
-3.417708698600000048e+02
-3.417572300599999835e+02
-3.412057461399999738e+02
-3.412264546800000176e+02
-3.412460611399999948e+02
-3.412643923699999959e+02
-3.412814204900000163e+02
-3.412972495099999719e+02
-3.413120947599999795e+02
-3.413262521899999911e+02
-3.413400622699999758e+02
-3.413538713699999789e+02
-3.416819671499999913e+02
-3.416886526399999866e+02
-3.416926016799999957e+02
-3.416938392100000215e+02
-3.416924814800000263e+02
-3.416887235799999871e+02
-3.416828323199999886e+02
-3.416751404299999990e+02
-3.416660213999999769e+02
-3.416558807600000023e+02
-3.417523161600000208e+02
-3.417430539000000067e+02
-3.417308426399999917e+02
-3.417160502199999996e+02
-3.416991463400000271e+02
-3.416806573299999741e+02
-3.416611611299999822e+02
-3.416412511600000244e+02
-3.416215072300000202e+02
-3.416024743099999910e+02
-3.420291648300000134e+02
-3.420342629300000112e+02
-3.420353637800000115e+02
-3.420326204699999835e+02
-3.420263172900000086e+02
-3.420168526499999757e+02
-3.420047144100000196e+02
-3.419904540300000235e+02
-3.419746572999999898e+02
-3.419579209099999844e+02
-3.415542071699999838e+02
-3.415597089099999835e+02
-3.415666274000000158e+02
-3.415748922700000207e+02
-3.415844311999999832e+02
-3.415951683299999786e+02
-3.416070245600000135e+02
-3.416199148499999865e+02
-3.416337560299999723e+02
-3.416484605900000133e+02
-3.424274576099999763e+02
-3.424253417699999886e+02
-3.424187883800000236e+02
-3.424079994599999850e+02
-3.423932867600000236e+02
-3.423750570400000015e+02
-3.423537956499999950e+02
-3.423300406500000008e+02
-3.423043696500000124e+02
-3.422773769600000264e+02
-3.416454489000000194e+02
-3.416322205000000167e+02
-3.416159391400000231e+02
-3.415969762600000195e+02
-3.415757796400000075e+02
-3.415528577000000041e+02
-3.415287534899999855e+02
-3.415040282599999841e+02
-3.414792380999999750e+02
-3.414549220399999854e+02
-3.419821069399999942e+02
-3.419895605400000136e+02
-3.419938899399999741e+02
-3.419950421600000254e+02
-3.419930767299999843e+02
-3.419881526400000098e+02
-3.419805307099999823e+02
-3.419705463600000144e+02
-3.419586098300000003e+02
-3.419451665600000183e+02
-3.412449022199999717e+02
-3.412610525399999801e+02
-3.412780502400000273e+02