 vasp.6.1.1 19Jun20 (build Dec 21 2021 08:45:49) complex                        
  
 executed on             LinuxIFC date 2023.10.08  15:17:52
 running on   40 total cores
 distrk:  each k-point on   40 cores,    1 groups
 distr:  one band on NCORE=   1 cores,   40 groups


--------------------------------------------------------------------------------------------------------


 INCAR:
 POTCAR:   PAW_PBE Te 08Apr2002                   
 POTCAR:   PAW_PBE Mo 08Apr2002                   
 -----------------------------------------------------------------------------
|                                                                             |
|           W    W    AA    RRRRR   N    N  II  N    N   GGGG   !!!           |
|           W    W   A  A   R    R  NN   N  II  NN   N  G    G  !!!           |
|           W    W  A    A  R    R  N N  N  II  N N  N  G       !!!           |
|           W WW W  AAAAAA  RRRRR   N  N N  II  N  N N  G  GGG   !            |
|           WW  WW  A    A  R   R   N   NN  II  N   NN  G    G                |
|           W    W  A    A  R    R  N    N  II  N    N   GGGG   !!!           |
|                                                                             |
|     For optimal performance we recommend to set                             |
|       NCORE = 4 - approx SQRT(number of cores).                             |
|     NCORE specifies how many cores store one orbital (NPAR=cpu/NCORE).      |
|     This setting can greatly improve the performance of VASP for DFT.       |
|     The default, NCORE=1 might be grossly inefficient on modern             |
|     multi-core architectures or massively parallel machines. Do your        |
|     own testing!!!!                                                         |
|     Unfortunately you need to use the default for GW and RPA                |
|     calculations (for HF NCORE is supported but not extensively tested      |
|     yet).                                                                   |
|                                                                             |
 -----------------------------------------------------------------------------

 POTCAR:   PAW_PBE Te 08Apr2002                   
   VRHFIN =Te: s2p4                                                                                 
   LEXCH  = PE                                                                                      
   EATOM  =   223.2721 eV,   16.4100 Ry                                                             
                                                                                                    
   TITEL  = PAW_PBE Te 08Apr2002                                                                    
   LULTRA =        F    use ultrasoft PP ?                                                          
   IUNSCR =        1    unscreen: 0-lin 1-nonlin 2-no                                               
   RPACOR =    2.200    partial core radius                                                         
   POMASS =  127.600; ZVAL   =    6.000    mass and valenz                                          
   RCORE  =    2.300    outmost cutoff radius                                                       
   RWIGS  =    2.900; RWIGS  =    1.535    wigner-seitz radius (au A)                               
   ENMAX  =  174.982; ENMIN  =  131.236 eV                                                          
   ICORE  =        3    local potential                                                             
   LCOR   =        T    correct aug charges                                                         
   LPAW   =        T    paw PP                                                                      
   EAUG   =  368.792                                                                                
   DEXC   =    -.169                                                                                
   RMAX   =    3.486    core radius for proj-oper                                                   
   RAUG   =    1.300    factor for augmentation sphere                                              
   RDEP   =    2.397    radius for radial grids                                                     
   QCUT   =   -3.586; QGAM   =    7.172    optimization parameters                                  
                                                                                                    
   Description                                                                                      
     l     E      TYP  RCUT    TYP  RCUT                                                            
     0   .000     23  2.300                                                                         
     0   .000     23  2.300                                                                         
     1   .000     23  2.300                                                                         
     1   .000     23  2.300                                                                         
     2   .000     23  2.300                                                                         
     3  -.100     23  2.300                                                                         
  local pseudopotential read in
  partial core-charges read in
  atomic valenz-charges read in
  non local Contribution for L=           0  read in
    real space projection operators read in
  non local Contribution for L=           0  read in
    real space projection operators read in
  non local Contribution for L=           1  read in
    real space projection operators read in
  non local Contribution for L=           1  read in
    real space projection operators read in
  non local Contribution for L=           2  read in
    real space projection operators read in
    PAW grid and wavefunctions read in
 
   number of l-projection  operators is LMAX  =           5
   number of lm-projection operators is LMMAX =          13
 
 POTCAR:   PAW_PBE Mo 08Apr2002                   
   VRHFIN =Mo: 4p5s4d                                                                               
   LEXCH  = PE                                                                                      
   EATOM  =   217.5180 eV,   15.9871 Ry                                                             
                                                                                                    
   TITEL  = PAW_PBE Mo 08Apr2002                                                                    
   LULTRA =        F    use ultrasoft PP ?                                                          
   IUNSCR =        1    unscreen: 0-lin 1-nonlin 2-no                                               
   RPACOR =    2.200    partial core radius                                                         
   POMASS =   95.940; ZVAL   =    6.000    mass and valenz                                          
   RCORE  =    2.750    outmost cutoff radius                                                       
   RWIGS  =    2.750; RWIGS  =    1.455    wigner-seitz radius (au A)                               
   ENMAX  =  224.584; ENMIN  =  168.438 eV                                                          
   RCLOC  =    2.111    cutoff for local pot                                                        
   LCOR   =        T    correct aug charges                                                         
   LPAW   =        T    paw PP                                                                      
   EAUG   =  345.278                                                                                
   DEXC   =    -.088                                                                                
   RMAX   =    3.077    core radius for proj-oper                                                   
   RAUG   =    1.300    factor for augmentation sphere                                              
   RDEP   =    2.815    radius for radial grids                                                     
   QCUT   =   -4.063; QGAM   =    8.126    optimization parameters                                  
                                                                                                    
   Description                                                                                      
     l     E      TYP  RCUT    TYP  RCUT                                                            
     2   .000     23  2.500                                                                         
     2   .000     23  2.500                                                                         
     0   .000     23  2.600                                                                         
     0  1.000     23  2.600                                                                         
     1   .400     23  2.750                                                                         
     1  2.000     23  2.750                                                                         
     3   .000      7   .000                                                                         
  local pseudopotential read in
  partial core-charges read in
  atomic valenz-charges read in
  non local Contribution for L=           2  read in
    real space projection operators read in
  non local Contribution for L=           2  read in
    real space projection operators read in
  non local Contribution for L=           0  read in
    real space projection operators read in
  non local Contribution for L=           0  read in
    real space projection operators read in
  non local Contribution for L=           1  read in
    real space projection operators read in
  non local Contribution for L=           1  read in
    real space projection operators read in
    PAW grid and wavefunctions read in
 
   number of l-projection  operators is LMAX  =           6
   number of lm-projection operators is LMMAX =          18
 
 -----------------------------------------------------------------------------
|                                                                             |
|               ----> ADVICE to this user running VASP <----                  |
|                                                                             |
|     You have a (more or less) 'large supercell' and for larger cells it     |
|     might be more efficient to use real-space projection operators.         |
|     Therefore, try LREAL= Auto in the INCAR file.                           |
|     Mind: If you want to do very accurate calculations, keep the            |
|     reciprocal projection scheme (i.e. LREAL=.FALSE.).                      |
|                                                                             |
 -----------------------------------------------------------------------------

 PAW_PBE Te 08Apr2002                   :
 energy of atom  1       EATOM= -223.2721
 kinetic energy error for atom=    0.0006 (will be added to EATOM!!)
 PAW_PBE Mo 08Apr2002                   :
 energy of atom  2       EATOM= -217.5180
 kinetic energy error for atom=    0.0009 (will be added to EATOM!!)
 
 
 POSCAR: Te Mo
  positions in cartesian coordinates
  No initial velocities read in
 exchange correlation table for  LEXCH =        8
   RHO(1)=    0.500       N(1)  =     2000
   RHO(2)=  100.500       N(2)  =     4000
 


--------------------------------------------------------------------------------------------------------


 ion  position               nearest neighbor table
   1  0.111  0.222  0.321-  37 2.71  41 2.71  38 2.72   4 3.43   7 3.43   5 3.44   9 3.44   3 3.50
                             2 3.51  19 3.67
   2  0.112  0.555  0.321-  38 2.70  42 2.71  39 2.72   5 3.43   6 3.43   8 3.44   7 3.44   1 3.51
                             3 3.51  20 3.67
   3  0.111  0.889  0.321-  40 2.71  39 2.71  37 2.72   6 3.43   8 3.43   9 3.43   4 3.44   1 3.50
                             2 3.51  21 3.68
   4  0.444  0.222  0.321-  40 2.71  44 2.71  41 2.72   1 3.43   3 3.44   7 3.44   8 3.44   5 3.51
                             6 3.51  22 3.68
   5  0.444  0.555  0.321-  41 2.71  45 2.71  42 2.72   2 3.43   9 3.43   1 3.44   8 3.44   6 3.51
                             4 3.51  23 3.68
   6  0.444  0.889  0.321-  42 2.72  43 2.72  40 2.72   3 3.43   2 3.43   9 3.43   7 3.44   5 3.51
                             4 3.51  24 3.67
   7  0.778  0.222  0.321-  38 2.71  43 2.71  44 2.73   1 3.43   6 3.44   4 3.44   2 3.44   9 3.51
                             8 3.52  25 3.68
   8  0.778  0.556  0.321-  39 2.70  44 2.70  45 2.72   3 3.43   2 3.44   5 3.44   4 3.44   9 3.50
                             7 3.52  26 3.67
   9  0.777  0.888  0.321-  45 2.71  37 2.72  43 2.72   5 3.43   3 3.43   6 3.43   1 3.44   8 3.50
                             7 3.51  27 3.68
  10  0.223  0.056  0.558-  49 2.71  48 2.72  46 2.72  16 3.43  14 3.43  13 3.43  18 3.44  11 3.50
                            12 3.51  28 3.68
  11  0.222  0.388  0.558-  46 2.71  50 2.72  47 2.72  16 3.42  17 3.43  14 3.44  15 3.44  10 3.50
                            12 3.51  29 3.68
  12  0.222  0.722  0.558-  47 2.71  51 2.71  48 2.72  15 3.43  18 3.43  17 3.43  13 3.44  10 3.51
                            11 3.51  30 3.68
  13  0.556  0.056  0.559-  52 2.71  51 2.71  49 2.72  16 3.43  10 3.43  17 3.44  12 3.44  14 3.50
                            15 3.51  31 3.67
  14  0.556  0.389  0.558-  53 2.71  49 2.71  50 2.73  17 3.43  10 3.43  18 3.43  11 3.44  13 3.50
                            15 3.51  32 3.67
  15  0.555  0.722  0.558-  50 2.71  54 2.71  51 2.72  12 3.43  18 3.44  11 3.44  16 3.45  14 3.51
                            13 3.51  33 3.68
  16  0.890  0.056  0.558-  46 2.71  54 2.71  52 2.73  11 3.42  10 3.43  13 3.43  15 3.45  18 3.51
                            17 3.51  34 3.68
  17  0.889  0.390  0.558-  47 2.71  52 2.72  53 2.72  14 3.43  12 3.43  11 3.43  13 3.44  18 3.50
                            16 3.51  35 3.68
  18  0.889  0.722  0.558-  53 2.71  48 2.71  54 2.72  12 3.43  14 3.43  15 3.44  10 3.44  17 3.50
                            16 3.51  36 3.67
  19  0.111  0.222  0.441-  41 2.67  38 2.73  37 2.74  22 3.43  23 3.43  25 3.44  27 3.44  21 3.50
                            20 3.51   1 3.67
  20  0.111  0.556  0.442-  42 2.67  39 2.72  38 2.74  23 3.43  25 3.43  26 3.43  24 3.44  21 3.51
                            19 3.51   2 3.67
  21  0.111  0.889  0.442-  40 2.68  37 2.72  39 2.75  27 3.43  26 3.44  24 3.44  22 3.44  19 3.50
                            20 3.51   3 3.68
  22  0.445  0.223  0.442-  44 2.68  41 2.72  40 2.75  19 3.43  26 3.43  25 3.43  21 3.44  23 3.50
                            24 3.51   4 3.68
  23  0.444  0.555  0.442-  45 2.68  42 2.72  41 2.74  20 3.43  19 3.43  26 3.44  27 3.44  22 3.50
                            24 3.51   5 3.68
  24  0.445  0.889  0.441-  43 2.67  40 2.73  42 2.74  27 3.42  20 3.44  25 3.44  21 3.44  23 3.51
                            22 3.51   6 3.67
  25  0.778  0.223  0.442-  38 2.67  44 2.73  43 2.75  20 3.43  22 3.43  19 3.44  24 3.44  26 3.50
                            27 3.51   7 3.68
  26  0.778  0.555  0.441-  39 2.67  45 2.72  44 2.73  22 3.43  20 3.43  23 3.44  21 3.44  25 3.50
                            27 3.51   8 3.67
  27  0.777  0.889  0.441-  37 2.67  43 2.71  45 2.74  24 3.42  21 3.43  19 3.44  23 3.44  25 3.51
                            26 3.51   9 3.68
  28  0.222  0.055  0.679-  49 2.67  46 2.72  48 2.74  34 3.43  31 3.44  36 3.44  32 3.44  29 3.51
                            30 3.51  10 3.68
  29  0.223  0.389  0.679-  50 2.67  47 2.72  46 2.74  32 3.43  33 3.44  35 3.44  34 3.44  30 3.50
                            28 3.51  11 3.68
  30  0.223  0.722  0.680-  51 2.68  48 2.73  47 2.74  33 3.43  31 3.44  36 3.44  35 3.44  29 3.50
                            28 3.51  12 3.68
  31  0.556  0.055  0.679-  52 2.68  49 2.72  51 2.74  34 3.43  35 3.43  28 3.44  30 3.44  33 3.50
                            32 3.51  13 3.67
  32  0.556  0.389  0.679-  53 2.67  50 2.72  49 2.74  35 3.42  36 3.43  29 3.43  28 3.44  31 3.51
                            33 3.51  14 3.67
  33  0.556  0.723  0.679-  54 2.67  51 2.72  50 2.74  30 3.43  34 3.43  36 3.43  29 3.44  31 3.50
                            32 3.51  15 3.68
  34  0.889  0.055  0.679-  46 2.68  52 2.73  54 2.74  33 3.43  31 3.43  28 3.43  29 3.44  35 3.51
                            36 3.51  16 3.68
  35  0.888  0.389  0.679-  47 2.68  53 2.72  52 2.74  32 3.42  31 3.43  30 3.44  29 3.44  36 3.50
                            34 3.51  17 3.68
  36  0.889  0.722  0.679-  48 2.67  54 2.73  53 2.74  32 3.43  33 3.43  30 3.44  28 3.44  35 3.50
                            34 3.51  18 3.67
  37  0.000  1.000  0.381-  27 2.67   1 2.71  21 2.72   9 2.72   3 2.72  19 2.74  43 3.43  40 3.43
                            45 3.43  41 3.44
  38  1.000  0.334  0.381-  25 2.67   2 2.70   7 2.71   1 2.72  19 2.73  20 2.74  42 3.43  44 3.43
                            41 3.44  43 3.44
  39  1.000  0.666  0.381-  26 2.67   8 2.70   3 2.71   2 2.72  20 2.72  21 2.75  44 3.43  45 3.43
                            42 3.44  40 3.44
  40  0.333  1.000  0.381-  21 2.68   4 2.71   3 2.71   6 2.72  24 2.73  22 2.75  37 3.43  39 3.44
                            44 3.44  43 3.44
  41  0.334  0.333  0.381-  19 2.67   5 2.71   1 2.71  22 2.72   4 2.72  23 2.74  44 3.43  45 3.44
                            38 3.44  37 3.44
  42  0.333  0.666  0.381-  20 2.67   2 2.71   6 2.72   5 2.72  23 2.72  24 2.74  45 3.43  38 3.43
                            39 3.44  43 3.44
  43  0.667  1.000  0.381-  24 2.67  27 2.71   7 2.71   6 2.72   9 2.72  25 2.75  37 3.43  38 3.44
                            42 3.44  40 3.44
  44  0.667  0.334  0.381-  22 2.68   8 2.70   4 2.71  25 2.73   7 2.73  26 2.73  41 3.43  39 3.43
                            38 3.43  40 3.44
  45  0.667  0.667  0.381-  23 2.68   9 2.71   5 2.71   8 2.72  26 2.72  27 2.74  42 3.43  39 3.43
                            37 3.43  41 3.44
  46  0.111  0.167  0.619-  34 2.68  11 2.71  16 2.71  28 2.72  10 2.72  29 2.74  52 3.43  54 3.44
                            49 3.44  50 3.44
  47  0.111  0.500  0.619-  35 2.68  12 2.71  17 2.71  29 2.72  11 2.72  30 2.74  50 3.43  53 3.43
                            52 3.44  51 3.44
  48  0.111  0.833  0.619-  36 2.67  18 2.71  10 2.72  12 2.72  30 2.73  28 2.74  51 3.43  49 3.43
                            53 3.44  54 3.44
  49  0.445  0.166  0.619-  28 2.67  10 2.71  14 2.71  13 2.72  31 2.72  32 2.74  52 3.43  48 3.43
                            46 3.44  53 3.44
  50  0.445  0.500  0.619-  29 2.67  15 2.71  32 2.72  11 2.72  14 2.73  33 2.74  47 3.43  53 3.43
                            54 3.44  46 3.44
  51  0.444  0.833  0.619-  30 2.68  13 2.71  12 2.71  15 2.72  33 2.72  31 2.74  54 3.43  48 3.43
                            47 3.44  52 3.44
  52  0.778  0.167  0.619-  31 2.68  13 2.71  17 2.72  34 2.73  16 2.73  35 2.74  49 3.43  46 3.43
                            47 3.44  51 3.44
  53  0.778  0.500  0.619-  32 2.67  18 2.71  14 2.71  35 2.72  17 2.72  36 2.74  50 3.43  47 3.43
                            48 3.44  49 3.44
  54  0.778  0.834  0.619-  33 2.67  16 2.71  15 2.71  18 2.72  36 2.73  34 2.74  51 3.43  50 3.44
                            46 3.44  48 3.44
 

IMPORTANT INFORMATION: All symmetrisations will be switched off!
NOSYMM: (Re-)initialisation of all symmetry stuff for point group C_1.


----------------------------------------------------------------------------------------

                                     Primitive cell                                     

  volume of cell :    2834.3895

  direct lattice vectors                    reciprocal lattice vectors
    10.299123095  0.000000000  0.000000000     0.097095645  0.057526082 -0.001522705
    -5.362952465  9.051882446  0.000000000     0.000000000  0.110474258 -0.001344278
     0.257613746  0.369954646 30.403275275     0.000000000  0.000000000  0.032891193

  length of vectors
    10.299123095 10.521303862 30.406617351     0.112867768  0.110482437  0.032891193

  position of ions in fractional coordinates (direct lattice)
     0.111129025  0.221868690  0.320756720
     0.111543187  0.555464045  0.320772767
     0.111090399  0.888829115  0.320647129
     0.444206028  0.222152380  0.320672087
     0.444129838  0.555397698  0.320741379
     0.444188460  0.888679475  0.320628202
     0.777780720  0.221698119  0.320507492
     0.778186030  0.556040473  0.320871772
     0.777210141  0.887885620  0.320537496
     0.222736402  0.056112087  0.558301853
     0.221668713  0.388064108  0.558293743
     0.222247317  0.722223319  0.558445898
     0.556133410  0.055903398  0.558586873
     0.555968260  0.388957094  0.558411100
     0.554966742  0.721736521  0.558360938
     0.889611106  0.056170056  0.558271529
     0.889141224  0.389652875  0.558298372
     0.889044881  0.722190084  0.558476532
     0.111249347  0.222103048  0.441417679
     0.111057832  0.555718734  0.441524624
     0.110686810  0.889000576  0.441676233
     0.444566185  0.222773469  0.441575896
     0.443781018  0.555214930  0.441689188
     0.444819541  0.888921534  0.441455431
     0.778152409  0.223051941  0.441549264
     0.777546183  0.555362420  0.441471603
     0.777484311  0.889224042  0.441477210
     0.222022072  0.055390875  0.679272364
     0.222754810  0.389121406  0.679166859
     0.222600022  0.721857322  0.679508954
     0.555544163  0.055325477  0.679326771
     0.556044176  0.388858572  0.679189574
     0.555907232  0.722743177  0.679320986
     0.888529775  0.055264109  0.679378698
     0.888400936  0.388607436  0.679255367
     0.888974970  0.721883684  0.679297915
     0.000050781  0.999694716  0.381198563
     0.999955838  0.333604144  0.381030326
     0.999678577  0.666256931  0.381078357
     0.333147502  0.999987341  0.381014892
     0.333505404  0.333477398  0.381245724
     0.333450991  0.666116100  0.381264287
     0.667272295  0.999671545  0.381266563
     0.666712868  0.333878644  0.381097431
     0.666649112  0.666785627  0.381162386
     0.111128486  0.166657231  0.618913934
     0.111283427  0.499808661  0.618856256
     0.111379444  0.833391940  0.618955510
     0.444594610  0.166223471  0.618960669
     0.444688330  0.500132617  0.619062861
     0.444432117  0.833296793  0.618895763
     0.777856279  0.166744869  0.618910894
     0.778099441  0.500189122  0.618952081
     0.777614298  0.833657571  0.618806045

  ion indices of the primitive-cell ions
   primitive index   ion index
                 1           1
                 2           2
                 3           3
                 4           4
                 5           5
                 6           6
                 7           7
                 8           8
                 9           9
                10          10
                11          11
                12          12
                13          13
                14          14
                15          15
                16          16
                17          17
                18          18
                19          19
                20          20
                21          21
                22          22
                23          23
                24          24
                25          25
                26          26
                27          27
                28          28
                29          29
                30          30
                31          31
                32          32
                33          33
                34          34
                35          35
                36          36
                37          37
                38          38
                39          39
                40          40
                41          41
                42          42
                43          43
                44          44
                45          45
                46          46
                47          47
                48          48
                49          49
                50          50
                51          51
                52          52
                53          53
                54          54

----------------------------------------------------------------------------------------

 
 

Automatic generation of k-mesh.
 generate k-points for:    3    3    1
Space group operators:
 irot       det(A)        alpha          n_x          n_y          n_z        tau_x        tau_y        tau_z
    1     1.000000     0.000000     1.000000     0.000000     0.000000     0.000000     0.000000     0.000000
 
 Subroutine IBZKPT returns following result:
 ===========================================
 
 Found      5 irreducible k-points:
 
 Following reciprocal coordinates:
            Coordinates               Weight
  0.000000  0.000000  0.000000      1.000000
  0.333333 -0.000000 -0.000000      2.000000
  0.000000  0.333333  0.000000      2.000000
  0.333333  0.333333 -0.000000      2.000000
 -0.333333  0.333333  0.000000      2.000000
 
 Following cartesian coordinates:
            Coordinates               Weight
  0.000000  0.000000  0.000000      1.000000
  0.032365  0.019175 -0.000508      2.000000
  0.000000  0.036825 -0.000448      2.000000
  0.032365  0.056000 -0.000956      2.000000
 -0.032365  0.017649  0.000059      2.000000
 


--------------------------------------------------------------------------------------------------------




 Dimension of arrays:
   k-points           NKPTS =      5   k-points in BZ     NKDIM =      5   number of bands    NBANDS=    200
   number of dos      NEDOS =    301   number of ions     NIONS =     54
   non local maximal  LDIM  =      6   non local SUM 2l+1 LMDIM =     18
   total plane-waves  NPLWV = ******
   max r-space proj   IRMAX =      1   max aug-charges    IRDMAX=  34989
   dimension x,y,z NGX =    80 NGY =   80 NGZ =  240
   dimension x,y,z NGXF=   160 NGYF=  160 NGZF=  480
   support grid    NGXF=   160 NGYF=  160 NGZF=  480
   ions per type =              36  18
   NGX,Y,Z   is equivalent  to a cutoff of  12.91, 12.64, 13.12 a.u.
   NGXF,Y,Z  is equivalent  to a cutoff of  25.83, 25.28, 26.24 a.u.

 SYSTEM =  dpgen_md                                
 POSCAR =  Te Mo                                   

 Startparameter for this run:
   NWRITE =      2    write-flag & timer
   PREC   = a         normal or accurate (medium, high low for compatibility)
   ISTART =      0    job   : 0-new  1-cont  2-samecut
   ICHARG =      2    charge: 1-file 2-atom 10-const
   ISPIN  =      1    spin polarized calculation?
   LNONCOLLINEAR =      F non collinear calculations
   LSORBIT =      F    spin-orbit coupling
   INIWAV =      1    electr: 0-lowe 1-rand  2-diag
   LASPH  =      F    aspherical Exc in radial PAW
   METAGGA=      F    non-selfconsistent MetaGGA calc.

 Electronic Relaxation 1
   ENCUT  =  550.0 eV  40.42 Ry    6.36 a.u.  19.69 20.12 58.14*2*pi/ulx,y,z
   ENINI  =  550.0     initial cutoff
   ENAUG  =  368.8 eV  augmentation charge cutoff
   NELM   =    100;   NELMIN=  6; NELMDL= -5     # of ELM steps 
   EDIFF  = 0.1E-05   stopping-criterion for ELM
   LREAL  =      F    real-space projection
   NLSPLINE    = F    spline interpolate recip. space projectors
   LCOMPAT=      F    compatible to vasp.4.4
   GGA_COMPAT  = T    GGA compatible to vasp.4.4-vasp.4.6
   LMAXPAW     = -100 max onsite density
   LMAXMIX     =    2 max onsite mixed and CHGCAR
   VOSKOWN=      0    Vosko Wilk Nusair interpolation
   ROPT   =    0.00000   0.00000
 Ionic relaxation
   EDIFFG = 0.1E-04   stopping-criterion for IOM
   NSW    =     10    number of steps for IOM
   NBLOCK =      1;   KBLOCK =      1    inner block; outer block 
   IBRION =      0    ionic relax: 0-MD 1-quasi-New 2-CG
   NFREE  =      0    steps in history (QN), initial steepest desc. (CG)
   ISIF   =      2    stress and relaxation
   IWAVPR =     11    prediction:  0-non 1-charg 2-wave 3-comb
   ISYM   =      0    0-nonsym 1-usesym 2-fastsym
   LCORR  =      T    Harris-Foulkes like correction to forces

   POTIM  = 2.0000    time-step for ionic-motion
   TEIN   =  100.0    initial temperature
   TEBEG  =  100.0;   TEEND  = 100.0 temperature during run
   SMASS  =   0.04    Nose mass-parameter (am)
   estimated Nose-frequenzy (Omega)   =  0.79E+14 period in steps = 0.40E+02 mass=   0.327E-28a.u.
   SCALEE = 1.0000    scale energy and forces
   NPACO  =    256;   APACO  = 16.0  distance and # of slots for P.C.
   PSTRESS=    0.0 pullay stress

  Mass of Ions in am
   POMASS = 127.60 95.94
  Ionic Valenz
   ZVAL   =   6.00  6.00
  Atomic Wigner-Seitz radii
   RWIGS  =  -1.00 -1.00
  virtual crystal weights 
   VCA    =   1.00  1.00
   NELECT =     324.0000    total number of electrons
   NUPDOWN=      -1.0000    fix difference up-down

 DOS related values:
   EMIN   =  10.00;   EMAX   =-10.00  energy-range for DOS
   EFERMI =   0.00
   ISMEAR =     0;   SIGMA  =   0.10  broadening in eV -4-tet -1-fermi 0-gaus

 Electronic relaxation 2 (details)
   IALGO  =     68    algorithm
   LDIAG  =      T    sub-space diagonalisation (order eigenvalues)
   LSUBROT=      F    optimize rotation matrix (better conditioning)
   TURBO    =      0    0=normal 1=particle mesh
   IRESTART =      0    0=no restart 2=restart with 2 vectors
   NREBOOT  =      0    no. of reboots
   NMIN     =      0    reboot dimension
   EREF     =   0.00    reference energy to select bands
   IMIX   =      4    mixing-type and parameters
     AMIX     =   0.40;   BMIX     =  1.00
     AMIX_MAG =   1.60;   BMIX_MAG =  1.00
     AMIN     =   0.10
     WC   =   100.;   INIMIX=   1;  MIXPRE=   1;  MAXMIX= -45

 Intra band minimization:
   WEIMIN = 0.0010     energy-eigenvalue tresh-hold
   EBREAK =  0.13E-08  absolut break condition
   DEPER  =   0.30     relativ break condition  

   TIME   =   0.40     timestep for ELM

  volume/ion in A,a.u.               =      52.49       354.21
  Fermi-wavevector in a.u.,A,eV,Ry     =   0.794517  1.501420  8.588782  0.631258
  Thomas-Fermi vector in A             =   1.900665
 
 Write flags
   LWAVE        =      F    write WAVECAR
   LDOWNSAMPLE  =      F    k-point downsampling of WAVECAR
   LCHARG       =      F    write CHGCAR
   LVTOT        =      F    write LOCPOT, total local potential
   LVHAR        =      F    write LOCPOT, Hartree potential only
   LELF         =      F    write electronic localiz. function (ELF)
   LORBIT       =      0    0 simple, 1 ext, 2 COOP (PROOUT), +10 PAW based schemes


 Dipole corrections
   LMONO  =      F    monopole corrections only (constant potential shift)
   LDIPOL =      F    correct potential (dipole corrections)
   IDIPOL =      0    1-x, 2-y, 3-z, 4-all directions 
   EPSILON=  1.0000000 bulk dielectric constant

 Exchange correlation treatment:
   GGA     =    --    GGA type
   LEXCH   =     8    internal setting for exchange type
   VOSKOWN=      0    Vosko Wilk Nusair interpolation
   LHFCALC =     F    Hartree Fock is set to
   LHFONE  =     F    Hartree Fock one center treatment
   AEXX    =    0.0000 exact exchange contribution

 Linear response parameters
   LEPSILON=     F    determine dielectric tensor
   LRPA    =     F    only Hartree local field effects (RPA)
   LNABLA  =     F    use nabla operator in PAW spheres
   LVEL    =     F    velocity operator in full k-point grid
   LINTERFAST=   F  fast interpolation
   KINTER  =     0    interpolate to denser k-point grid
   CSHIFT  =0.1000    complex shift for real part using Kramers Kronig
   OMEGAMAX=  -1.0    maximum frequency
   DEG_THRESHOLD= 0.2000000E-02 threshold for treating states as degnerate
   RTIME   =   -0.100 relaxation time in fs
  (WPLASMAI=    0.000 imaginary part of plasma frequency in eV, 0.658/RTIME)
   DFIELD  = 0.0000000 0.0000000 0.0000000 field for delta impulse in time
 
 Orbital magnetization related:
   ORBITALMAG=     F  switch on orbital magnetization
   LCHIMAG   =     F  perturbation theory with respect to B field
   DQ        =  0.001000  dq finite difference perturbation B field
   LLRAUG    =     F  two centre corrections for induced B field



--------------------------------------------------------------------------------------------------------


 molecular dynamics for ions
   using nose mass (canonical ensemble)
 charge density and potential will be updated during run
 non-spin polarized calculation
 RMM-DIIS sequential band-by-band and
  variant of blocked Davidson during initial phase
 perform sub-space diagonalisation
    before iterative eigenvector-optimisation
 modified Broyden-mixing scheme, WC =      100.0
 initial mixing is a Kerker type mixing with AMIX =  0.4000 and BMIX =      1.0000
 Hartree-type preconditioning will be used
 using additional bands           38
 reciprocal scheme for non local part
 use partial core corrections
 calculate Harris-corrections to forces 
   (improved forces if not selfconsistent)
 use gradient corrections 
 use of overlap-Matrix (Vanderbilt PP)
 Gauss-broadening in eV      SIGMA  =   0.10


--------------------------------------------------------------------------------------------------------


  energy-cutoff  :      550.00
  volume of cell :     2834.39
      direct lattice vectors                 reciprocal lattice vectors
    10.299123095  0.000000000  0.000000000     0.097095645  0.057526082 -0.001522705
    -5.362952465  9.051882446  0.000000000     0.000000000  0.110474258 -0.001344278
     0.257613746  0.369954646 30.403275275     0.000000000  0.000000000  0.032891193

  length of vectors
    10.299123095 10.521303862 30.406617351     0.112867768  0.110482437  0.032891193


 
 k-points in units of 2pi/SCALE and weight: read from INCAR                         
   0.00000000  0.00000000  0.00000000       0.111
   0.03236522  0.01917536 -0.00050757       0.222
   0.00000000  0.03682475 -0.00044809       0.222
   0.03236522  0.05600011 -0.00095566       0.222
  -0.03236522  0.01764939  0.00005948       0.222
 
 k-points in reciprocal lattice and weights: read from INCAR                         
   0.00000000  0.00000000  0.00000000       0.111
   0.33333333 -0.00000000 -0.00000000       0.222
   0.00000000  0.33333333  0.00000000       0.222
   0.33333333  0.33333333 -0.00000000       0.222
  -0.33333333  0.33333333  0.00000000       0.222
 
 position of ions in fractional coordinates (direct lattice) 
   0.11112903  0.22186869  0.32075672
   0.11154319  0.55546405  0.32077277
   0.11109040  0.88882911  0.32064713
   0.44420603  0.22215238  0.32067209
   0.44412984  0.55539770  0.32074138
   0.44418846  0.88867948  0.32062820
   0.77778072  0.22169812  0.32050749
   0.77818603  0.55604047  0.32087177
   0.77721014  0.88788562  0.32053750
   0.22273640  0.05611209  0.55830185
   0.22166871  0.38806411  0.55829374
   0.22224732  0.72222332  0.55844590
   0.55613341  0.05590340  0.55858687
   0.55596826  0.38895709  0.55841110
   0.55496674  0.72173652  0.55836094
   0.88961111  0.05617006  0.55827153
   0.88914122  0.38965287  0.55829837
   0.88904488  0.72219008  0.55847653
   0.11124935  0.22210305  0.44141768
   0.11105783  0.55571873  0.44152462
   0.11068681  0.88900058  0.44167623
   0.44456618  0.22277347  0.44157590
   0.44378102  0.55521493  0.44168919
   0.44481954  0.88892153  0.44145543
   0.77815241  0.22305194  0.44154926
   0.77754618  0.55536242  0.44147160
   0.77748431  0.88922404  0.44147721
   0.22202207  0.05539088  0.67927236
   0.22275481  0.38912141  0.67916686
   0.22260002  0.72185732  0.67950895
   0.55554416  0.05532548  0.67932677
   0.55604418  0.38885857  0.67918957
   0.55590723  0.72274318  0.67932099
   0.88852978  0.05526411  0.67937870
   0.88840094  0.38860744  0.67925537
   0.88897497  0.72188368  0.67929791
   0.00005078  0.99969472  0.38119856
   0.99995584  0.33360414  0.38103033
   0.99967858  0.66625693  0.38107836
   0.33314750  0.99998734  0.38101489
   0.33350540  0.33347740  0.38124572
   0.33345099  0.66611610  0.38126429
   0.66727229  0.99967155  0.38126656
   0.66671287  0.33387864  0.38109743
   0.66664911  0.66678563  0.38116239
   0.11112849  0.16665723  0.61891393
   0.11128343  0.49980866  0.61885626
   0.11137944  0.83339194  0.61895551
   0.44459461  0.16622347  0.61896067
   0.44468833  0.50013262  0.61906286
   0.44443212  0.83329679  0.61889576
   0.77785628  0.16674487  0.61891089
   0.77809944  0.50018912  0.61895208
   0.77761430  0.83365757  0.61880604
 
 position of ions in cartesian coordinates  (Angst):
   0.03729162  2.12699474  9.75205486
  -1.74749478  5.14666662  9.75254274
  -3.54001149  8.16420156  9.74872293
   3.46614945  2.12953136  9.74948172
   1.67820381  5.14605443  9.75158843
  -0.10859593  8.16284003  9.74814747
   6.90407003  2.12535855  9.74447749
   5.11527606  5.15192100  9.75555280
   3.32546940  8.15562059  9.74538971
   2.13688939  0.71446638 16.97420491
   0.34564814  3.71925405 16.97395836
  -1.44043352  6.74408024 16.97858435
   5.57177883  0.71268280 16.98287048
   3.78388151  3.72738068 16.97752638
   1.98887359  6.73964237 16.97600129
   9.00479537  0.71497989 16.97328299
   7.21151041  3.73363709 16.97409908
   5.42718281  6.74379073 16.97951574
   0.06835790  2.17375520 13.42054320
  -1.72275206  5.19364474 13.42379468
  -3.51390888  8.21052888 13.42840409
   3.49767436  2.17988230 13.42535352
   1.70674926  5.18914524 13.42879798
  -0.07226774  8.20973172 13.42169098
   6.93181965  2.18239315 13.42454383
   5.14339074  5.19039981 13.42218266
   3.35227095  8.21247804 13.42235315
   2.16456392  0.75269166 20.65210467
   0.38230232  3.77354216 20.64889696
  -1.40365063  6.78555511 20.65929777
   5.59991373  0.75211981 20.65375882
   3.81630595  3.77117142 20.64958759
   2.02432213  6.79350423 20.65358295
   9.02971604  0.75158352 20.65533757
   7.24065291  3.76892250 20.65158792
   5.45923124  6.78571566 20.65288150
  -5.26259025  9.19014523 11.58968483
   8.60772375  3.16070943 11.58456989
   6.82087949  6.17186113 11.58603020
  -1.83360278  9.19272609 11.58410066
   1.74460392  3.15964183 11.59111868
  -0.03987726  6.17065513 11.59168308
   1.60934803  9.18996065 11.59175227
   5.17415854  3.16321900 11.58661010
   3.38815431  6.17667791 11.58858494
   0.41019189  1.73753175 18.81701072
  -1.37490250  4.75315799 18.81525710
  -3.16287930  7.77275134 18.81827476
   3.84693882  1.73362269 18.81843160
   2.05719150  4.75616684 18.82153856
   0.26776605  7.77186797 18.81645825
   7.27643272  1.73832391 18.81691827
   5.49070201  4.75663733 18.81817050
   3.69729239  7.77510050 18.81373052
 


--------------------------------------------------------------------------------------------------------


 k-point   1 :   0.0000 0.0000 0.0000  plane waves:   83045
 k-point   2 :   0.3333-0.0000-0.0000  plane waves:   82998
 k-point   3 :   0.0000 0.3333 0.0000  plane waves:   83014
 k-point   4 :   0.3333 0.3333-0.0000  plane waves:   83017
 k-point   5 :  -0.3333 0.3333 0.0000  plane waves:   83028

 maximum and minimum number of plane-waves per node :     83045    82998

 maximum number of plane-waves:     83045
 maximum index in each direction: 
   IXMAX=   20   IYMAX=   20   IZMAX=   58
   IXMIN=  -20   IYMIN=  -20   IZMIN=  -58


 serial   3D FFT for wavefunctions
 parallel 3D FFT for charge:
    minimum data exchange during FFTs selected (reduces bandwidth)


 total amount of memory used by VASP MPI-rank0   351136. kBytes
=======================================================================

   base      :      30000. kBytes
   nonl-proj :     191416. kBytes
   fftplans  :      16533. kBytes
   grid      :      78796. kBytes
   one-center:        839. kBytes
   wavefun   :      33552. kBytes
 
     INWAV:  cpu time    0.0000: real time    0.0000
 Broyden mixing: mesh for mixing (old mesh)
   NGX = 39   NGY = 41   NGZ =117
  (NGX  =160   NGY  =160   NGZ  =480)
  gives a total of 187083 points

 initial charge density was supplied:
 charge density of overlapping atoms calculated
 number of electron     324.0000000 magnetization 
 keeping initial charge density in first step


--------------------------------------------------------------------------------------------------------


 Maximum index for augmentation-charges         1147 (set IRDMAX)


--------------------------------------------------------------------------------------------------------


 First call to EWALD:  gamma=   0.125
 Maximum number of real-space cells 4x 4x 2
 Maximum number of reciprocal cells 2x 2x 5

    FEWALD:  cpu time    0.0044: real time    0.0045


--------------------------------------- Iteration      1(   1)  ---------------------------------------


    POTLOK:  cpu time    0.2765: real time    0.2774
    SETDIJ:  cpu time    0.0107: real time    0.0108
     EDDAV:  cpu time   47.4689: real time   47.6085
       DOS:  cpu time    0.0009: real time    0.0010
    --------------------------------------------
      LOOP:  cpu time   47.7570: real time   47.8977

 eigenvalue-minimisations  :  2000
 total energy-change (2. order) : 0.2139420E+04  (-0.1161960E+05)
 number of electron     324.0000000 magnetization 
 augmentation part      324.0000000 magnetization 

 Free energy of the ion-electron system (eV)
  ---------------------------------------------------
  alpha Z        PSCENC =       253.19956428
  Ewald energy   TEWEN  =     66360.11039229
  -Hartree energ DENC   =    -78070.01553072
  -exchange      EXHF   =         0.00000000
  -V(xc)+E(xc)   XCENC  =     -2096.93347057
  PAW double counting   =      7476.04436201    -4809.59211051
  entropy T*S    EENTRO =        -0.11739556
  eigenvalues    EBANDS =      1073.64115235
  atomic energy  EATOM  =     11953.08265402
  Solvation  Ediel_sol  =         0.00000000
  ---------------------------------------------------
  free energy    TOTEN  =      2139.41961760 eV

  energy without entropy =     2139.53701316  energy(sigma->0) =     2139.47831538


--------------------------------------------------------------------------------------------------------




--------------------------------------- Iteration      1(   2)  ---------------------------------------


     EDDAV:  cpu time   66.3879: real time   66.5666
       DOS:  cpu time    0.0005: real time    0.0005
    --------------------------------------------
      LOOP:  cpu time   66.3885: real time   66.5672

 eigenvalue-minimisations  :  3040
 total energy-change (2. order) :-0.2237702E+04  (-0.2162702E+04)
 number of electron     324.0000000 magnetization 
 augmentation part      324.0000000 magnetization 

 Free energy of the ion-electron system (eV)
  ---------------------------------------------------
  alpha Z        PSCENC =       253.19956428
  Ewald energy   TEWEN  =     66360.11039229
  -Hartree energ DENC   =    -78070.01553072
  -exchange      EXHF   =         0.00000000
  -V(xc)+E(xc)   XCENC  =     -2096.93347057
  PAW double counting   =      7476.04436201    -4809.59211051
  entropy T*S    EENTRO =        -0.00041702
  eigenvalues    EBANDS =     -1164.17808978
  atomic energy  EATOM  =     11953.08265402
  Solvation  Ediel_sol  =         0.00000000
  ---------------------------------------------------
  free energy    TOTEN  =       -98.28264600 eV

  energy without entropy =      -98.28222898  energy(sigma->0) =      -98.28243749


--------------------------------------------------------------------------------------------------------




--------------------------------------- Iteration      1(   3)  ---------------------------------------


     EDDAV:  cpu time   56.1816: real time   56.3258
       DOS:  cpu time    0.0004: real time    0.0003
    --------------------------------------------
      LOOP:  cpu time   56.1820: real time   56.3261

 eigenvalue-minimisations  :  2480
 total energy-change (2. order) :-0.2249537E+03  (-0.2214113E+03)
 number of electron     324.0000000 magnetization 
 augmentation part      324.0000000 magnetization 

 Free energy of the ion-electron system (eV)
  ---------------------------------------------------
  alpha Z        PSCENC =       253.19956428
  Ewald energy   TEWEN  =     66360.11039229
  -Hartree energ DENC   =    -78070.01553072
  -exchange      EXHF   =         0.00000000
  -V(xc)+E(xc)   XCENC  =     -2096.93347057
  PAW double counting   =      7476.04436201    -4809.59211051
  entropy T*S    EENTRO =        -0.00000000
  eigenvalues    EBANDS =     -1389.13216648
  atomic energy  EATOM  =     11953.08265402
  Solvation  Ediel_sol  =         0.00000000
  ---------------------------------------------------
  free energy    TOTEN  =      -323.23630568 eV

  energy without entropy =     -323.23630568  energy(sigma->0) =     -323.23630568


--------------------------------------------------------------------------------------------------------




--------------------------------------- Iteration      1(   4)  ---------------------------------------


     EDDAV:  cpu time   68.6477: real time   68.8317
       DOS:  cpu time    0.0004: real time    0.0004
    --------------------------------------------
      LOOP:  cpu time   68.6481: real time   68.8320

 eigenvalue-minimisations  :  3160
 total energy-change (2. order) :-0.1198214E+02  (-0.1191375E+02)
 number of electron     324.0000000 magnetization 
 augmentation part      324.0000000 magnetization 

 Free energy of the ion-electron system (eV)
  ---------------------------------------------------
  alpha Z        PSCENC =       253.19956428
  Ewald energy   TEWEN  =     66360.11039229
  -Hartree energ DENC   =    -78070.01553072
  -exchange      EXHF   =         0.00000000
  -V(xc)+E(xc)   XCENC  =     -2096.93347057
  PAW double counting   =      7476.04436201    -4809.59211051
  entropy T*S    EENTRO =        -0.00000000
  eigenvalues    EBANDS =     -1401.11430647
  atomic energy  EATOM  =     11953.08265402
  Solvation  Ediel_sol  =         0.00000000
  ---------------------------------------------------
  free energy    TOTEN  =      -335.21844567 eV

  energy without entropy =     -335.21844567  energy(sigma->0) =     -335.21844567


--------------------------------------------------------------------------------------------------------




--------------------------------------- Iteration      1(   5)  ---------------------------------------


     EDDAV:  cpu time   64.8825: real time   65.0432
       DOS:  cpu time    0.0004: real time    0.0004
    CHARGE:  cpu time    1.1245: real time    1.1260
    MIXING:  cpu time    0.0073: real time    0.0076
    --------------------------------------------
      LOOP:  cpu time   66.0148: real time   66.1772

 eigenvalue-minimisations  :  2960
 total energy-change (2. order) :-0.2822845E+00  (-0.2818129E+00)
 number of electron     324.0000015 magnetization 
 augmentation part      -25.0751995 magnetization 

 Broyden mixing:
  rms(total) = 0.18430E+01    rms(broyden)= 0.18430E+01
  rms(prec ) = 0.19460E+01
  weight for this iteration     100.00

 Free energy of the ion-electron system (eV)
  ---------------------------------------------------
  alpha Z        PSCENC =       253.19956428
  Ewald energy   TEWEN  =     66360.11039229
  -Hartree energ DENC   =    -78070.01553072
  -exchange      EXHF   =         0.00000000
  -V(xc)+E(xc)   XCENC  =     -2096.93347057
  PAW double counting   =      7476.04436201    -4809.59211051
  entropy T*S    EENTRO =        -0.00000000
  eigenvalues    EBANDS =     -1401.39659101
  atomic energy  EATOM  =     11953.08265402
  Solvation  Ediel_sol  =         0.00000000
  ---------------------------------------------------
  free energy    TOTEN  =      -335.50073021 eV

  energy without entropy =     -335.50073021  energy(sigma->0) =     -335.50073021


--------------------------------------------------------------------------------------------------------




--------------------------------------- Iteration      1(   6)  ---------------------------------------


    POTLOK:  cpu time    0.2396: real time    0.2398
    SETDIJ:  cpu time    0.0107: real time    0.0107
    EDDIAG:  cpu time    2.4539: real time    2.4612
  RMM-DIIS:  cpu time   39.9772: real time   40.0948
    ORTHCH:  cpu time    0.2013: real time    0.2015
       DOS:  cpu time    0.0005: real time    0.0005
    CHARGE:  cpu time    1.1231: real time    1.1243
    MIXING:  cpu time    0.0068: real time    0.0069
    --------------------------------------------
      LOOP:  cpu time   44.0130: real time   44.1396

 eigenvalue-minimisations  :  2115
 total energy-change (2. order) : 0.9173733E+01  (-0.4069865E+01)
 number of electron     324.0000015 magnetization 
 augmentation part      -20.4468947 magnetization 

 Broyden mixing:
  rms(total) = 0.69112E+00    rms(broyden)= 0.69112E+00
  rms(prec ) = 0.78817E+00
  weight for this iteration     100.00

 eigenvalues of (default mixing * dielectric matrix)
  average eigenvalue GAMMA=   1.1565
  1.1565

 Free energy of the ion-electron system (eV)
  ---------------------------------------------------
  alpha Z        PSCENC =       253.19956428
  Ewald energy   TEWEN  =     66360.11039229
  -Hartree energ DENC   =    -78065.98174541
  -exchange      EXHF   =         0.00000000
  -V(xc)+E(xc)   XCENC  =     -2090.68373082
  PAW double counting   =      7723.61746546    -5068.83925199
  entropy T*S    EENTRO =        -0.00000000
  eigenvalues    EBANDS =     -1390.83234533
  atomic energy  EATOM  =     11953.08265402
  Solvation  Ediel_sol  =         0.00000000
  ---------------------------------------------------
  free energy    TOTEN  =      -326.32699750 eV

  energy without entropy =     -326.32699750  energy(sigma->0) =     -326.32699750


--------------------------------------------------------------------------------------------------------




--------------------------------------- Iteration      1(   7)  ---------------------------------------


    POTLOK:  cpu time    0.2363: real time    0.2366
    SETDIJ:  cpu time    0.0107: real time    0.0107
    EDDIAG:  cpu time    2.4944: real time    2.4992
  RMM-DIIS:  cpu time   37.9576: real time   38.0769
    ORTHCH:  cpu time    0.2431: real time    0.2433
       DOS:  cpu time    0.0005: real time    0.0005
    CHARGE:  cpu time    1.1214: real time    1.1225
    MIXING:  cpu time    0.0067: real time    0.0067
    --------------------------------------------
      LOOP:  cpu time   42.0706: real time   42.1964

 eigenvalue-minimisations  :  2011
 total energy-change (2. order) : 0.2908449E+01  (-0.1030673E+01)
 number of electron     324.0000015 magnetization 
 augmentation part      -21.8862163 magnetization 

 Broyden mixing:
  rms(total) = 0.44317E+00    rms(broyden)= 0.44316E+00
  rms(prec ) = 0.46754E+00
  weight for this iteration     100.00

 eigenvalues of (default mixing * dielectric matrix)
  average eigenvalue GAMMA=   1.4573
  0.7515  2.1631

 Free energy of the ion-electron system (eV)
  ---------------------------------------------------
  alpha Z        PSCENC =       253.19956428
  Ewald energy   TEWEN  =     66360.11039229
  -Hartree energ DENC   =    -78154.78574501
  -exchange      EXHF   =         0.00000000
  -V(xc)+E(xc)   XCENC  =     -2088.77623106
  PAW double counting   =      8040.41606309    -5391.67673289
  entropy T*S    EENTRO =        -0.00000000
  eigenvalues    EBANDS =     -1294.98851284
  atomic energy  EATOM  =     11953.08265402
  Solvation  Ediel_sol  =         0.00000000
  ---------------------------------------------------
  free energy    TOTEN  =      -323.41854812 eV

  energy without entropy =     -323.41854812  energy(sigma->0) =     -323.41854812


--------------------------------------------------------------------------------------------------------




--------------------------------------- Iteration      1(   8)  ---------------------------------------


    POTLOK:  cpu time    0.2392: real time    0.2395
    SETDIJ:  cpu time    0.0107: real time    0.0107
    EDDIAG:  cpu time    2.4441: real time    2.4510
  RMM-DIIS:  cpu time   37.6116: real time   37.7362
    ORTHCH:  cpu time    0.2060: real time    0.2062
       DOS:  cpu time    0.0005: real time    0.0005
    CHARGE:  cpu time    1.1291: real time    1.1305
    MIXING:  cpu time    0.0071: real time    0.0071
    --------------------------------------------
      LOOP:  cpu time   41.6484: real time   41.7816

 eigenvalue-minimisations  :  2000
 total energy-change (2. order) : 0.4087558E+00  (-0.5964233E+00)
 number of electron     324.0000015 magnetization 
 augmentation part      -21.4074567 magnetization 

 Broyden mixing:
  rms(total) = 0.10400E+00    rms(broyden)= 0.10400E+00
  rms(prec ) = 0.11749E+00
  weight for this iteration     100.00

 eigenvalues of (default mixing * dielectric matrix)
  average eigenvalue GAMMA=   1.3319
  2.1110  1.1131  0.7716

 Free energy of the ion-electron system (eV)
  ---------------------------------------------------
  alpha Z        PSCENC =       253.19956428
  Ewald energy   TEWEN  =     66360.11039229
  -Hartree energ DENC   =    -78204.78765287
  -exchange      EXHF   =         0.00000000
  -V(xc)+E(xc)   XCENC  =     -2085.17616593
  PAW double counting   =      8321.92123887    -5679.07788172
  entropy T*S    EENTRO =        -0.00000000
  eigenvalues    EBANDS =     -1242.28194121
  atomic energy  EATOM  =     11953.08265402
  Solvation  Ediel_sol  =         0.00000000
  ---------------------------------------------------
  free energy    TOTEN  =      -323.00979227 eV

  energy without entropy =     -323.00979227  energy(sigma->0) =     -323.00979227


--------------------------------------------------------------------------------------------------------




--------------------------------------- Iteration      1(   9)  ---------------------------------------


    POTLOK:  cpu time    0.2401: real time    0.2404
    SETDIJ:  cpu time    0.0106: real time    0.0106
    EDDIAG:  cpu time    2.4421: real time    2.4486
  RMM-DIIS:  cpu time   43.2941: real time   43.4088
    ORTHCH:  cpu time    0.2047: real time    0.2088
       DOS:  cpu time    0.0005: real time    0.0005
    CHARGE:  cpu time    1.1295: real time    1.1307
    MIXING:  cpu time    0.0069: real time    0.0069
    --------------------------------------------
      LOOP:  cpu time   47.3284: real time   47.4552

 eigenvalue-minimisations  :  2267
 total energy-change (2. order) :-0.8390252E-01  (-0.1340416E+00)
 number of electron     324.0000015 magnetization 
 augmentation part      -21.0562876 magnetization 

 Broyden mixing:
  rms(total) = 0.10584E+00    rms(broyden)= 0.10584E+00
  rms(prec ) = 0.11732E+00
  weight for this iteration     100.00

 eigenvalues of (default mixing * dielectric matrix)
  average eigenvalue GAMMA=   1.2562
  1.9260  1.9260  0.7291  0.4438

 Free energy of the ion-electron system (eV)
  ---------------------------------------------------
  alpha Z        PSCENC =       253.19956428
  Ewald energy   TEWEN  =     66360.11039229
  -Hartree energ DENC   =    -78207.76484203
  -exchange      EXHF   =         0.00000000
  -V(xc)+E(xc)   XCENC  =     -2084.78707781
  PAW double counting   =      8339.22898465    -5696.70937246
  entropy T*S    EENTRO =        -0.00000000
  eigenvalues    EBANDS =     -1239.45399773
  atomic energy  EATOM  =     11953.08265402
  Solvation  Ediel_sol  =         0.00000000
  ---------------------------------------------------
  free energy    TOTEN  =      -323.09369479 eV

  energy without entropy =     -323.09369479  energy(sigma->0) =     -323.09369479


--------------------------------------------------------------------------------------------------------




--------------------------------------- Iteration      1(  10)  ---------------------------------------


    POTLOK:  cpu time    0.2381: real time    0.2383
    SETDIJ:  cpu time    0.0108: real time    0.0108
    EDDIAG:  cpu time    2.4460: real time    2.4511
  RMM-DIIS:  cpu time   43.4029: real time   43.5327
    ORTHCH:  cpu time    0.2017: real time    0.2019
       DOS:  cpu time    0.0005: real time    0.0005
    CHARGE:  cpu time    1.1239: real time    1.1293
    MIXING:  cpu time    0.0087: real time    0.0087
    --------------------------------------------
      LOOP:  cpu time   47.4326: real time   47.5733

 eigenvalue-minimisations  :  2299
 total energy-change (2. order) : 0.1283265E-01  (-0.2889989E-01)
 number of electron     324.0000015 magnetization 
 augmentation part      -21.0082199 magnetization 

 Broyden mixing:
  rms(total) = 0.61753E-01    rms(broyden)= 0.61753E-01
  rms(prec ) = 0.70202E-01
  weight for this iteration     100.00

 eigenvalues of (default mixing * dielectric matrix)
  average eigenvalue GAMMA=   1.3213
  2.2744  2.1412  0.8974  0.8974  0.3959

 Free energy of the ion-electron system (eV)
  ---------------------------------------------------
  alpha Z        PSCENC =       253.19956428
  Ewald energy   TEWEN  =     66360.11039229
  -Hartree energ DENC   =    -78214.34325087
  -exchange      EXHF   =         0.00000000
  -V(xc)+E(xc)   XCENC  =     -2084.58242666
  PAW double counting   =      8363.19218907    -5720.75038239
  entropy T*S    EENTRO =        -0.00000000
  eigenvalues    EBANDS =     -1232.98960188
  atomic energy  EATOM  =     11953.08265402
  Solvation  Ediel_sol  =         0.00000000
  ---------------------------------------------------
  free energy    TOTEN  =      -323.08086213 eV

  energy without entropy =     -323.08086213  energy(sigma->0) =     -323.08086213


--------------------------------------------------------------------------------------------------------




--------------------------------------- Iteration      1(  11)  ---------------------------------------


    POTLOK:  cpu time    0.2373: real time    0.2376
    SETDIJ:  cpu time    0.0110: real time    0.0110
    EDDIAG:  cpu time    2.4400: real time    2.4454
  RMM-DIIS:  cpu time   40.4064: real time   40.5318
    ORTHCH:  cpu time    0.2057: real time    0.2059
       DOS:  cpu time    0.0005: real time    0.0005
    CHARGE:  cpu time    1.1309: real time    1.1322
    MIXING:  cpu time    0.0125: real time    0.0125
    --------------------------------------------
      LOOP:  cpu time   44.4442: real time   44.5770

 eigenvalue-minimisations  :  2135
 total energy-change (2. order) : 0.8842253E-02  (-0.1472085E-01)
 number of electron     324.0000015 magnetization 
 augmentation part      -21.2838994 magnetization 

 Broyden mixing:
  rms(total) = 0.30132E-01    rms(broyden)= 0.30132E-01
  rms(prec ) = 0.34400E-01
  weight for this iteration     100.00

 eigenvalues of (default mixing * dielectric matrix)
  average eigenvalue GAMMA=   1.2530
  2.4978  1.8191  1.3910  0.7086  0.7086  0.3929

 Free energy of the ion-electron system (eV)
  ---------------------------------------------------
  alpha Z        PSCENC =       253.19956428
  Ewald energy   TEWEN  =     66360.11039229
  -Hartree energ DENC   =    -78230.36536672
  -exchange      EXHF   =         0.00000000
  -V(xc)+E(xc)   XCENC  =     -2084.39785698
  PAW double counting   =      8404.19975409    -5761.88469781
  entropy T*S    EENTRO =        -0.00000000
  eigenvalues    EBANDS =     -1217.01646305
  atomic energy  EATOM  =     11953.08265402
  Solvation  Ediel_sol  =         0.00000000
  ---------------------------------------------------
  free energy    TOTEN  =      -323.07201988 eV

  energy without entropy =     -323.07201988  energy(sigma->0) =     -323.07201988


--------------------------------------------------------------------------------------------------------




--------------------------------------- Iteration      1(  12)  ---------------------------------------


    POTLOK:  cpu time    0.2453: real time    0.2456
    SETDIJ:  cpu time    0.0123: real time    0.0123
    EDDIAG:  cpu time    2.4289: real time    2.4400
  RMM-DIIS:  cpu time   46.3873: real time   46.5032
    ORTHCH:  cpu time    0.2041: real time    0.2043
       DOS:  cpu time    0.0004: real time    0.0004
    CHARGE:  cpu time    1.1300: real time    1.1311
    MIXING:  cpu time    0.0075: real time    0.0075
    --------------------------------------------
      LOOP:  cpu time   50.4159: real time   50.5445

 eigenvalue-minimisations  :  2437
 total energy-change (2. order) : 0.4260428E-03  (-0.2815447E-02)
 number of electron     324.0000015 magnetization 
 augmentation part      -21.2680396 magnetization 

 Broyden mixing:
  rms(total) = 0.20792E-01    rms(broyden)= 0.20791E-01
  rms(prec ) = 0.24313E-01
  weight for this iteration     100.00

 eigenvalues of (default mixing * dielectric matrix)
  average eigenvalue GAMMA=   1.2567
  2.4993  1.9440  1.9440  0.8068  0.8068  0.4125  0.3835

 Free energy of the ion-electron system (eV)
  ---------------------------------------------------
  alpha Z        PSCENC =       253.19956428
  Ewald energy   TEWEN  =     66360.11039229
  -Hartree energ DENC   =    -78233.62056070
  -exchange      EXHF   =         0.00000000
  -V(xc)+E(xc)   XCENC  =     -2084.30997686
  PAW double counting   =      8406.88889949    -5764.58456695
  entropy T*S    EENTRO =        -0.00000000
  eigenvalues    EBANDS =     -1213.83799941
  atomic energy  EATOM  =     11953.08265402
  Solvation  Ediel_sol  =         0.00000000
  ---------------------------------------------------
  free energy    TOTEN  =      -323.07159384 eV

  energy without entropy =     -323.07159384  energy(sigma->0) =     -323.07159384


--------------------------------------------------------------------------------------------------------




--------------------------------------- Iteration      1(  13)  ---------------------------------------


    POTLOK:  cpu time    0.2412: real time    0.2414
    SETDIJ:  cpu time    0.0109: real time    0.0109
    EDDIAG:  cpu time    2.4592: real time    2.4620
  RMM-DIIS:  cpu time   44.2329: real time   44.3731
    ORTHCH:  cpu time    0.2049: real time    0.2051
       DOS:  cpu time    0.0004: real time    0.0004
    CHARGE:  cpu time    1.1206: real time    1.1258
    MIXING:  cpu time    0.0116: real time    0.0116
    --------------------------------------------
      LOOP:  cpu time   48.2817: real time   48.4304

 eigenvalue-minimisations  :  2328
 total energy-change (2. order) : 0.2924966E-03  (-0.1819635E-02)
 number of electron     324.0000015 magnetization 
 augmentation part      -21.1751652 magnetization 

 Broyden mixing:
  rms(total) = 0.11899E-01    rms(broyden)= 0.11899E-01
  rms(prec ) = 0.14567E-01
  weight for this iteration     100.00

 eigenvalues of (default mixing * dielectric matrix)
  average eigenvalue GAMMA=   1.3903
  2.9550  2.7126  1.6918  1.3532  0.8035  0.8035  0.4204  0.3820

 Free energy of the ion-electron system (eV)
  ---------------------------------------------------
  alpha Z        PSCENC =       253.19956428
  Ewald energy   TEWEN  =     66360.11039229
  -Hartree energ DENC   =    -78236.72882612
  -exchange      EXHF   =         0.00000000
  -V(xc)+E(xc)   XCENC  =     -2084.23423741
  PAW double counting   =      8403.85018668    -5761.50920387
  entropy T*S    EENTRO =        -0.00000000
  eigenvalues    EBANDS =     -1210.84183123
  atomic energy  EATOM  =     11953.08265402
  Solvation  Ediel_sol  =         0.00000000
  ---------------------------------------------------
  free energy    TOTEN  =      -323.07130134 eV

  energy without entropy =     -323.07130134  energy(sigma->0) =     -323.07130134


--------------------------------------------------------------------------------------------------------




--------------------------------------- Iteration      1(  14)  ---------------------------------------


    POTLOK:  cpu time    0.2371: real time    0.2373
    SETDIJ:  cpu time    0.0109: real time    0.0109
    EDDIAG:  cpu time    2.4493: real time    2.4563
  RMM-DIIS:  cpu time   39.4625: real time   39.5664
    ORTHCH:  cpu time    0.2022: real time    0.2024
       DOS:  cpu time    0.0005: real time    0.0005
    CHARGE:  cpu time    1.1288: real time    1.1299
    MIXING:  cpu time    0.0097: real time    0.0097
    --------------------------------------------
      LOOP:  cpu time   43.5011: real time   43.6135

 eigenvalue-minimisations  :  2054
 total energy-change (2. order) :-0.4174861E-03  (-0.4537625E-03)
 number of electron     324.0000015 magnetization 
 augmentation part      -21.2091927 magnetization 

 Broyden mixing:
  rms(total) = 0.61788E-02    rms(broyden)= 0.61788E-02
  rms(prec ) = 0.75682E-02
  weight for this iteration     100.00

 eigenvalues of (default mixing * dielectric matrix)
  average eigenvalue GAMMA=   1.3355
  3.1745  2.5705  1.6252  1.6252  0.7962  0.7962  0.6291  0.3825  0.4203

 Free energy of the ion-electron system (eV)
  ---------------------------------------------------
  alpha Z        PSCENC =       253.19956428
  Ewald energy   TEWEN  =     66360.11039229
  -Hartree energ DENC   =    -78245.96698783
  -exchange      EXHF   =         0.00000000
  -V(xc)+E(xc)   XCENC  =     -2084.22673858
  PAW double counting   =      8403.61471987    -5761.14220691
  entropy T*S    EENTRO =        -0.00000000
  eigenvalues    EBANDS =     -1201.74311598
  atomic energy  EATOM  =     11953.08265402
  Solvation  Ediel_sol  =         0.00000000
  ---------------------------------------------------
  free energy    TOTEN  =      -323.07171883 eV

  energy without entropy =     -323.07171883  energy(sigma->0) =     -323.07171883


--------------------------------------------------------------------------------------------------------




--------------------------------------- Iteration      1(  15)  ---------------------------------------


    POTLOK:  cpu time    0.2428: real time    0.2430
    SETDIJ:  cpu time    0.0130: real time    0.0130
    EDDIAG:  cpu time    2.4473: real time    2.4502
  RMM-DIIS:  cpu time   51.4827: real time   51.6162
    ORTHCH:  cpu time    0.2066: real time    0.2069
       DOS:  cpu time    0.0005: real time    0.0005
    CHARGE:  cpu time    1.1277: real time    1.1290
    MIXING:  cpu time    0.0081: real time    0.0081
    --------------------------------------------
      LOOP:  cpu time   55.5288: real time   55.6669

 eigenvalue-minimisations  :  2688
 total energy-change (2. order) :-0.7852338E-03  (-0.2126124E-03)
 number of electron     324.0000015 magnetization 
 augmentation part      -21.2132315 magnetization 

 Broyden mixing:
  rms(total) = 0.58638E-02    rms(broyden)= 0.58638E-02
  rms(prec ) = 0.69418E-02
  weight for this iteration     100.00

 eigenvalues of (default mixing * dielectric matrix)
  average eigenvalue GAMMA=   1.3258
  3.2701  2.3989  1.9330  1.9330  0.9251  0.7937  0.7937  0.4308  0.3860  0.3939

 Free energy of the ion-electron system (eV)
  ---------------------------------------------------
  alpha Z        PSCENC =       253.19956428
  Ewald energy   TEWEN  =     66360.11039229
  -Hartree energ DENC   =    -78247.50030491
  -exchange      EXHF   =         0.00000000
  -V(xc)+E(xc)   XCENC  =     -2084.21604176
  PAW double counting   =      8403.52202255    -5761.06468150
  entropy T*S    EENTRO =        -0.00000000
  eigenvalues    EBANDS =     -1200.20610904
  atomic energy  EATOM  =     11953.08265402
  Solvation  Ediel_sol  =         0.00000000
  ---------------------------------------------------
  free energy    TOTEN  =      -323.07250406 eV

  energy without entropy =     -323.07250406  energy(sigma->0) =     -323.07250406


--------------------------------------------------------------------------------------------------------




--------------------------------------- Iteration      1(  16)  ---------------------------------------


    POTLOK:  cpu time    0.2447: real time    0.2449
    SETDIJ:  cpu time    0.0108: real time    0.0108
    EDDIAG:  cpu time    2.4344: real time    2.4411
  RMM-DIIS:  cpu time   41.6239: real time   41.7423
    ORTHCH:  cpu time    0.2100: real time    0.2102
       DOS:  cpu time    0.0004: real time    0.0004
    CHARGE:  cpu time    1.1241: real time    1.1252
    MIXING:  cpu time    0.0082: real time    0.0082
    --------------------------------------------
      LOOP:  cpu time   45.6564: real time   45.7832

 eigenvalue-minimisations  :  2184
 total energy-change (2. order) :-0.1315585E-02  (-0.6818885E-04)
 number of electron     324.0000015 magnetization 
 augmentation part      -21.2024535 magnetization 

 Broyden mixing:
  rms(total) = 0.22816E-02    rms(broyden)= 0.22816E-02
  rms(prec ) = 0.33634E-02
  weight for this iteration     100.00

 eigenvalues of (default mixing * dielectric matrix)
  average eigenvalue GAMMA=   1.4757
  4.6503  2.5455  2.2235  1.4971  1.4971  1.0202  0.7998  0.7998  0.4237  0.3838
  0.3915

 Free energy of the ion-electron system (eV)
  ---------------------------------------------------
  alpha Z        PSCENC =       253.19956428
  Ewald energy   TEWEN  =     66360.11039229
  -Hartree energ DENC   =    -78249.87799685
  -exchange      EXHF   =         0.00000000
  -V(xc)+E(xc)   XCENC  =     -2084.19274263
  PAW double counting   =      8402.51588485    -5760.09721698
  entropy T*S    EENTRO =        -0.00000000
  eigenvalues    EBANDS =     -1197.81435863
  atomic energy  EATOM  =     11953.08265402
  Solvation  Ediel_sol  =         0.00000000
  ---------------------------------------------------
  free energy    TOTEN  =      -323.07381965 eV

  energy without entropy =     -323.07381965  energy(sigma->0) =     -323.07381965


--------------------------------------------------------------------------------------------------------




--------------------------------------- Iteration      1(  17)  ---------------------------------------


    POTLOK:  cpu time    0.2417: real time    0.2420
    SETDIJ:  cpu time    0.0106: real time    0.0106
    EDDIAG:  cpu time    2.4359: real time    2.4385
  RMM-DIIS:  cpu time   41.5324: real time   41.6563
    ORTHCH:  cpu time    0.2086: real time    0.2113
       DOS:  cpu time    0.0004: real time    0.0004
    CHARGE:  cpu time    1.1308: real time    1.1319
    MIXING:  cpu time    0.0082: real time    0.0083
    --------------------------------------------
      LOOP:  cpu time   45.5687: real time   45.6992

 eigenvalue-minimisations  :  2166
 total energy-change (2. order) :-0.1759060E-02  (-0.6167971E-04)
 number of electron     324.0000015 magnetization 
 augmentation part      -21.1974185 magnetization 

 Broyden mixing:
  rms(total) = 0.20554E-02    rms(broyden)= 0.20554E-02
  rms(prec ) = 0.24195E-02
  weight for this iteration     100.00

 eigenvalues of (default mixing * dielectric matrix)
  average eigenvalue GAMMA=   1.4545
  5.0321  2.6403  2.2093  1.6515  1.6515  0.9943  0.7974  0.7974  0.4895  0.4188
  0.3805  0.3916

 Free energy of the ion-electron system (eV)
  ---------------------------------------------------
  alpha Z        PSCENC =       253.19956428
  Ewald energy   TEWEN  =     66360.11039229
  -Hartree energ DENC   =    -78254.08785198
  -exchange      EXHF   =         0.00000000
  -V(xc)+E(xc)   XCENC  =     -2084.17614880
  PAW double counting   =      8400.83501190    -5758.40731377
  entropy T*S    EENTRO =        -0.00000000
  eigenvalues    EBANDS =     -1193.63188666
  atomic energy  EATOM  =     11953.08265402
  Solvation  Ediel_sol  =         0.00000000
  ---------------------------------------------------
  free energy    TOTEN  =      -323.07557871 eV

  energy without entropy =     -323.07557871  energy(sigma->0) =     -323.07557871


--------------------------------------------------------------------------------------------------------




--------------------------------------- Iteration      1(  18)  ---------------------------------------


    POTLOK:  cpu time    0.2525: real time    0.2528
    SETDIJ:  cpu time    0.0107: real time    0.0107
    EDDIAG:  cpu time    2.4377: real time    2.4442
  RMM-DIIS:  cpu time   48.5568: real time   48.6974
    ORTHCH:  cpu time    0.2081: real time    0.2083
       DOS:  cpu time    0.0005: real time    0.0005
    CHARGE:  cpu time    1.1309: real time    1.1320
    MIXING:  cpu time    0.0104: real time    0.0104
    --------------------------------------------
      LOOP:  cpu time   52.6076: real time   52.7563

 eigenvalue-minimisations  :  2549
 total energy-change (2. order) :-0.3992837E-03  (-0.1523463E-04)
 number of electron     324.0000015 magnetization 
 augmentation part      -21.1965813 magnetization 

 Broyden mixing:
  rms(total) = 0.15968E-02    rms(broyden)= 0.15968E-02
  rms(prec ) = 0.18575E-02
  weight for this iteration     100.00

 eigenvalues of (default mixing * dielectric matrix)
  average eigenvalue GAMMA=   1.5014
  5.2783  2.8198  2.1662  2.1662  1.9379  0.9717  0.9717  0.8035  0.8035  0.4237
  0.4138  0.3806  0.3806

 Free energy of the ion-electron system (eV)
  ---------------------------------------------------
  alpha Z        PSCENC =       253.19956428
  Ewald energy   TEWEN  =     66360.11039229
  -Hartree energ DENC   =    -78254.69702514
  -exchange      EXHF   =         0.00000000
  -V(xc)+E(xc)   XCENC  =     -2084.17532425
  PAW double counting   =      8400.85988536    -5758.42889088
  entropy T*S    EENTRO =        -0.00000000
  eigenvalues    EBANDS =     -1193.02723369
  atomic energy  EATOM  =     11953.08265402
  Solvation  Ediel_sol  =         0.00000000
  ---------------------------------------------------
  free energy    TOTEN  =      -323.07597799 eV

  energy without entropy =     -323.07597799  energy(sigma->0) =     -323.07597799


--------------------------------------------------------------------------------------------------------




--------------------------------------- Iteration      1(  19)  ---------------------------------------


    POTLOK:  cpu time    0.2382: real time    0.2396
    SETDIJ:  cpu time    0.0129: real time    0.0129
    EDDIAG:  cpu time    2.4381: real time    2.4516
  RMM-DIIS:  cpu time   38.3842: real time   38.4825
    ORTHCH:  cpu time    0.2029: real time    0.2032
       DOS:  cpu time    0.0004: real time    0.0004
    CHARGE:  cpu time    1.1236: real time    1.1288
    MIXING:  cpu time    0.0088: real time    0.0088
    --------------------------------------------
      LOOP:  cpu time   42.4092: real time   42.5277

 eigenvalue-minimisations  :  2020
 total energy-change (2. order) :-0.7243606E-03  (-0.8123550E-05)
 number of electron     324.0000015 magnetization 
 augmentation part      -21.2000191 magnetization 

 Broyden mixing:
  rms(total) = 0.50966E-03    rms(broyden)= 0.50966E-03
  rms(prec ) = 0.67180E-03
  weight for this iteration     100.00

 eigenvalues of (default mixing * dielectric matrix)
  average eigenvalue GAMMA=   1.6180
  6.8381  3.1877  2.4287  1.9445  1.9445  1.1245  1.1245  0.8021  0.8021  0.8662
  0.4232  0.4068  0.3814  0.3773

 Free energy of the ion-electron system (eV)
  ---------------------------------------------------
  alpha Z        PSCENC =       253.19956428
  Ewald energy   TEWEN  =     66360.11039229
  -Hartree energ DENC   =    -78255.37799483
  -exchange      EXHF   =         0.00000000
  -V(xc)+E(xc)   XCENC  =     -2084.17632390
  PAW double counting   =      8401.56022298    -5759.12592217
  entropy T*S    EENTRO =        -0.00000000
  eigenvalues    EBANDS =     -1192.34929504
  atomic energy  EATOM  =     11953.08265402
  Solvation  Ediel_sol  =         0.00000000
  ---------------------------------------------------
  free energy    TOTEN  =      -323.07670235 eV

  energy without entropy =     -323.07670235  energy(sigma->0) =     -323.07670235


--------------------------------------------------------------------------------------------------------




--------------------------------------- Iteration      1(  20)  ---------------------------------------


    POTLOK:  cpu time    0.2465: real time    0.2469
    SETDIJ:  cpu time    0.0125: real time    0.0125
    EDDIAG:  cpu time    2.4344: real time    2.4414
  RMM-DIIS:  cpu time   40.2612: real time   40.3753
    ORTHCH:  cpu time    0.2069: real time    0.2071
       DOS:  cpu time    0.0004: real time    0.0004
    CHARGE:  cpu time    1.1291: real time    1.1344
    MIXING:  cpu time    0.0092: real time    0.0092
    --------------------------------------------
      LOOP:  cpu time   44.3001: real time   44.4272

 eigenvalue-minimisations  :  2068
 total energy-change (2. order) :-0.2607938E-03  (-0.3281564E-05)
 number of electron     324.0000015 magnetization 
 augmentation part      -21.1998410 magnetization 

 Broyden mixing:
  rms(total) = 0.40133E-03    rms(broyden)= 0.40133E-03
  rms(prec ) = 0.46837E-03
  weight for this iteration     100.00

 eigenvalues of (default mixing * dielectric matrix)
  average eigenvalue GAMMA=   1.6044
  7.0232  3.2595  2.4575  1.9697  1.9697  1.2703  1.2703  0.8025  0.8025  0.8256
  0.8256  0.4233  0.4071  0.3820  0.3771

 Free energy of the ion-electron system (eV)
  ---------------------------------------------------
  alpha Z        PSCENC =       253.19956428
  Ewald energy   TEWEN  =     66360.11039229
  -Hartree energ DENC   =    -78255.92673427
  -exchange      EXHF   =         0.00000000
  -V(xc)+E(xc)   XCENC  =     -2084.17446207
  PAW double counting   =      8401.59542314    -5759.16366878
  entropy T*S    EENTRO =        -0.00000000
  eigenvalues    EBANDS =     -1191.80013177
  atomic energy  EATOM  =     11953.08265402
  Solvation  Ediel_sol  =         0.00000000
  ---------------------------------------------------
  free energy    TOTEN  =      -323.07696314 eV

  energy without entropy =     -323.07696314  energy(sigma->0) =     -323.07696314


--------------------------------------------------------------------------------------------------------




--------------------------------------- Iteration      1(  21)  ---------------------------------------


    POTLOK:  cpu time    0.2479: real time    0.2483
    SETDIJ:  cpu time    0.0110: real time    0.0110
    EDDIAG:  cpu time    2.4405: real time    2.4474
  RMM-DIIS:  cpu time   36.6444: real time   36.7431
    ORTHCH:  cpu time    0.2028: real time    0.2030
       DOS:  cpu time    0.0004: real time    0.0004
    CHARGE:  cpu time    1.1273: real time    1.1286
    MIXING:  cpu time    0.0094: real time    0.0094
    --------------------------------------------
      LOOP:  cpu time   40.6838: real time   40.7912

 eigenvalue-minimisations  :  1802
 total energy-change (2. order) :-0.8724269E-04  (-0.9340157E-06)
 number of electron     324.0000015 magnetization 
 augmentation part      -21.1999770 magnetization 

 Broyden mixing:
  rms(total) = 0.31985E-03    rms(broyden)= 0.31985E-03
  rms(prec ) = 0.37479E-03
  weight for this iteration     100.00

 eigenvalues of (default mixing * dielectric matrix)
  average eigenvalue GAMMA=   1.6390
  7.2821  3.5195  2.5648  2.2148  2.2148  1.7807  1.0553  0.9708  0.9708  0.8049
  0.8049  0.3817  0.3776  0.4078  0.4233  0.4504

 Free energy of the ion-electron system (eV)
  ---------------------------------------------------
  alpha Z        PSCENC =       253.19956428
  Ewald energy   TEWEN  =     66360.11039229
  -Hartree energ DENC   =    -78256.05080852
  -exchange      EXHF   =         0.00000000
  -V(xc)+E(xc)   XCENC  =     -2084.17471521
  PAW double counting   =      8401.63675449    -5759.20523695
  entropy T*S    EENTRO =        -0.00000000
  eigenvalues    EBANDS =     -1191.67565480
  atomic energy  EATOM  =     11953.08265402
  Solvation  Ediel_sol  =         0.00000000
  ---------------------------------------------------
  free energy    TOTEN  =      -323.07705039 eV

  energy without entropy =     -323.07705039  energy(sigma->0) =     -323.07705039


--------------------------------------------------------------------------------------------------------




[...]
  0.000   0.000   0.000   0.000  -0.000   0.011  -0.000   0.000
  0.000  -0.000   0.000   0.000  -0.000  -0.000   0.011   0.000
 -0.000  -0.000  -0.000  -0.000   0.000   0.000   0.000   0.011
  0.001   0.000   0.001   0.000  -0.001  -0.000  -0.000  -0.000
 -0.000  -0.000   0.014  -0.000   0.000   0.000  -0.000  -0.000
 -0.009  -0.000   0.000   0.018  -0.000   0.000   0.000   0.000
  0.000   0.000   0.000   0.001   0.014  -0.000  -0.000   0.000
  0.000   0.000  -0.000  -0.000   0.001  -0.000   0.000  -0.000
 total augmentation occupancy for first ion, spin component:           1
  1.935   0.203  -0.002  -0.199  -0.002  -0.001  -0.040  -0.003  -0.001  -0.000   0.008   0.001  -0.001
  0.203   1.389   0.003   0.922   0.017   0.000  -0.372  -0.024   0.005   0.001  -0.025   0.002   0.003
 -0.002   0.003   1.342  -0.003  -0.001  -0.474  -0.003  -0.000   0.004   0.116   0.000   0.001   0.040
 -0.199   0.922  -0.003   1.492   0.004  -0.002  -0.552  -0.008   0.000   0.001   0.042   0.004  -0.003
 -0.002   0.017  -0.001   0.004   1.338  -0.000  -0.008  -0.465   0.042   0.001   0.000   0.113   0.002
 -0.001   0.000  -0.474  -0.002  -0.000   0.313   0.001   0.005  -0.002  -0.037  -0.000   0.000  -0.008
 -0.040  -0.372  -0.003  -0.552  -0.008   0.001   0.290   0.003  -0.000  -0.000  -0.044  -0.002   0.000
 -0.003  -0.024  -0.000  -0.008  -0.465   0.005   0.003   0.318  -0.007   0.000   0.002  -0.036  -0.002
 -0.001   0.005   0.004   0.000   0.042  -0.002  -0.000  -0.007   0.020   0.000  -0.001  -0.000  -0.000
 -0.000   0.001   0.116   0.001   0.001  -0.037  -0.000   0.000   0.000   0.018  -0.000   0.000  -0.000
  0.008  -0.025   0.000   0.042   0.000  -0.000  -0.044   0.002  -0.001  -0.000   0.020   0.000  -0.000
  0.001   0.002   0.001   0.004   0.113   0.000  -0.002  -0.036  -0.000   0.000   0.000   0.018   0.000
 -0.001   0.003   0.040  -0.003   0.002  -0.008   0.000  -0.002  -0.000  -0.000  -0.000   0.000   0.021


------------------------ aborting loop because EDIFF is reached ----------------------------------------


    CHARGE:  cpu time    1.1326: real time    1.1341
    FORLOC:  cpu time    0.0732: real time    0.0733
    FORNL :  cpu time   13.0206: real time   13.0512
    STRESS:  cpu time   69.3956: real time   69.5886
    FORCOR:  cpu time    0.2759: real time    0.2761
    FORHAR:  cpu time    0.1213: real time    0.1214
    MIXING:  cpu time    0.0073: real time    0.0074
    OFIELD:  cpu time    0.0000: real time    0.0000

  Number of pair interactions contributing to vdW energy:  278617
  Edisp (eV):  -19.80099
    FORVDW:  cpu time    0.0303: real time    0.0303

  FORCE on cell =-STRESS in cart. coord.  units (eV):
  Direction    XX          YY          ZZ          XY          YZ          ZX
  --------------------------------------------------------------------------------------
  Alpha Z   253.19956   253.19956   253.19956
  Ewald   75717.84324 75693.86274-84966.44594    46.45770   -13.34135   -15.11877
  Hartree 77997.34530 77992.69404-77650.60813    12.32262     0.26268    -1.79569
  E(xc)   -1360.67738 -1359.81102 -1379.44182    -0.63454     0.95157     0.56670
  Local  ************************157547.86195   -56.66093    13.45020    16.36826
  n-local  3564.95734  3565.64859  3755.43853    -0.16668    -7.15207    -3.92482
  augment  -759.53243  -760.46783  -802.12313     0.87013     1.36190     0.62585
  Kinetic  3322.78598  3310.32040  3253.20963    10.41336    -1.78721    -2.78977
  Fock        0.00000     0.00000     0.00000     0.00000     0.00000     0.00000
  vdW       -12.71661   -12.36272   -10.75500     0.27327     0.96499     0.06903
  -------------------------------------------------------------------------------------
  Total      32.51710    20.34981     0.33567    12.87494    -5.28930    -5.99921
  in kB      18.38073    11.50301     0.18974     7.27774    -2.98985    -3.39114
  external pressure =       10.02 kB  Pullay stress =        0.00 kB

  kinetic pressure (ideal gas correction) =      0.20 kB
  total pressure  =     10.23 kB
  Total+kin.    18.611      11.709       0.364       7.307      -2.960      -3.403

 VOLUME and BASIS-vectors are now :
 -----------------------------------------------------------------------------
  energy-cutoff  :      550.00
  volume of cell :     2834.39
      direct lattice vectors                 reciprocal lattice vectors
    10.299123095  0.000000000  0.000000000     0.097095645  0.057526082 -0.001522705
    -5.362952465  9.051882446  0.000000000     0.000000000  0.110474258 -0.001344278
     0.257613746  0.369954646 30.403275275     0.000000000  0.000000000  0.032891193

  length of vectors
    10.299123095 10.521303862 30.406617351     0.112867768  0.110482437  0.032891193


 FORCES acting on ions
    electron-ion (+dipol)            ewald-force                    non-local-force                 convergence-correction
 -----------------------------------------------------------------------------------------------
   0.279E+01 -.969E+00 0.875E+03   -.280E+01 0.102E+01 -.880E+03   -.180E+00 0.539E-01 0.535E+01   0.106E-02 0.215E-03 0.287E-03
   -.313E+01 0.445E+00 0.873E+03   0.324E+01 -.484E+00 -.878E+03   0.158E+00 0.879E-01 0.516E+01   0.741E-04 0.722E-03 0.183E-03
   0.449E+00 0.334E+00 0.875E+03   -.439E+00 -.364E+00 -.880E+03   -.102E+00 0.662E-01 0.488E+01   0.563E-04 -.201E-03 0.123E-03
   -.705E+00 -.569E+00 0.872E+03   0.691E+00 0.508E+00 -.877E+03   0.132E+00 0.408E+00 0.526E+01   -.155E-02 -.164E-03 -.487E-03
   0.455E+01 0.877E+00 0.873E+03   -.461E+01 -.916E+00 -.878E+03   -.284E+00 0.674E-01 0.505E+01   -.108E-02 -.121E-02 -.249E-03
   0.398E+00 0.406E+00 0.872E+03   -.368E+00 -.483E+00 -.877E+03   -.156E-01 0.133E+00 0.543E+01   -.238E-03 -.369E-03 -.187E-03
   -.689E+00 0.298E+01 0.874E+03   0.734E+00 -.302E+01 -.879E+03   0.279E+00 0.713E-02 0.509E+01   0.495E-03 -.508E-03 -.126E-02
   0.165E+01 -.828E+00 0.875E+03   -.162E+01 0.793E+00 -.880E+03   -.214E-01 0.471E+00 0.470E+01   0.997E-03 0.624E-03 -.136E-02
   0.978E+00 -.161E+01 0.875E+03   -.939E+00 0.164E+01 -.880E+03   0.156E+00 0.182E+00 0.464E+01   0.174E-03 0.935E-03 -.103E-02
   0.249E+01 0.667E+00 -.118E+03   -.255E+01 -.624E+00 0.113E+03   -.889E-01 -.459E-02 0.538E+01   -.348E-03 -.869E-03 0.831E-03
   0.729E+00 -.175E+01 -.115E+03   -.757E+00 0.176E+01 0.110E+03   -.361E-01 0.243E+00 0.501E+01   0.338E-03 0.856E-04 0.408E-03
   -.134E+01 0.193E+01 -.117E+03   0.136E+01 -.185E+01 0.112E+03   0.129E+00 -.340E+00 0.513E+01   -.562E-03 0.496E-03 0.914E-03
   -.588E+00 0.122E+01 -.114E+03   0.620E+00 -.115E+01 0.109E+03   0.849E-01 0.253E-01 0.501E+01   0.222E-03 -.352E-03 0.386E-03
   0.121E+01 0.379E-01 -.117E+03   -.119E+01 -.231E-01 0.112E+03   -.106E-01 0.107E-01 0.514E+01   -.290E-03 0.479E-03 0.454E-03
   0.359E+00 -.469E+00 -.117E+03   -.392E+00 0.522E+00 0.112E+03   0.885E-01 0.154E+00 0.531E+01   -.991E-04 -.193E-03 0.797E-03
   0.448E+00 0.106E+01 -.118E+03   -.398E+00 -.111E+01 0.113E+03   -.118E+00 0.305E+00 0.507E+01   0.113E-03 -.319E-04 0.610E-03
   0.112E+01 0.306E+00 -.113E+03   -.107E+01 -.300E+00 0.108E+03   -.245E+00 0.438E-01 0.521E+01   0.220E-04 0.457E-04 0.342E-03
   0.343E+01 -.227E+01 -.116E+03   -.343E+01 0.235E+01 0.111E+03   -.160E+00 0.279E+00 0.542E+01   0.608E-03 0.433E-03 0.104E-02
   0.215E+00 0.129E+01 0.116E+03   -.154E+00 -.122E+01 -.111E+03   -.216E+00 -.270E+00 -.510E+01   0.107E-02 0.212E-03 -.137E-02
   -.210E+01 0.200E+01 0.116E+03   0.228E+01 -.198E+01 -.111E+03   -.239E+00 -.434E+00 -.483E+01   0.474E-04 0.738E-03 -.108E-02
   -.114E+01 -.389E+01 0.114E+03   0.122E+01 0.400E+01 -.109E+03   -.117E+00 0.733E-01 -.511E+01   0.486E-04 -.281E-03 -.116E-02
   -.208E+01 0.323E+01 0.117E+03   0.213E+01 -.328E+01 -.112E+03   0.985E-01 -.161E+00 -.558E+01   -.154E-02 -.159E-03 -.742E-03
   0.134E+01 0.205E+01 0.115E+03   -.133E+01 -.205E+01 -.110E+03   -.252E+00 -.274E+00 -.528E+01   -.111E-02 -.113E-02 -.721E-03
   0.271E+01 -.309E+01 0.120E+03   -.270E+01 0.319E+01 -.114E+03   -.305E+00 -.836E-01 -.529E+01   -.209E-03 -.423E-03 -.813E-03
   0.477E+01 0.509E+01 0.117E+03   -.472E+01 -.507E+01 -.112E+03   -.400E+00 -.464E+00 -.496E+01   0.521E-03 -.489E-03 0.216E-03
   0.562E+01 0.239E+01 0.115E+03   -.559E+01 -.239E+01 -.110E+03   -.498E+00 -.121E+00 -.496E+01   0.108E-02 0.674E-03 0.251E-03
   0.669E+00 0.109E+01 0.113E+03   -.616E+00 -.102E+01 -.108E+03   0.101E+00 -.345E+00 -.518E+01   0.128E-03 0.843E-03 -.102E-03
   0.132E+01 0.316E+01 -.871E+03   -.122E+01 -.316E+01 0.876E+03   -.270E+00 -.276E+00 -.513E+01   -.314E-03 -.864E-03 0.204E-03
   0.710E+00 -.528E+00 -.875E+03   -.657E+00 0.569E+00 0.880E+03   -.239E+00 -.159E+00 -.496E+01   0.285E-03 0.125E-03 0.676E-03
   0.225E+01 0.171E+00 -.872E+03   -.218E+01 -.384E-01 0.877E+03   -.407E+00 -.347E+00 -.520E+01   -.510E-03 0.413E-03 0.117E-03
   0.240E+01 0.415E+01 -.875E+03   -.235E+01 -.404E+01 0.880E+03   -.344E+00 -.532E+00 -.491E+01   0.274E-03 -.269E-03 0.799E-03
   0.184E+01 -.715E+00 -.872E+03   -.178E+01 0.771E+00 0.878E+03   -.104E+00 -.156E+00 -.483E+01   -.214E-03 0.519E-03 0.804E-03
   0.691E+00 0.241E+01 -.871E+03   -.637E+00 -.236E+01 0.876E+03   -.150E+00 -.295E+00 -.511E+01   -.474E-04 -.206E-03 0.417E-03
   0.305E+00 0.314E+00 -.875E+03   -.172E+00 -.298E+00 0.880E+03   -.339E+00 0.157E+00 -.502E+01   0.291E-04 -.775E-04 0.654E-03
   0.601E+00 -.661E+00 -.876E+03   -.527E+00 0.726E+00 0.881E+03   -.246E+00 -.193E+00 -.502E+01   -.880E-04 0.549E-04 0.980E-03
   0.148E+01 -.102E+00 -.875E+03   -.133E+01 0.162E+00 0.880E+03   -.332E+00 -.935E-01 -.525E+01   0.516E-03 0.284E-03 0.987E-04
   -.173E+01 -.426E+01 0.495E+03   0.179E+01 0.436E+01 -.495E+03   -.248E-01 0.600E-01 0.136E+00   0.910E-03 0.672E-03 -.957E-03
   -.568E+01 0.490E+00 0.497E+03   0.593E+01 -.421E+00 -.497E+03   0.953E-01 -.297E-01 -.259E+00   0.121E-02 0.401E-03 -.100E-02
   -.355E+01 -.279E+01 0.495E+03   0.363E+01 0.288E+01 -.495E+03   0.180E+00 0.298E-01 -.182E+00   0.987E-03 0.739E-03 -.992E-03
   -.619E+01 -.308E+01 0.495E+03   0.624E+01 0.309E+01 -.495E+03   0.483E+00 -.877E-01 0.343E+00   -.780E-03 -.456E-03 -.953E-03
   -.233E+01 -.113E+01 0.493E+03   0.236E+01 0.119E+01 -.494E+03   0.274E+00 0.931E-01 -.626E-01   -.875E-03 -.530E-03 -.974E-03
   -.327E+01 -.152E+01 0.494E+03   0.346E+01 0.151E+01 -.494E+03   0.124E+00 0.152E+00 -.357E+00   -.697E-03 -.400E-03 -.100E-02
   0.361E+01 -.304E+01 0.496E+03   -.363E+01 0.318E+01 -.496E+03   -.413E+00 0.170E+00 0.539E-01   -.134E-03 -.273E-03 -.946E-03
   0.393E+01 0.653E+01 0.494E+03   -.403E+01 -.669E+01 -.494E+03   -.448E+00 -.550E+00 0.219E+00   -.372E-03 -.175E-03 -.959E-03
   -.244E+00 0.181E+00 0.497E+03   0.370E+00 -.140E+00 -.496E+03   0.148E+00 -.187E+00 0.537E+00   -.286E-03 0.206E-05 -.930E-03
   -.285E+01 0.202E+01 -.499E+03   0.291E+01 -.206E+01 0.499E+03   0.202E+00 -.185E+00 -.249E+00   0.152E-03 -.523E-03 0.941E-03
   -.241E+01 -.424E+01 -.493E+03   0.250E+01 0.433E+01 0.493E+03   0.158E+00 0.418E+00 0.694E-02   -.455E-04 0.517E-03 0.108E-02
   -.925E-01 -.239E+01 -.494E+03   0.764E-01 0.244E+01 0.494E+03   0.147E+00 0.263E+00 0.176E+00   -.586E-04 -.253E-05 0.108E-02
   0.111E+01 0.588E+00 -.496E+03   -.101E+01 -.534E+00 0.496E+03   -.195E+00 0.614E-01 -.179E+00   -.351E-03 -.371E-03 0.106E-02
   -.150E+01 -.416E+01 -.493E+03   0.151E+01 0.424E+01 0.493E+03   -.103E-01 0.203E+00 0.300E-01   -.582E-04 0.251E-03 0.110E-02
   -.200E+01 -.106E+00 -.493E+03   0.209E+01 0.236E+00 0.493E+03   0.128E+00 0.214E+00 0.834E-01   -.247E-03 -.240E-03 0.110E-02
   -.377E+01 -.285E+00 -.494E+03   0.393E+01 0.408E+00 0.493E+03   0.428E+00 -.116E+00 -.318E-01   0.237E-03 -.252E-03 0.104E-02
   -.192E+01 -.382E+01 -.498E+03   0.214E+01 0.388E+01 0.498E+03   -.411E-02 0.907E-01 -.267E+00   0.414E-04 0.641E-03 0.109E-02
   -.379E+01 0.259E+01 -.496E+03   0.399E+01 -.267E+01 0.496E+03   0.161E+00 -.568E+00 -.229E+00   0.369E-03 -.132E-03 0.102E-02
 -----------------------------------------------------------------------------------------------
   0.306E+01 0.175E+01 -.298E+00   0.160E-13 0.187E-13 0.216E-11   -.306E+01 -.175E+01 0.297E+00   -.310E-04 -.333E-04 0.183E-02
 
 
 POSITION                                       TOTAL-FORCE (eV/Angst)
 -----------------------------------------------------------------------------------
      0.05691      2.12628      9.72726        -0.182437      0.093021      0.285308
     -1.77392      5.15962      9.76343         0.241698      0.047897      0.008244
     -3.54172      8.15697      9.75580        -0.097600      0.029319     -0.192296
      3.46447      2.11552      9.74782         0.107320      0.336445      0.140378
      1.70860      5.14401      9.75981        -0.332991      0.023701     -0.057296
     -0.10320      8.16135      9.74834         0.011494      0.048793      0.233244
      6.88799      2.14387      9.75463         0.309290     -0.026117     -0.062779
      5.11792      5.12710      9.77080         0.013618      0.420895     -0.415868
      3.31808      8.15971      9.77201         0.184832      0.198866     -0.454097
      2.14510      0.72910     16.97775        -0.148924      0.058979      0.164619
      0.36324      3.71331     16.97608        -0.068690      0.256737     -0.110046
     -1.45979      6.77275     16.97827         0.130516     -0.236444     -0.081286
      5.55898      0.71464     16.97972         0.102588      0.109308     -0.178207
      3.80303      3.73592     16.98520         0.007022      0.045454     -0.049786
      1.99488      6.74658     16.97481         0.047077      0.221702      0.089086
      9.00367      0.72230     16.99251        -0.075156      0.276747     -0.073793
      7.23500      3.73867     16.95695        -0.201017      0.072040      0.113042
      5.42458      6.72086     16.95304        -0.165672      0.353582      0.313347
      0.06087      2.16019     13.42388        -0.153330     -0.222326      0.050187
     -1.73548      5.20996     13.40635        -0.067317     -0.422588      0.397989
     -3.52961      8.16975     13.43532        -0.039804      0.152659      0.018797
      3.48030      2.17445     13.44242         0.132548     -0.220980     -0.347518
      1.73054      5.19155     13.43929        -0.220052     -0.286600     -0.097080
     -0.07010      8.20003     13.41022        -0.283930     -0.010806     -0.005302
      6.95525      2.19566     13.40914        -0.330156     -0.444005      0.252197
      5.15793      5.18439     13.41921        -0.452527     -0.144633      0.203108
      3.33081      8.21018     13.43666         0.146762     -0.288622     -0.028140
      2.16617      0.74822     20.63543        -0.169461     -0.265335      0.054678
      0.38405      3.77404     20.65182        -0.180906     -0.110907      0.124651
     -1.40326      6.77972     20.64426        -0.329008     -0.214488     -0.091998
      5.60787      0.76690     20.64997        -0.284468     -0.409453      0.157106
      3.79838      3.75914     20.62632        -0.053696     -0.104338      0.321890
      2.01006      6.79481     20.63715        -0.101151     -0.241979      0.024979
      9.01993      0.74114     20.65834        -0.211110      0.169326      0.072433
      7.24913      3.76497     20.66635        -0.169180     -0.129518     -0.013120
      5.45077      6.77683     20.67058        -0.175052     -0.034033     -0.170344
      5.03728      9.17883     11.58432         0.040307      0.185822      0.148346
     -1.68190      3.16533     11.59629         0.344892      0.036133     -0.472522
      6.80806      6.18097     11.60230         0.300802      0.131969     -0.370259
      3.50060      0.14246     11.57021         0.604211     -0.060771      0.526987
      1.73663      3.15387     11.59641         0.343437      0.168235     -0.104654
     -0.03981      6.16484     11.61226         0.305927      0.183104     -0.574159
      1.63382      9.19270     11.58577        -0.487487      0.314711      0.026588
      5.20916      3.19082     11.58214        -0.591444     -0.756447      0.375113
      3.39025      6.18582     11.56579         0.266374     -0.165696      0.723608
      0.40080      1.76335     18.83580         0.290701     -0.245348     -0.266156
     -1.37496      4.72773     18.80884         0.257530      0.550344     -0.014798
     -3.18199      7.75403     18.79805         0.159383      0.347815      0.273665
      3.86667      1.73574     18.82190        -0.157935      0.104115     -0.223326
      2.06455      4.74673     18.80399         0.016666      0.308703      0.023089
      0.25868      7.76889     18.80424         0.219567      0.331850      0.081118
      7.24961      1.75694     18.81556         0.614071     -0.018218     -0.113992
      5.50247      4.75565     18.83206         0.183777      0.165705     -0.307791
      3.69758      7.81453     18.82835         0.345838     -0.685194     -0.326578
 -----------------------------------------------------------------------------------
    total drift:                               -0.002253     -0.000870      0.000604


--------------------------------------------------------------------------------------------------------



  FREE ENERGIE OF THE ION-ELECTRON SYSTEM (eV)
  ---------------------------------------------------
  free  energy   TOTEN  =      -342.68927195 eV

  energy  without entropy=     -342.68927195  energy(sigma->0) =     -342.68927195
 
 d Force =-0.3133875E-01[-0.333E-01,-0.293E-01]  d Energy =-0.3131451E-01-0.242E-04
 d Force =-0.9711701E+01[-0.972E+01,-0.970E+01]  d Ewald  =-0.9711701E+01 0.917E-07


--------------------------------------------------------------------------------------------------------


    POTLOK:  cpu time    0.2649: real time    0.2652


--------------------------------------------------------------------------------------------------------


           RANDOM_SEED =         262432650              324                0
   IONSTEP:  cpu time    0.0001: real time    0.0001

  ENERGY OF THE ELECTRON-ION-THERMOSTAT SYSTEM (eV)
  ---------------------------------------------------
% ion-electron   TOTEN  =      -342.689272  see above
  kinetic energy EKIN   =         0.529570
  kin. lattice  EKIN_LAT=         0.000000  (temperature   77.30 K)
  nose potential ES     =        -0.034332
  nose kinetic   EPS    =         0.005710
  ---------------------------------------------------
  total energy   ETOTAL =      -342.188325 eV

  maximum distance moved by ions :      0.68E-03


 mean value of Nose-termostat <S>:     0.964 mean value of <T> :    77.300
 mean temperature <T/S>/<1/S>  :    77.300

    WAVPRE:  cpu time    0.0925: real time    0.0961
    FEWALD:  cpu time    0.0010: real time    0.0010
    ORTHCH:  cpu time    7.7609: real time    7.7817
    POTLOK:  cpu time    0.2570: real time    0.2572
    EDDIAG:  cpu time    2.4312: real time    2.4380
     LOOP+:  cpu time  453.6360: real time  454.8703
    4ORBIT:  cpu time    0.0000: real time    0.0000

 total amount of memory used by VASP MPI-rank0   351136. kBytes
=======================================================================

   base      :      30000. kBytes
   nonl-proj :     191416. kBytes
   fftplans  :      16533. kBytes
   grid      :      78796. kBytes
   one-center:        839. kBytes
   wavefun   :      33552. kBytes
 
  
  
 General timing and accounting informations for this job:
 ========================================================
  
                  Total CPU time used (sec):     5491.272
                            User time (sec):     5479.160
                          System time (sec):       12.112
                         Elapsed time (sec):     5507.146
  
                   Maximum memory used (kb):      779140.
                   Average memory used (kb):           0.
  
                          Minor page faults:       383552
                          Major page faults:            0
                 Voluntary context switches:          618
