-3.386764310199999954e+02
-3.386728024799999730e+02
-3.386624784900000122e+02
-3.386457351999999901e+02
-3.386230334100000050e+02
-3.385949916000000144e+02
-3.385623620000000074e+02
-3.385259872199999904e+02
-3.384867778099999782e+02
-3.384456669599999827e+02
-3.379711955600000124e+02
-3.379685683800000220e+02
-3.379628450700000144e+02
-3.379541851700000166e+02
-3.379428490600000146e+02
-3.379291911199999845e+02
-3.379136346799999728e+02
-3.378966601399999945e+02
-3.378787776799999847e+02
-3.378605100099999845e+02
-3.380397265299999958e+02
-3.380391477800000075e+02
-3.380353843400000073e+02
-3.380285342799999739e+02
-3.380187810099999979e+02
-3.380063762899999915e+02
-3.379916367499999978e+02
-3.379749226600000043e+02
-3.379566273699999783e+02
-3.379371524800000088e+02
-3.382464497999999935e+02
-3.382466451399999983e+02
-3.382428467299999966e+02
-3.382351912999999968e+02
-3.382239526299999852e+02
-3.382095353500000101e+02
-3.381924494599999775e+02
-3.381732958700000040e+02
-3.381527332200000160e+02
-3.381314574200000038e+02
-3.378769022500000005e+02
-3.378811975099999927e+02
-3.378820141400000239e+02
-3.378794928899999945e+02
-3.378738842000000204e+02
-3.378655312600000116e+02
-3.378548616100000004e+02
-3.378423679200000151e+02
-3.378285818300000187e+02
-3.378140638300000091e+02
-3.382198230899999771e+02
-3.382257874200000174e+02
-3.382270315000000096e+02
-3.382236362099999951e+02
-3.382158567999999832e+02
-3.382041056499999740e+02
-3.381889255799999887e+02
-3.381709583699999939e+02
-3.381509158599999978e+02
-3.381295365299999958e+02
-3.375364792699999725e+02
-3.375365601299999980e+02
-3.375357723399999941e+02
-3.375342117100000223e+02
-3.375320405800000003e+02
-3.375294830400000023e+02
-3.375268000799999868e+02
-3.375242800699999748e+02
-3.375222106200000098e+02
-3.375208699300000035e+02
-3.376943538099999955e+02
-3.376895371400000272e+02
-3.376824686200000087e+02
-3.376734132299999942e+02
-3.376627159600000141e+02
-3.376507845900000007e+02
-3.376380720399999973e+02
-3.376250577199999725e+02
-3.376122250000000236e+02
-3.376000392700000248e+02
-3.380207918899999981e+02
-3.380222880200000191e+02
-3.380204268200000115e+02
-3.380152752899999768e+02
-3.380069818399999804e+02
-3.379957672699999875e+02
-3.379819198899999719e+02
-3.379657766899999842e+02
-3.379477155399999901e+02
-3.379281344300000001e+02
-3.381175883899999803e+02
-3.381165745900000275e+02
-3.381108133700000167e+02
-3.381004764799999975e+02
-3.380858423999999900e+02
-3.380672950700000001e+02
-3.380453011899999751e+02
-3.380203870400000028e+02
-3.379931213899999989e+02
-3.379640970699999798e+02
-3.374216580600000270e+02
-3.374224523600000225e+02
-3.374259618199999977e+02
-3.374323607200000197e+02
-3.374418937400000118e+02
-3.374548460999999975e+02
-3.374715148799999724e+02
-3.374921654500000159e+02
-3.375170074900000259e+02
-3.375461442299999817e+02
-3.379456552899999906e+02
-3.379427548699999875e+02
-3.379388516899999786e+02
-3.379341936299999816e+02
-3.379290880600000264e+02
-3.379238772499999754e+02
-3.379189210900000262e+02
-3.379145849799999723e+02
-3.379112055300000179e+02
-3.379090785000000210e+02
-3.377261332200000084e+02
-3.377293146800000159e+02
-3.377296268399999803e+02
-3.377271635600000081e+02
-3.377221415999999863e+02
-3.377148928700000283e+02
-3.377058345500000200e+02
-3.376954548699999918e+02
-3.376842739499999766e+02
-3.376728229000000283e+02
-3.376248797100000161e+02
-3.376182388899999864e+02
-3.376116936700000224e+02
-3.376053795700000251e+02
-3.375994471600000111e+02
-3.375940493699999934e+02
-3.375893468799999937e+02
-3.375854969200000255e+02
-3.375826499600000261e+02
-3.375809491800000046e+02
-3.381090874399999961e+02
-3.381048055499999805e+02
-3.380959421599999928e+02
-3.380828140799999915e+02
-3.380658534699999791e+02
-3.380455928000000085e+02
-3.380226332699999716e+02
-3.379976237199999787e+02
-3.379712316399999850e+02
-3.379441240099999959e+02
-3.379357391899999925e+02
-3.379354087099999902e+02
-3.379304810699999848e+02
-3.379210689700000216e+02
-3.379074461700000143e+02
-3.378900361299999986e+02
-3.378693901199999914e+02
-3.378461670799999865e+02
-3.378211091399999759e+02
-3.377950050700000020e+02
-3.375625695699999937e+02
-3.375603534200000126e+02
-3.375523762999999917e+02
-3.375388655200000017e+02
-3.375202144500000259e+02
-3.374969695899999920e+02
-3.374697987399999874e+02
-3.374394606600000088e+02
-3.374067781900000114e+02
-3.373726068500000110e+02
-3.381618073099999719e+02
-3.381528009699999870e+02
-3.381397699400000079e+02
-3.381230853700000125e+02
-3.381032518399999844e+02
-3.380808786200000213e+02
-3.380566557600000124e+02
-3.380313255799999865e+02
-3.380056544600000166e+02
-3.379804039399999738e+02
-3.382554629300000215e+02
-3.382562362599999801e+02
-3.382521915500000205e+02
-3.382433912700000178e+02
-3.382300192800000218e+02
-3.382123764699999811e+02
-3.381908584700000233e+02
-3.381659435600000165e+02
-3.381381717400000184e+02
-3.381081170900000075e+02
-3.380970618599999966e+02
-3.380987493299999755e+02
-3.380953206500000192e+02
-3.380869079000000283e+02
-3.380737939300000221e+02
-3.380563989999999990e+02
-3.380352599799999780e+02
-3.380110054099999957e+02
-3.379843327599999725e+02
-3.379559844699999758e+02
-3.377344308699999829e+02
-3.377458785300000272e+02
-3.377556982799999901e+02
-3.377638858199999845e+02
-3.377704985299999976e+02
-3.377756555999999932e+02
-3.377795376999999917e+02
-3.377823775100000034e+02
-3.377844506800000204e+02
-3.377860681500000055e+02
-3.374982461999999828e+02
-3.375008196200000157e+02
-3.374995900100000199e+02
-3.374947156900000209e+02
-3.374865185099999962e+02
-3.374754615499999773e+02
-3.374621341999999800e+02
-3.374472199799999999e+02
-3.374314692300000047e+02
-3.374156645599999820e+02
-3.372624046500000077e+02
-3.372565104199999837e+02
-3.372490759099999877e+02
-3.372402746099999717e+02
-3.372303273399999739e+02
-3.372195129500000235e+02
-3.372081539399999883e+02
-3.371966064200000233e+02
-3.371852493200000254e+02
-3.371744732399999975e+02
-3.372630073400000015e+02
-3.372730086299999925e+02
-3.372846205700000155e+02
-3.372977495399999839e+02
-3.373123017600000253e+02
-3.373281860399999914e+02
-3.373453112199999850e+02
-3.373635891999999785e+02
-3.373829326900000183e+02
-3.374032572699999832e+02
-3.380383924800000273e+02
-3.380337824200000227e+02
-3.380241121899999825e+02
-3.380096850599999811e+02
-3.379909303599999930e+02
-3.379683833500000105e+02
-3.379426556199999823e+02
-3.379144207100000017e+02
-3.378843857699999944e+02
-3.378532571499999904e+02
-3.380676008300000035e+02
-3.380680109699999889e+02
-3.380635196000000064e+02
-3.380543323200000145e+02
-3.380407931099999814e+02
-3.380233664699999849e+02
-3.380026230099999793e+02
-3.379792152499999816e+02
-3.379538491499999964e+02
-3.379272677899999735e+02
-3.379135112199999753e+02
-3.379181886399999826e+02
-3.379209480499999927e+02
-3.379218167600000129e+02
-3.379208875599999828e+02
-3.379183026399999790e+02
-3.379142558300000019e+02
-3.379089883099999838e+02
-3.379027708500000244e+02
-3.378959065799999735e+02
-3.382740870700000073e+02
-3.382762669200000119e+02
-3.382741515399999912e+02
-3.382678356100000201e+02
-3.382575343899999893e+02
-3.382435693200000060e+02
-3.382263602699999865e+02
-3.382064080399999852e+02
-3.381842686400000275e+02
-3.381605422000000090e+02
-3.379081225499999732e+02
-3.379073775300000193e+02
-3.379034002199999804e+02
-3.378963410599999975e+02
-3.378864439299999844e+02
-3.378740342699999815e+02
-3.378595034300000179e+02
-3.378432993399999873e+02
-3.378258986600000071e+02
-3.378078016399999797e+02
-3.378482872600000064e+02
-3.378483792000000108e+02
-3.378430888600000230e+02
-3.378326672499999859e+02
-3.378175025300000129e+02
-3.377981022800000233e+02
-3.377750670199999945e+02
-3.377490677299999788e+02
-3.377208152499999869e+02
-3.376910322699999938e+02
-3.376397716199999763e+02
-3.376370433499999990e+02
-3.376338577000000214e+02
-3.376302744800000255e+02
-3.376263789500000030e+02
-3.376222804899999801e+02
-3.376181014599999912e+02
-3.376139890700000024e+02
-3.376100929199999996e+02
-3.376065700199999924e+02
-3.381384019700000181e+02
-3.381342124299999909e+02
-3.381254063299999757e+02
-3.381121661099999756e+02
-3.380947800800000209e+02
-3.380736347399999886e+02
-3.380491901099999836e+02
-3.380219692200000168e+02
-3.379925276899999744e+02
-3.379614403699999912e+02
-3.369276633100000140e+02
-3.369454728499999874e+02
-3.369648831999999743e+02
-3.369856655799999885e+02
-3.370076246599999763e+02
-3.370305968299999790e+02
-3.370544336400000134e+02
-3.370790097999999944e+02
-3.371042024000000197e+02
-3.371298875800000019e+02
-3.376490837900000201e+02
-3.376495814699999869e+02
-3.376490482400000133e+02
-3.376475506699999869e+02
-3.376452090500000054e+02
-3.376421883500000263e+02
-3.376386923599999932e+02
-3.376349564099999725e+02
-3.376312435799999889e+02
-3.376278355200000192e+02
-3.381261310400000184e+02
-3.381207276600000000e+02
-3.381111727699999960e+02
-3.380977406700000074e+02
-3.380808068399999797e+02
-3.380608395400000177e+02
-3.380383727799999747e+02
-3.380139840900000081e+02
-3.379882740699999886e+02
-3.379618473799999947e+02
-3.379099862599999824e+02
-3.379096969999999942e+02
-3.379074604400000226e+02
-3.379033157999999730e+02
-3.378973645600000282e+02
-3.378897653899999796e+02
-3.378807228699999996e+02
-3.378704805400000168e+02
-3.378593010000000163e+02
-3.378474601899999925e+02
-3.377783989199999723e+02
-3.377742703800000186e+02
-3.377645344100000102e+02
-3.377494020899999896e+02
-3.377292440100000022e+02
-3.377045747999999890e+02
-3.376760235200000011e+02
-3.376443146700000284e+02
-3.376102206099999989e+02
-3.375745411600000239e+02
-3.374275238999999829e+02
-3.374354909799999973e+02
-3.374442561000000183e+02
-3.374538617100000124e+02
-3.374643935600000191e+02
-3.374759722300000249e+02
-3.374887449099999799e+02
-3.375028527800000120e+02
-3.375184257899999807e+02
-3.375355565599999750e+02
-3.377517900899999859e+02
-3.377493643700000234e+02
-3.377417550999999776e+02
-3.377291741700000216e+02
-3.377119655800000260e+02
-3.376905911299999730e+02
-3.376656080800000268e+02
-3.376376458400000047e+02
-3.376073873099999787e+02
-3.375755330299999741e+02
-3.375619282000000112e+02
-3.375736097199999790e+02
-3.375837784400000032e+02
-3.375923035800000207e+02
-3.375991815599999768e+02
-3.376045287200000189e+02
-3.376085724000000141e+02
-3.376116151400000263e+02
-3.376140189199999782e+02
-3.376161763499999893e+02
-3.379371126300000014e+02
-3.379360862199999929e+02
-3.379318283000000065e+02
-3.379244283599999790e+02
-3.379140701800000102e+02
-3.379010237300000199e+02
-3.378856329100000266e+02
-3.378682993599999804e+02
-3.378494612599999982e+02
-3.378295771699999932e+02
-3.377813875499999767e+02
-3.377805371200000195e+02
-3.377764708199999859e+02
-3.377693594300000086e+02
-3.377594695899999806e+02
-3.377471469800000250e+02
-3.377328124900000148e+02
-3.377169404300000224e+02
-3.377000406500000054e+02
-3.376826422600000228e+02
-3.378251456899999994e+02
-3.378244012999999768e+02
-3.378214418200000182e+02
-3.378164089800000056e+02
-3.378094947600000069e+02
-3.378009468199999787e+02
-3.377910547899999756e+02
-3.377801461299999914e+02
-3.377685711099999821e+02
-3.377566910599999801e+02
-3.380624074799999903e+02
-3.380573473499999864e+02
-3.380476476000000048e+02
-3.380336631399999874e+02
-3.380158695599999987e+02
-3.379948534399999858e+02
-3.379712734199999886e+02
-3.379458377400000018e+02
-3.379192737000000193e+02
-3.378923104400000170e+02
-3.371737489199999800e+02
-3.371720239499999821e+02
-3.371705822800000192e+02
-3.371697251400000255e+02
-3.371698576499999831e+02
-3.371714519700000210e+02
-3.371750167899999724e+02
-3.371810556600000268e+02
-3.371900324499999897e+02
-3.372023270999999909e+02
-3.379004979800000115e+02
-3.378967770300000097e+02
-3.378922456399999987e+02
-3.378871127099999967e+02
-3.378816645499999822e+02
-3.378762428900000145e+02
-3.378712391799999750e+02
-3.378670673600000214e+02
-3.378641422800000100e+02
-3.378628625499999885e+02
-3.381228655400000207e+02
-3.381191119999999728e+02
-3.381122383499999842e+02
-3.381025129899999797e+02
-3.380903244099999938e+02
-3.380761601799999880e+02
-3.380605760400000008e+02
-3.380441648500000156e+02
-3.380275352699999871e+02
-3.380112778000000162e+02
-3.366754369500000053e+02
-3.366756705899999815e+02
-3.366782052199999953e+02
-3.366830696200000261e+02
-3.366902765899999963e+02
-3.366998330499999952e+02
-3.367117388199999937e+02
-3.367259819099999731e+02
-3.367425407999999720e+02
-3.367613798099999940e+02
-3.379607603300000278e+02
-3.379598157300000025e+02
-3.379544115499999748e+02
-3.379447479300000055e+02
-3.379311519500000145e+02
-3.379140624899999921e+02
-3.378940195100000210e+02
-3.378716276299999777e+02
-3.378475448199999960e+02
-3.378224503399999890e+02
-3.379218130599999768e+02
-3.379143329300000005e+02
-3.379045083199999908e+02
-3.378926206500000262e+02
-3.378790429000000017e+02
-3.378642138800000225e+02
-3.378486270299999887e+02
-3.378327962000000184e+02
-3.378172458399999982e+02
-3.378024787699999933e+02
-3.369860260699999799e+02
-3.369834630099999799e+02
-3.369867005500000232e+02
-3.369958331799999769e+02
-3.370109264800000233e+02
-3.370320069499999818e+02
-3.370590379999999868e+02
-3.370918955800000276e+02
-3.371303438599999822e+02
-3.371740203400000269e+02
-3.376864999599999919e+02
-3.376786006899999961e+02
-3.376679147599999737e+02
-3.376546557300000018e+02
-3.376390868899999873e+02
-3.376215223799999876e+02
-3.376023136599999930e+02
-3.375818277399999943e+02
-3.375604376000000002e+02
-3.375385095899999897e+02
-3.379864394599999855e+02
-3.379735012500000266e+02
-3.379558575699999778e+02
-3.379338982300000112e+02
-3.379081097499999942e+02
-3.378790647100000228e+02
-3.378473929900000030e+02
-3.378137627799999905e+02
-3.377788612499999772e+02
-3.377433751699999789e+02
-3.368781726700000263e+02
-3.368731967200000099e+02
-3.368715482299999735e+02
-3.368732701700000121e+02
-3.368783689499999809e+02
-3.368868100099999765e+02
-3.368985239099999944e+02
-3.369134006099999965e+02
-3.369312897400000111e+02
-3.369520001000000207e+02
-3.372615998100000070e+02
-3.372704000800000017e+02
-3.372814912000000049e+02
-3.372947277499999927e+02
-3.373099627799999780e+02
-3.373270419899999979e+02
-3.373458238100000131e+02
-3.373661634200000208e+02
-3.373879223000000138e+02
-3.374109697900000242e+02
-3.380389457300000231e+02
-3.380337594100000160e+02
-3.380237614700000108e+02
-3.380093401299999982e+02
-3.379910488599999780e+02
-3.379695814300000052e+02
-3.379457383199999754e+02
-3.379203860599999985e+02
-3.378944174700000076e+02
-3.378687216899999726e+02
-3.381459491300000195e+02
-3.381456136900000047e+02
-3.381393629199999964e+02
-3.381273883800000135e+02
-3.381100476799999797e+02
-3.380878479599999764e+02
-3.380614105399999971e+02
-3.380314478199999826e+02
-3.379987309599999890e+02
-3.379640545999999972e+02
-3.381187112800000136e+02
-3.381132749600000125e+02
-3.381033411700000215e+02
-3.380891530299999772e+02
-3.380710743099999718e+02
-3.380495763499999953e+02
-3.380252204500000062e+02
-3.379986369999999738e+02
-3.379705015999999773e+02
-3.379415167799999722e+02
-3.379467367400000057e+02
-3.379361057599999754e+02
-3.379209069600000248e+02
-3.379014988999999787e+02
-3.378783753299999830e+02
-3.378521326499999873e+02
-3.378234453700000017e+02
-3.377930540899999983e+02
-3.377617227800000137e+02
-3.377302229000000011e+02
-3.376405649000000153e+02
-3.376316843000000176e+02
-3.376221923800000013e+02
-3.376123340199999916e+02
-3.376023974600000201e+02
-3.375927105399999846e+02
-3.375836269299999799e+02
-3.375755150200000116e+02
-3.375687571099999786e+02
-3.375637325299999816e+02
-3.376778045600000269e+02
-3.376762183899999741e+02
-3.376701400000000035e+02
-3.376597910599999750e+02
-3.376455143000000021e+02
-3.376277660599999990e+02
-3.376070899299999724e+02
-3.375840966000000094e+02
-3.375594362900000078e+02
-3.375337813799999935e+02
-3.377849602300000242e+02
-3.377739248199999906e+02
-3.377625610399999800e+02
-3.377511962799999878e+02
-3.377402143400000227e+02
-3.377300340099999971e+02
-3.377210914799999841e+02
-3.377138251399999831e+02
-3.377086477099999797e+02
-3.377059359900000004e+02
-3.380452581900000268e+02
-3.380433718599999793e+02
-3.380383440100000030e+02
-3.380303055300000210e+02
-3.380194809800000257e+02
-3.380061785400000076e+02
-3.379907837399999835e+02
-3.379737423500000091e+02
-3.379555458400000134e+02
-3.379367177199999901e+02
-3.370887994899999853e+02
-3.370869115899999997e+02
-3.370890914099999804e+02
-3.370953176699999858e+02
-3.371055572600000119e+02
-3.371197565800000007e+02
-3.371378276400000118e+02
-3.371596437000000037e+02
-3.371850223100000221e+02
-3.372137264899999991e+02
-3.378137476200000151e+02
-3.378222651400000132e+02
-3.378272473299999774e+02
-3.378286726200000203e+02
-3.378266489499999921e+02
-3.378214108099999748e+02
-3.378133128499999884e+02
-3.378028004799999735e+02
-3.377903951800000186e+02
-3.377766676900000107e+02
-3.371227237699999932e+02
-3.371264013399999726e+02
-3.371283251599999744e+02
-3.371285660899999925e+02
-3.371273389699999825e+02
-3.371249764699999787e+02
-3.371219189500000084e+02
-3.371186790300000098e+02
-3.371158002700000225e+02
-3.371138365699999895e+02
-3.378910588699999948e+02
-3.378948232700000176e+02
-3.378954623000000197e+02
-3.378930017399999883e+02
-3.378875809300000128e+02
-3.378794413699999950e+02
-3.378689160800000195e+02
-3.378564204099999984e+02
-3.378424305799999843e+02
-3.378274648999999954e+02
-3.381420655900000156e+02
-3.381428970200000208e+02
-3.381398519200000123e+02
-3.381330105499999945e+02
-3.381225366699999881e+02
-3.381086743999999840e+02
-3.380917361300000152e+02
-3.380720872800000052e+02
-3.380501421800000230e+02
-3.380263383700000190e+02
-3.380395682100000272e+02
-3.380444261399999846e+02
-3.380460910099999978e+02
-3.380445705700000190e+02
-3.380399565000000166e+02
-3.380324285199999963e+02
-3.380222382800000105e+02
-3.380097031500000071e+02
-3.379951990700000124e+02
-3.379791382099999737e+02
-3.381400602499999763e+02
-3.381461160999999720e+02
-3.381483140500000104e+02
-3.381467776999999728e+02
-3.381417668099999787e+02
-3.381336563699999829e+02
-3.381229257599999869e+02
-3.381101458900000125e+02
-3.380959435999999982e+02
-3.380809884700000225e+02
-3.377883107800000175e+02
-3.377852532100000076e+02
-3.377779175200000168e+02
-3.377665027400000213e+02
-3.377513422999999761e+02
-3.377328814100000045e+02
-3.377116592599999763e+02
-3.376882908900000189e+02
-3.376634382500000129e+02
-3.376377895300000205e+02
-3.379575590000000034e+02
-3.379589191499999856e+02
-3.379564271699999836e+02
-3.379501672800000165e+02
-3.379403448200000071e+02
-3.379272772699999905e+02
-3.379113745399999971e+02
-3.378931224799999882e+02
-3.378730614899999978e+02
-3.378517610399999853e+02
-3.377515458999999964e+02
-3.377504375500000151e+02
-3.377480996099999970e+02
-3.377447192399999949e+02
-3.377405781699999920e+02
-3.377360192599999777e+02
-3.377314440200000263e+02
-3.377272654500000044e+02
-3.377238967700000103e+02
-3.377217194799999902e+02
-3.381445446299999844e+02
-3.381481004400000074e+02
-3.381472021600000062e+02
-3.381418741400000272e+02
-3.381322713499999963e+02
-3.381186717499999759e+02
-3.381014705700000036e+02
-3.380811581699999806e+02
-3.380583074099999976e+02
-3.380335445599999957e+02
-3.368803924900000197e+02
-3.368827834400000256e+02
-3.368903244200000131e+02
-3.369031141799999887e+02
-3.369212304700000118e+02
-3.369447091499999942e+02
-3.369735253000000057e+02
-3.370075633700000139e+02
-3.370466013600000110e+02
-3.370902845300000195e+02
-3.375770904999999971e+02
-3.375857435300000020e+02
-3.375933892599999808e+02
-3.375999669000000267e+02
-3.376054673500000263e+02
-3.376099393900000223e+02
-3.376134859000000006e+02
-3.376162614300000087e+02
-3.376184606499999745e+02
-3.376203129400000194e+02
-3.368133984799999894e+02
-3.368211404200000061e+02
-3.368359656999999743e+02
-3.368577394399999889e+02
-3.368862740700000131e+02
-3.369213147599999729e+02
-3.369625154700000280e+02
-3.370094312699999932e+02
-3.370614965600000232e+02
-3.371180232500000216e+02
-3.373720855199999846e+02
-3.373754843899999969e+02
-3.373773009000000229e+02
-3.373775744000000145e+02
-3.373763970599999880e+02
-3.373739199699999745e+02
-3.373703392499999723e+02
-3.373658892500000093e+02
-3.373608350399999836e+02
-3.373554600499999765e+02
-3.382913797400000249e+02
-3.382920195199999966e+02
-3.382881567599999926e+02
-3.382798915100000272e+02
-3.382674576699999989e+02
-3.382512088500000118e+02
-3.382316098200000170e+02
-3.382092025100000114e+02
-3.381845902700000011e+02
-3.381584121700000196e+02
-3.382190019500000062e+02
-3.382205793900000117e+02
-3.382192314600000032e+02
-3.382150436300000251e+02
-3.382081787100000270e+02
-3.381988767700000267e+02
-3.381874367799999845e+02
-3.381742146700000262e+02
-3.381596049899999912e+02
-3.381440292799999838e+02
-3.376951935600000070e+02
-3.376991539900000134e+02
-3.376994514900000013e+02
-3.376961911199999804e+02
-3.376896128999999860e+02
-3.376800736800000209e+02
-3.376680348900000013e+02
-3.376540450200000123e+02
-3.376387074200000029e+02
-3.376226685199999906e+02
-3.381361364499999809e+02
-3.381325284800000190e+02
-3.381244564900000000e+02
-3.381121218600000020e+02
-3.380958581200000026e+02
-3.380760983399999873e+02
-3.380533700899999872e+02
-3.380282674100000122e+02
-3.380014256399999795e+02
-3.379735054399999967e+02
-3.374178586099999961e+02
-3.374319108999999912e+02
-3.374489199999999869e+02
-3.374686168000000066e+02
-3.374907212200000117e+02
-3.375149359600000025e+02
-3.375409610199999975e+02
-3.375684810800000264e+02
-3.375971685700000080e+02
-3.376266867800000000e+02
-3.382867967899999826e+02
-3.382835906799999748e+02
-3.382762530300000208e+02
-3.382649910999999747e+02
-3.382501146000000176e+02
-3.382320331700000224e+02
-3.382112336899999718e+02
-3.381882598299999927e+02
-3.381636988100000281e+02
-3.381381520300000147e+02
-3.379486285099999918e+02
-3.379448516599999834e+02
-3.379365546899999799e+02
-3.379239812700000130e+02
-3.379074926000000119e+02
-3.378875463300000206e+02
-3.378646784100000104e+02
-3.378394739699999718e+02
-3.378125560299999961e+02
-3.377845479200000227e+02
-3.379286674699999935e+02
-3.379279978000000142e+02
-3.379225965300000212e+02
-3.379127237499999978e+02
-3.378987784700000248e+02
-3.378812964400000283e+02
-3.378609097600000268e+02
-3.378383251500000028e+02
-3.378142839500000036e+02
-3.377895338899999729e+02
-3.375701020999999855e+02
-3.375795007899999973e+02
-3.375916000500000109e+02
-3.376063168599999926e+02
-3.376235880899999984e+02
-3.376433684699999844e+02
-3.376656014700000128e+02
-3.376902238600000032e+02
-3.377171338300000230e+02
-3.377461817399999973e+02
-3.382617212499999937e+02
-3.382657871700000101e+02
-3.382660515000000032e+02
-3.382625788199999874e+02
-3.382555495199999882e+02
-3.382452553300000204e+02
-3.382320841599999994e+02
-3.382165014500000098e+02
-3.381990381200000115e+02
-3.381802628400000117e+02
-3.372300964300000032e+02
-3.372403030799999897e+02
-3.372491406699999743e+02
-3.372567139600000132e+02
-3.372632592699999918e+02
-3.372691273300000034e+02
-3.372747519299999794e+02
-3.372806153600000130e+02
-3.372872130800000150e+02
-3.372950221699999815e+02
-3.373315085899999985e+02
-3.373328275599999984e+02
-3.373347989299999767e+02
-3.373374219300000050e+02
-3.373407216300000186e+02
-3.373447517899999752e+02
-3.373495916300000204e+02
-3.373553426899999863e+02
-3.373621252099999879e+02
-3.373700703499999918e+02
-3.377009681700000101e+02
-3.377075410099999999e+02
-3.377129790800000251e+02
-3.377172318400000108e+02
-3.377203046700000186e+02
-3.377222664700000223e+02
-3.377232470999999805e+02
-3.377234307200000103e+02
-3.377230575899999963e+02
-3.377224045300000057e+02
-3.378834653700000104e+02
-3.378828210099999865e+02
-3.378779696600000193e+02
-3.378690900400000032e+02
-3.378564745599999810e+02
-3.378405140799999913e+02
-3.378216808099999753e+02
-3.378005130299999905e+02
-3.377775890699999763e+02
-3.377535153700000023e+02
-3.377727997999999729e+02
-3.377751003999999853e+02
-3.377741352900000038e+02
-3.377700059300000248e+02
-3.377629111599999874e+02
-3.377531373699999904e+02
-3.377410414600000195e+02
-3.377270372500000235e+02
-3.377115709600000173e+02
-3.376951038600000174e+02
-3.381552723500000184e+02
-3.381480605799999921e+02
-3.381365189699999974e+02
-3.381209981200000243e+02
-3.381019838199999867e+02
-3.380800822200000084e+02
-3.380559809800000153e+02
-3.380304305899999804e+02
-3.380042000799999755e+02
-3.379780544399999940e+02
-3.367560907299999826e+02
-3.367702020500000231e+02
-3.367865373999999861e+02
-3.368049451100000056e+02
-3.368252690799999982e+02
-3.368473499699999820e+02
-3.368710285099999737e+02
-3.368961486800000102e+02
-3.369225582500000087e+02
-3.369501170300000013e+02
-3.374830996000000027e+02
-3.374795927999999776e+02
-3.374766558200000190e+02
-3.374743271199999981e+02
-3.374726539000000116e+02
-3.374716953099999728e+02
-3.374715102100000195e+02
-3.374721741800000245e+02
-3.374737508299999718e+02
-3.374763135399999783e+02
-3.376293085099999871e+02
-3.376330808100000240e+02
-3.376340159900000231e+02
-3.376322339199999760e+02
-3.376279633999999987e+02
-3.376215304799999899e+02
-3.376133412400000111e+02
-3.376038615800000002e+02
-3.375935953300000278e+02
-3.375830663899999990e+02
-3.376458688800000232e+02
-3.376555156900000156e+02
-3.376630931099999771e+02
-3.376686029499999790e+02
-3.376721290699999827e+02
-3.376738395200000014e+02
-3.376739732600000252e+02
-3.376728356300000087e+02
-3.376707786499999884e+02
-3.376681967299999769e+02
-3.366648228600000152e+02
-3.366715625799999998e+02
-3.366814066200000184e+02
-3.366942554500000142e+02
-3.367099974500000030e+02
-3.367285085299999992e+02
-3.367496585499999924e+02
-3.367733112399999982e+02
-3.367993237700000009e+02
-3.368275481399999762e+02
-3.378175237199999970e+02
-3.378160264800000050e+02
-3.378116744499999982e+02
-3.378046058699999890e+02
-3.377950529099999812e+02
-3.377833312999999862e+02
-3.377698231400000282e+02
-3.377549563800000101e+02
-3.377392003300000169e+02
-3.377230326100000184e+02
-3.381274323000000095e+02
-3.381286604499999839e+02
-3.381263389000000075e+02
-3.381206302699999924e+02
-3.381118051899999841e+02
-3.381002335599999924e+02
-3.380863557499999956e+02
-3.380706868999999983e+02
-3.380537841999999955e+02
-3.380362281199999757e+02
-3.380510839799999872e+02
-3.380462345000000255e+02
-3.380379981799999882e+02
-3.380265953900000113e+02
-3.380123201299999778e+02
-3.379955304900000215e+02
-3.379766287900000066e+02
-3.379560564999999883e+02
-3.379342725100000280e+02
-3.379117434600000252e+02
-3.378617629199999897e+02
-3.378571248900000228e+02
-3.378488483500000257e+02
-3.378371767099999943e+02
-3.378224493999999822e+02
-3.378050871099999881e+02
-3.377855634200000168e+02
-3.377643932999999947e+02
-3.377421142900000177e+02
-3.377192680300000234e+02
-3.375361240999999950e+02
-3.375403807700000129e+02
-3.375412488000000053e+02
-3.375387425700000108e+02
-3.375329946599999857e+02
-3.375242522199999939e+02
-3.375128585400000247e+02
-3.374992486500000268e+02
-3.374839166099999943e+02
-3.374674085500000160e+02
-3.380478741399999763e+02
-3.380503243900000143e+02
-3.380494625000000042e+02
-3.380454004399999803e+02
-3.380383989000000042e+02
-3.380288545899999804e+02
-3.380172797800000239e+02
-3.380042734599999790e+02
-3.379904902100000186e+02
-3.379766107300000044e+02
-3.379019246600000201e+02
-3.379027504399999771e+02
-3.378991254700000013e+02
-3.378912119299999972e+02
-3.378793060900000000e+02
-3.378638289200000031e+02
-3.378453064999999924e+02
-3.378243532399999935e+02
-3.378016450299999747e+02
-3.377778998300000239e+02
-3.379019258399999899e+02
-3.378985740100000044e+02
-3.378929234999999949e+02
-3.378851167199999850e+02
-3.378753803399999924e+02
-3.378640175400000203e+02
-3.378513948400000118e+02
-3.378379257600000187e+02
-3.378240503299999773e+02
-3.378102227399999720e+02
-3.371236307199999942e+02
-3.371307065699999725e+02
-3.371383258600000090e+02
-3.371463930699999878e+02
-3.371548432100000241e+02
-3.371636356199999796e+02
-3.371727672399999847e+02
-3.371822619000000145e+02
-3.371921730500000081e+02
-3.372025750299999913e+02
-3.377292498900000055e+02
-3.377331965899999773e+02
-3.377343887399999858e+02
-3.377329785200000174e+02
-3.377292231800000195e+02
-3.377234760000000051e+02
-3.377161564400000202e+02
-3.377077381199999877e+02
-3.376987162300000023e+02
-3.376895869200000107e+02
-3.372260229799999820e+02
-3.372344638700000132e+02
-3.372435670200000004e+02
-3.372532792800000152e+02
-3.372635781600000087e+02
-3.372744816100000094e+02
-3.372860345799999777e+02
-3.372983131999999955e+02
-3.373114233900000158e+02
-3.373254904799999849e+02
-3.379182075900000086e+02
-3.379148452900000166e+02
-3.379085134499999867e+02
-3.378993631499999992e+02
-3.378876547799999912e+02
-3.378737416999999823e+02
-3.378580630199999746e+02
-3.378411220899999989e+02
-3.378234635499999854e+02
-3.378056600799999956e+02
-3.380815228800000227e+02
-3.380796168300000204e+02
-3.380745416699999737e+02
-3.380663180899999816e+02
-3.380550923800000191e+02
-3.380411233500000208e+02
-3.380247692899999947e+02
-3.380064650599999823e+02
-3.379867055999999934e+02
-3.379660215700000094e+02
-3.375709446500000013e+02
-3.375757677999999942e+02
-3.375816166000000180e+02
-3.375884465799999816e+02
-3.375962321700000075e+02
-3.376049671399999852e+02
-3.376146657499999719e+02
-3.376253513899999916e+02
-3.376370671099999754e+02
-3.376498545900000181e+02
-3.381853771500000221e+02
-3.381848304700000085e+02
-3.381797136299999806e+02
-3.381701554900000133e+02
-3.381564189499999884e+02
-3.381388844900000095e+02
-3.381180298300000118e+02
-3.380944143599999734e+02
-3.380686534000000165e+02
-3.380413940999999909e+02
-3.378090660799999796e+02
-3.378138127199999872e+02
-3.378171654899999794e+02
-3.378191553799999838e+02
-3.378199079899999901e+02
-3.378196195699999862e+02
-3.378185486699999842e+02
-3.378169937200000277e+02
-3.378152731999999787e+02
-3.378136994299999856e+02
-3.378517661999999859e+02
-3.378449106400000232e+02
-3.378344545100000005e+02