-3.386764236700000197e+02
-3.386732098400000268e+02
-3.386643092799999977e+02
-3.386499468499999921e+02
-3.386305013699999904e+02
-3.386064768100000038e+02
-3.385784820200000240e+02
-3.385472046099999943e+02
-3.385133799700000168e+02
-3.384777692800000182e+02
-3.369132778900000176e+02
-3.369208243300000163e+02
-3.369299604999999929e+02
-3.369406596399999785e+02
-3.369529420800000139e+02
-3.369668604299999970e+02
-3.369824894199999790e+02
-3.369999039599999833e+02
-3.370191662700000279e+02
-3.370403031499999997e+02
-3.379183845900000165e+02
-3.379242134200000010e+02
-3.379270115200000077e+02
-3.379268648899999903e+02
-3.379239974800000255e+02
-3.379187533499999745e+02
-3.379115754200000197e+02
-3.379029814200000033e+02
-3.378935364100000243e+02
-3.378838157600000045e+02
-3.383098604099999989e+02
-3.383122966000000247e+02
-3.383104577799999788e+02
-3.383044148399999926e+02
-3.382943638899999996e+02
-3.382806149099999971e+02
-3.382635730000000081e+02
-3.382437195300000212e+02
-3.382216002499999945e+02
-3.381977907699999832e+02
-3.380012098199999855e+02
-3.380001107100000013e+02
-3.379955238900000154e+02
-3.379875866500000257e+02
-3.379765635900000120e+02
-3.379628255800000147e+02
-3.379468355000000201e+02
-3.379291281399999889e+02
-3.379102796299999909e+02
-3.378908936299999937e+02
-3.371030429699999900e+02
-3.371046769399999903e+02
-3.371090919999999755e+02
-3.371163965599999983e+02
-3.371267567099999951e+02
-3.371403702000000067e+02
-3.371574430599999914e+02
-3.371781617899999901e+02
-3.372026621100000057e+02
-3.372309920700000134e+02
-3.378874401799999987e+02
-3.378795472200000063e+02
-3.378696404400000119e+02
-3.378578972299999919e+02
-3.378445416000000137e+02
-3.378298377300000084e+02
-3.378140810300000112e+02
-3.377975926699999718e+02
-3.377807010999999875e+02
-3.377637507800000094e+02
-3.378569945799999914e+02
-3.378494900399999779e+02
-3.378388241600000015e+02
-3.378251551500000005e+02
-3.378087073899999950e+02
-3.377897644799999739e+02
-3.377686513400000194e+02
-3.377457316100000071e+02
-3.377213852200000019e+02
-3.376960022800000161e+02
-3.377492435699999760e+02
-3.377487434399999984e+02
-3.377429742799999985e+02
-3.377321537199999852e+02
-3.377166500800000222e+02
-3.376969490899999755e+02
-3.376736473799999771e+02
-3.376474226799999769e+02
-3.376190102499999739e+02
-3.375891801000000214e+02
-3.378232388999999785e+02
-3.378214750000000208e+02
-3.378197053200000255e+02
-3.378179969700000242e+02
-3.378164337300000284e+02
-3.378151113499999951e+02
-3.378141375199999743e+02
-3.378136283000000049e+02
-3.378137030699999741e+02
-3.378144811999999888e+02
-3.375317581799999971e+02
-3.375354274800000098e+02
-3.375408635100000083e+02
-3.375482068599999934e+02
-3.375576819500000170e+02
-3.375695842900000230e+02
-3.375842420700000162e+02
-3.376019962500000133e+02
-3.376231547400000181e+02
-3.376479620800000134e+02
-3.374482331699999804e+02
-3.374442223600000261e+02
-3.374359517199999914e+02
-3.374236619399999881e+02
-3.374077341700000261e+02
-3.373886624200000028e+02
-3.373670442200000252e+02
-3.373435447699999941e+02
-3.373188751600000046e+02
-3.372937591400000201e+02
-3.377005943300000013e+02
-3.377090566300000205e+02
-3.377156624400000169e+02
-3.377203941800000280e+02
-3.377233459000000266e+02
-3.377247143000000165e+02
-3.377247927700000218e+02
-3.377239574600000083e+02
-3.377226605399999926e+02
-3.377213992499999904e+02
-3.378497180400000275e+02
-3.378488067499999943e+02
-3.378433284899999762e+02
-3.378334331199999951e+02
-3.378193955300000084e+02
-3.378015871499999889e+02
-3.377804670300000112e+02
-3.377565738499999952e+02
-3.377304952200000230e+02
-3.377028538800000206e+02
-3.379225523100000146e+02
-3.379247101400000020e+02
-3.379251833600000055e+02
-3.379240332800000033e+02
-3.379213892999999871e+02
-3.379174440599999798e+02
-3.379124406700000236e+02
-3.379066582300000050e+02
-3.379003994299999931e+02
-3.378939762800000040e+02
-3.375411724900000081e+02
-3.375469014099999754e+02
-3.375515761799999837e+02
-3.375552507500000274e+02
-3.375580511300000239e+02
-3.375601737200000230e+02
-3.375618767899999852e+02
-3.375634729799999718e+02
-3.375653187300000013e+02
-3.375677928999999722e+02
-3.371009123000000045e+02
-3.370960892900000090e+02
-3.370873566000000210e+02
-3.370749378799999931e+02
-3.370591828500000133e+02
-3.370405427800000098e+02
-3.370195563400000083e+02
-3.369968384000000015e+02
-3.369730515499999797e+02
-3.369488881699999752e+02
-3.381233161700000096e+02
-3.381237004299999853e+02
-3.381192501900000025e+02
-3.381101384899999971e+02
-3.380966587300000015e+02
-3.380792191200000048e+02
-3.380583037999999760e+02
-3.380344678999999815e+02
-3.380082986699999879e+02
-3.379803979000000140e+02
-3.378482126200000266e+02
-3.378434690700000260e+02
-3.378345794400000273e+02
-3.378218307500000037e+02
-3.378056427700000199e+02
-3.377865406899999812e+02
-3.377651274300000068e+02
-3.377420548299999723e+02
-3.377179988099999832e+02
-3.376936237499999720e+02
-3.369297663199999988e+02
-3.369322172999999907e+02
-3.369369500600000151e+02
-3.369438923000000159e+02
-3.369529722999999990e+02
-3.369641219999999748e+02
-3.369772779300000138e+02
-3.369923754999999801e+02
-3.370093569000000002e+02
-3.370281690599999820e+02
-3.365942506600000002e+02
-3.365873057900000163e+02
-3.365845166500000119e+02
-3.365859829899999909e+02
-3.365917741499999920e+02
-3.366019359200000167e+02
-3.366164803600000255e+02
-3.366353768899999750e+02
-3.366585621099999912e+02
-3.366859184599999821e+02
-3.368625046399999974e+02
-3.368777495499999759e+02
-3.368976334399999928e+02
-3.369218008799999780e+02
-3.369498347599999875e+02
-3.369812649200000010e+02
-3.370155778499999997e+02
-3.370522212899999772e+02
-3.370906178000000182e+02
-3.371301841399999830e+02
-3.375937766600000032e+02
-3.375863591400000132e+02
-3.375766190499999766e+02
-3.375647863799999868e+02
-3.375511400699999740e+02
-3.375359926599999767e+02
-3.375196741600000223e+02
-3.375025265699999864e+02
-3.374848841099999959e+02
-3.374670716900000116e+02
-3.373093841400000201e+02
-3.373146877600000266e+02
-3.373178508299999976e+02
-3.373188718700000095e+02
-3.373178416999999740e+02
-3.373149419900000225e+02
-3.373104278600000043e+02
-3.373046358700000269e+02
-3.372979529799999909e+02
-3.372908137800000077e+02
-3.377959630400000037e+02
-3.377923032900000067e+02
-3.377872038200000020e+02
-3.377808239799999797e+02
-3.377733972199999926e+02
-3.377652237300000024e+02
-3.377566602800000055e+02
-3.377481156700000042e+02
-3.377400257799999963e+02
-3.377328563199999962e+02
-3.378618410500000095e+02
-3.378632089899999755e+02
-3.378611286899999868e+02
-3.378557141599999909e+02
-3.378472188100000153e+02
-3.378360118599999851e+02
-3.378225618700000155e+02
-3.378074077499999817e+02
-3.377911425600000257e+02
-3.377743697799999723e+02
-3.381725939799999878e+02
-3.381739103500000283e+02
-3.381724977999999737e+02
-3.381684392700000217e+02
-3.381619059099999731e+02
-3.381531380700000113e+02
-3.381424395299999901e+02
-3.381301648900000032e+02
-3.381167073400000049e+02
-3.381024836000000278e+02
-3.371637734600000158e+02
-3.371640642899999989e+02
-3.371648491000000263e+02
-3.371662064600000122e+02
-3.371682448099999760e+02
-3.371711096600000133e+02
-3.371749735899999791e+02
-3.371800317400000040e+02
-3.371864939100000242e+02
-3.371945783699999879e+02
-3.379543615399999794e+02
-3.379492301899999802e+02
-3.379404861099999948e+02
-3.379283806799999752e+02
-3.379132554299999924e+02
-3.378955287800000065e+02
-3.378756761399999959e+02
-3.378542098400000100e+02
-3.378316638399999761e+02
-3.378085768899999835e+02
-3.381936249899999893e+02
-3.381984647099999961e+02
-3.381998753899999883e+02
-3.381979137299999820e+02
-3.381927364399999760e+02
-3.381845849800000110e+02
-3.381737851099999830e+02
-3.381607254599999806e+02
-3.381458435900000268e+02
-3.381296118600000113e+02
-3.371155345000000239e+02
-3.371123770799999875e+02
-3.371125128400000222e+02
-3.371162365700000123e+02
-3.371238238899999828e+02
-3.371355019499999912e+02
-3.371514231300000120e+02
-3.371716423600000212e+02
-3.371960831700000085e+02
-3.372245381500000008e+02
-3.375716824699999847e+02
-3.375810676799999897e+02
-3.375902200900000025e+02
-3.375990417099999945e+02
-3.376074846000000207e+02
-3.376155478000000016e+02
-3.376232776699999931e+02
-3.376307662400000140e+02
-3.376381450599999994e+02
-3.376455804899999862e+02
-3.361248855599999956e+02
-3.361333522499999731e+02
-3.361535168099999851e+02
-3.361852893600000129e+02
-3.362284348300000261e+02
-3.362825437600000100e+02
-3.363469957300000033e+02
-3.364209222399999817e+02
-3.365032007099999873e+02
-3.365924487899999917e+02
-3.373689279399999918e+02
-3.373813181599999780e+02
-3.373933688500000017e+02
-3.374048651200000108e+02
-3.374156601199999841e+02
-3.374256873599999835e+02
-3.374349511600000255e+02
-3.374435338200000274e+02
-3.374515917499999773e+02
-3.374593435400000203e+02
-3.370363440400000172e+02
-3.370411986899999874e+02
-3.370471370399999955e+02
-3.370540615699999876e+02
-3.370618942400000151e+02
-3.370705884800000263e+02
-3.370801195500000063e+02
-3.370904916800000137e+02
-3.371017320500000096e+02
-3.371138856200000191e+02
-3.377794537199999922e+02
-3.377845804799999883e+02
-3.377865902099999857e+02
-3.377856534800000077e+02
-3.377820669100000259e+02
-3.377762438600000223e+02
-3.377686941200000206e+02
-3.377599973599999998e+02
-3.377507768699999815e+02
-3.377416741600000023e+02
-3.372880141800000047e+02
-3.372984652399999845e+02
-3.373105146400000081e+02
-3.373239748799999802e+02
-3.373386643499999877e+02
-3.373544153700000265e+02
-3.373710688799999957e+02
-3.373884764000000018e+02
-3.374064992200000006e+02
-3.374249981199999979e+02
-3.378458005699999944e+02
-3.378421325499999739e+02
-3.378346535100000096e+02
-3.378235617999999931e+02
-3.378091779299999757e+02
-3.377919366599999762e+02
-3.377723590100000024e+02
-3.377510333700000160e+02
-3.377285953499999778e+02
-3.377057023300000083e+02
-3.379175229900000090e+02
-3.379179067000000032e+02
-3.379165018400000235e+02
-3.379133872500000280e+02
-3.379086982399999783e+02
-3.379026310400000170e+02
-3.378954268699999943e+02
-3.378873747399999843e+02
-3.378787902999999915e+02
-3.378700116200000139e+02
-3.380599788600000011e+02
-3.380627665499999921e+02
-3.380625989100000197e+02
-3.380596128799999747e+02
-3.380540414800000235e+02
-3.380462124100000096e+02
-3.380365250199999991e+02
-3.380254294299999742e+02
-3.380134015699999850e+02
-3.380009274899999809e+02
-3.382135206699999799e+02
-3.382154124400000228e+02
-3.382126979899999810e+02
-3.382055244100000095e+02
-3.381941734999999767e+02
-3.381790647000000263e+02
-3.381607285200000206e+02
-3.381397743800000057e+02
-3.381168712599999822e+02
-3.380927259100000128e+02
-3.374893622800000230e+02
-3.374997020299999804e+02
-3.375083994600000210e+02
-3.375153418400000191e+02
-3.375204906000000165e+02
-3.375238654899999915e+02
-3.375255543000000102e+02
-3.375256991599999878e+02
-3.375244962900000019e+02
-3.375221863500000268e+02
-3.380609418899999810e+02
-3.380586340400000154e+02
-3.380515084599999796e+02
-3.380397689100000207e+02
-3.380237371599999960e+02
-3.380038383199999998e+02
-3.379805944400000044e+02
-3.379545831799999860e+02
-3.379264263499999856e+02
-3.378967615000000251e+02
-3.377248537199999987e+02
-3.377217885499999852e+02
-3.377156270300000074e+02
-3.377065935200000126e+02
-3.376950072100000284e+02
-3.376812704700000154e+02
-3.376658469000000196e+02
-3.376492428500000074e+02
-3.376319895500000143e+02
-3.376146187499999769e+02
-3.384394892099999765e+02
-3.384389408299999786e+02
-3.384339113899999916e+02
-3.384245244100000036e+02
-3.384110051100000192e+02
-3.383936791799999924e+02
-3.383729437999999732e+02
-3.383492589300000191e+02
-3.383231240399999820e+02
-3.382950697100000070e+02
-3.380681217900000206e+02
-3.380701682200000278e+02
-3.380690118699999971e+02
-3.380647632600000065e+02
-3.380576332200000138e+02
-3.380479340300000217e+02
-3.380360597100000177e+02
-3.380224732400000107e+02
-3.380076972100000035e+02
-3.379922888300000068e+02
-3.382363657999999873e+02
-3.382352669200000150e+02
-3.382304623200000151e+02
-3.382221140699999751e+02
-3.382104875599999900e+02
-3.381959426700000222e+02
-3.381789201400000024e+02
-3.381599206899999785e+02
-3.381394894399999771e+02
-3.381181967499999814e+02
-3.378556416600000034e+02
-3.378548612299999832e+02
-3.378511233599999741e+02
-3.378445390300000213e+02
-3.378353174000000081e+02
-3.378237609099999759e+02
-3.378102524099999755e+02
-3.377952431100000013e+02
-3.377792354700000033e+02
-3.377627733799999987e+02
-3.379261569600000144e+02
-3.379314450200000124e+02
-3.379350908600000025e+02
-3.379371318999999971e+02
-3.379377187399999798e+02
-3.379371209299999919e+02
-3.379357161899999937e+02
-3.379339557800000193e+02
-3.379323405499999922e+02
-3.379313862600000107e+02
-3.376678790299999946e+02
-3.376584535800000140e+02
-3.376467760099999964e+02
-3.376330480600000215e+02
-3.376175312099999815e+02
-3.376005427800000120e+02
-3.375824423600000159e+02
-3.375636191099999905e+02
-3.375444792900000266e+02
-3.375254394400000137e+02
-3.382154137200000150e+02
-3.382148345200000108e+02
-3.382094777400000112e+02
-3.381995108500000242e+02
-3.381852316999999744e+02
-3.381670464599999946e+02
-3.381454625000000078e+02
-3.381210584899999958e+02
-3.380944593199999986e+02
-3.380663137399999982e+02
-3.378842739500000221e+02
-3.378879644799999937e+02
-3.378883150999999998e+02
-3.378853846499999918e+02
-3.378793409099999963e+02
-3.378704473600000142e+02
-3.378590572599999859e+02
-3.378455878899999902e+02
-3.378305077699999970e+02
-3.378143065500000262e+02
-3.378982422099999781e+02
-3.379008200499999930e+02
-3.378997209099999850e+02
-3.378950107100000082e+02
-3.378868968300000120e+02
-3.378757166899999902e+02
-3.378619210599999860e+02
-3.378460529100000258e+02
-3.378287231599999814e+02
-3.378105785000000196e+02
-3.379026649099999986e+02
-3.379044723999999746e+02
-3.379013783099999841e+02
-3.378934451999999737e+02
-3.378808835400000135e+02
-3.378640411700000072e+02
-3.378433890599999927e+02
-3.378194982900000127e+02
-3.377930191799999875e+02
-3.377646516500000189e+02
-3.380876984199999811e+02
-3.380899801799999977e+02
-3.380893523899999877e+02
-3.380859011200000168e+02
-3.380797891000000277e+02
-3.380712468699999818e+02
-3.380605712299999936e+02
-3.380481007100000284e+02
-3.380342156500000215e+02
-3.380193158700000140e+02
-3.379206759099999999e+02
-3.379200529400000050e+02
-3.379164629499999819e+02
-3.379100210199999879e+02
-3.379009378599999991e+02
-3.378895195299999727e+02
-3.378761447100000055e+02
-3.378612598799999773e+02
-3.378453602499999988e+02
-3.378289757499999837e+02
-3.378936191799999733e+02
-3.378860354700000244e+02
-3.378772530599999868e+02
-3.378674617400000102e+02
-3.378568932100000097e+02
-3.378458126300000117e+02
-3.378345134499999745e+02
-3.378233071799999720e+02
-3.378125131699999883e+02
-3.378024505199999794e+02
-3.376781489499999793e+02
-3.376839246999999773e+02
-3.376863627100000258e+02
-3.376855117399999813e+02
-3.376815330100000097e+02
-3.376746829499999762e+02
-3.376653088499999740e+02
-3.376538252299999954e+02
-3.376407012700000223e+02
-3.376264457899999911e+02
-3.382579157600000030e+02
-3.382574744699999769e+02
-3.382539914999999837e+02
-3.382475860600000033e+02
-3.382384671799999865e+02
-3.382269214799999872e+02
-3.382133030100000042e+02
-3.381980166899999745e+02
-3.381815025600000126e+02
-3.381642225499999768e+02
-3.360625031999999806e+02
-3.360795215100000064e+02
-3.361047767800000088e+02
-3.361378948799999762e+02
-3.361784120199999961e+02
-3.362257730200000196e+02
-3.362793252399999915e+02
-3.363382970100000193e+02
-3.364018180900000061e+02
-3.364689160400000105e+02
-3.377937787199999775e+02
-3.377903728100000080e+02
-3.377862348500000280e+02
-3.377815210800000045e+02
-3.377764189800000167e+02
-3.377711350600000060e+02
-3.377658895899999720e+02
-3.377609209099999816e+02
-3.377564671700000076e+02
-3.377527645700000107e+02
-3.373891844600000240e+02
-3.373923594899999898e+02
-3.373945705300000100e+02
-3.373957247700000153e+02
-3.373957703899999956e+02
-3.373947039700000232e+02
-3.373925724599999967e+02
-3.373894681599999785e+02
-3.373855305800000224e+02
-3.373809342800000195e+02
-3.370165404400000284e+02
-3.370174467900000081e+02
-3.370198844899999813e+02
-3.370239178200000083e+02
-3.370296120599999767e+02
-3.370370246100000031e+02
-3.370462061100000142e+02
-3.370571961599999895e+02
-3.370700183399999901e+02
-3.370846747800000003e+02
-3.383812257899999736e+02
-3.383801615799999922e+02
-3.383745134200000280e+02
-3.383643646200000035e+02
-3.383499087199999735e+02
-3.383314412999999945e+02
-3.383093369100000132e+02
-3.382840470900000014e+02
-3.382560709499999803e+02
-3.382259416100000067e+02
-3.384835463300000242e+02
-3.384810674600000198e+02
-3.384737850899999785e+02
-3.384618669100000261e+02
-3.384456017200000133e+02
-3.384253848700000162e+02
-3.384016966699999784e+02
-3.383750881299999946e+02
-3.383461491400000227e+02
-3.383154948000000104e+02
-3.378393950899999822e+02
-3.378394374900000230e+02
-3.378374846899999966e+02
-3.378335869800000069e+02
-3.378278591999999776e+02
-3.378204847800000152e+02
-3.378117031200000042e+02
-3.378017994200000089e+02
-3.377910946299999750e+02
-3.377799413000000186e+02
-3.373515789100000006e+02
-3.373453406099999938e+02
-3.373393824500000164e+02
-3.373339787599999795e+02
-3.373294497100000058e+02
-3.373261440399999742e+02
-3.373244229599999926e+02
-3.373246391399999879e+02
-3.373271152199999960e+02
-3.373321205199999895e+02
-3.376646811100000036e+02
-3.376653053100000079e+02
-3.376631408999999735e+02
-3.376583179400000176e+02
-3.376510660100000223e+02
-3.376417100200000050e+02
-3.376306586499999867e+02
-3.376183746300000053e+02
-3.376053752600000166e+02
-3.375922005300000137e+02
-3.379736224299999776e+02
-3.379772286099999974e+02
-3.379761788600000045e+02
-3.379705698000000211e+02
-3.379606236899999772e+02
-3.379466704100000243e+02
-3.379291392000000087e+02
-3.379085327099999745e+02
-3.378854050599999823e+02
-3.378603487500000142e+02
-3.379790282100000240e+02
-3.379806776099999865e+02
-3.379798716799999738e+02
-3.379766746299999909e+02
-3.379712294400000019e+02
-3.379637427999999773e+02
-3.379544828300000177e+02
-3.379437686499999813e+02
-3.379319535000000201e+02
-3.379194224400000053e+02
-3.382563965699999926e+02
-3.382593507199999863e+02
-3.382587993099999721e+02
-3.382548695400000156e+02
-3.382478139099999908e+02
-3.382379966400000058e+02
-3.382258754499999895e+02
-3.382119753700000047e+02
-3.381968659099999854e+02
-3.381811344299999860e+02
-3.376702954799999929e+02
-3.376667385399999830e+02
-3.376585333900000023e+02
-3.376458523000000014e+02
-3.376289840200000185e+02
-3.376083157599999822e+02
-3.375843240500000206e+02
-3.375575419499999725e+02
-3.375285471299999926e+02
-3.374979376300000240e+02
-3.377399298899999849e+02
-3.377393252100000041e+02
-3.377362676199999783e+02
-3.377309426499999745e+02
-3.377236129899999924e+02
-3.377146078999999759e+02
-3.377043055299999992e+02
-3.376931144299999801e+02
-3.376814622599999893e+02
-3.376697659899999735e+02
-3.381073642000000063e+02
-3.381023341299999743e+02
-3.380935187499999870e+02
-3.380813411400000064e+02
-3.380663327199999912e+02
-3.380491051500000026e+02
-3.380303187900000239e+02
-3.380106614100000115e+02
-3.379908230699999763e+02
-3.379714636200000086e+02
-3.380669152199999985e+02
-3.380718015900000069e+02
-3.380740503100000183e+02
-3.380737118499999951e+02
-3.380709262999999964e+02
-3.380659074000000146e+02
-3.380589357299999733e+02
-3.380503369799999973e+02
-3.380404755499999965e+02
-3.380297278300000130e+02
-3.381934303300000124e+02
-3.381928205699999808e+02
-3.381874443599999722e+02
-3.381775141599999870e+02
-3.381633704600000101e+02
-3.381454759800000147e+02
-3.381243948900000191e+02
-3.381007547099999897e+02
-3.380752292799999736e+02
-3.380485009700000205e+02
-3.379239594100000090e+02
-3.379267864400000008e+02
-3.379246368500000131e+02
-3.379177435600000194e+02
-3.379065000400000258e+02
-3.378914306899999929e+02
-3.378731654700000036e+02
-3.378524117200000205e+02
-3.378299088900000129e+02
-3.378064052500000116e+02
-3.377531802799999809e+02
-3.377431472000000099e+02
-3.377307239099999947e+02
-3.377161413000000039e+02
-3.376997146100000009e+02
-3.376818321200000241e+02
-3.376629392799999891e+02
-3.376435297099999957e+02
-3.376241274600000111e+02
-3.376052730200000269e+02
-3.356263637900000276e+02
-3.356499991200000181e+02
-3.356861407000000099e+02
-3.357341221500000188e+02
-3.357930867599999942e+02
-3.358619773300000020e+02
-3.359395347700000229e+02
-3.360243110800000181e+02
-3.361146977899999797e+02
-3.362089783600000032e+02
-3.357965050999999903e+02
-3.357977695600000061e+02
-3.358087886999999796e+02
-3.358295381899999938e+02
-3.358598949899999866e+02
-3.358996112400000129e+02
-3.359482889399999976e+02
-3.360053517000000056e+02
-3.360700165900000229e+02
-3.361412886100000037e+02
-3.363069424199999844e+02
-3.363094603399999869e+02
-3.363172992799999861e+02
-3.363303883400000132e+02
-3.363486075899999719e+02
-3.363717907700000183e+02
-3.363997188199999755e+02
-3.364321224899999834e+02
-3.364686778199999821e+02
-3.365090145500000176e+02
-3.371513168999999834e+02
-3.371542199200000027e+02
-3.371575297900000123e+02
-3.371612160600000152e+02
-3.371652900199999863e+02
-3.371698092799999813e+02
-3.371748744899999792e+02
-3.371806193799999960e+02
-3.371872119799999723e+02
-3.371948358299999882e+02
-3.380564694000000259e+02
-3.380566384499999799e+02
-3.380537590700000123e+02
-3.380479931099999931e+02
-3.380396370799999772e+02
-3.380291000000000281e+02
-3.380168889000000263e+02
-3.380035732599999960e+02
-3.379897578900000212e+02
-3.379760544100000175e+02
-3.369442752300000166e+02
-3.369559416600000077e+02
-3.369689048600000092e+02
-3.369830614800000035e+02
-3.369983464499999855e+02
-3.370147316599999954e+02
-3.370322288799999910e+02
-3.370508813000000146e+02
-3.370707630699999982e+02
-3.370919666799999845e+02
-3.372315090399999917e+02
-3.372381559599999719e+02
-3.372464046800000119e+02
-3.372562453300000129e+02
-3.372676954500000193e+02
-3.372807863200000043e+02
-3.372955578899999978e+02
-3.373120379999999727e+02
-3.373302314800000090e+02
-3.373501065300000050e+02
-3.385398445000000152e+02
-3.385373422200000277e+02
-3.385299864200000002e+02
-3.385179540500000144e+02
-3.385015506600000208e+02
-3.384811836200000243e+02
-3.384573509400000262e+02
-3.384306113600000003e+02
-3.384015688800000135e+02
-3.383708479499999839e+02
-3.371898960099999840e+02
-3.371955945500000098e+02
-3.372017785799999956e+02
-3.372084444500000018e+02
-3.372156246800000190e+02
-3.372233873100000210e+02
-3.372318295200000193e+02
-3.372410778899999855e+02
-3.372512781699999778e+02
-3.372625864600000227e+02
-3.370486950600000000e+02
-3.370647489500000233e+02
-3.370827854799999841e+02
-3.371025891499999716e+02
-3.371239549200000170e+02
-3.371466918500000247e+02
-3.371706214600000067e+02
-3.371955875500000275e+02
-3.372214512200000058e+02
-3.372480893000000037e+02
-3.382718431800000189e+02
-3.382669444300000237e+02
-3.382575377000000003e+02
-3.382437917600000219e+02
-3.382259905500000059e+02
-3.382045219099999827e+02
-3.381798536700000000e+02
-3.381525180500000261e+02
-3.381230929600000081e+02
-3.380921806700000047e+02
-3.380745877300000188e+02
-3.380798259700000017e+02
-3.380808416200000011e+02
-3.380777167400000280e+02
-3.380706597000000215e+02
-3.380600011899999799e+02
-3.380461859600000025e+02
-3.380297520299999974e+02
-3.380113113200000043e+02
-3.379915252299999793e+02
-3.373367766700000061e+02
-3.373273953500000175e+02
-3.373167407400000002e+02
-3.373049839600000155e+02
-3.372923332500000129e+02
-3.372790176199999905e+02
-3.372652959700000110e+02
-3.372514367300000231e+02
-3.372377227399999811e+02
-3.372244325500000173e+02
-3.376771122299999774e+02
-3.376761031899999921e+02
-3.376749096099999861e+02
-3.376735531799999990e+02
-3.376720909900000152e+02
-3.376706061599999771e+02
-3.376692053099999953e+02
-3.376680079199999795e+02
-3.376671468900000264e+02
-3.376667655900000113e+02
-3.377760645500000010e+02
-3.377803833699999814e+02
-3.377809942700000079e+02
-3.377780025199999727e+02
-3.377716230300000007e+02
-3.377621676300000217e+02
-3.377500383700000270e+02
-3.377357037799999944e+02
-3.377196856499999740e+02
-3.377025310299999887e+02
-3.381129434399999809e+02
-3.381181526899999881e+02
-3.381187115000000176e+02
-3.381146789200000171e+02
-3.381062665700000025e+02
-3.380938198800000123e+02
-3.380777993099999890e+02
-3.380587530799999740e+02
-3.380372879199999829e+02
-3.380140446400000087e+02
-3.381232128099999841e+02
-3.381255120299999817e+02
-3.381244675400000119e+02
-3.381201754800000003e+02
-3.381128221199999757e+02
-3.381026771800000006e+02
-3.380900850400000195e+02
-3.380754462599999783e+02
-3.380592101699999716e+02
-3.380418499400000201e+02
-3.376103519800000186e+02
-3.376160489299999767e+02
-3.376212012500000128e+02
-3.376257955599999718e+02
-3.376298924499999998e+02
-3.376336067899999875e+02
-3.376371037600000022e+02
-3.376405784599999720e+02
-3.376442425500000013e+02
-3.376483031700000197e+02
-3.375710530299999732e+02
-3.375692526299999940e+02
-3.375678453599999784e+02
-3.375668327000000204e+02
-3.375662440599999741e+02
-3.375661359700000048e+02
-3.375666024600000128e+02
-3.375677599699999973e+02
-3.375697511700000177e+02
-3.375727409699999839e+02
-3.359708588099999815e+02
-3.359772001499999874e+02
-3.359896396400000071e+02
-3.360080419600000141e+02
-3.360322027199999866e+02
-3.360618438199999787e+02
-3.360966273199999819e+02
-3.361361379699999929e+02
-3.361799085499999933e+02
-3.362274031700000023e+02
-3.378934093299999972e+02
-3.378923286300000086e+02
-3.378864535999999816e+02
-3.378759601799999928e+02
-3.378611546000000203e+02
-3.378424595700000168e+02
-3.378203923500000201e+02
-3.377955462099999977e+02
-3.377685622899999771e+02
-3.377401162599999793e+02
-3.379364936599999965e+02
-3.379349142300000040e+02
-3.379322725299999775e+02
-3.379286635999999930e+02
-3.379242317599999978e+02
-3.379191617299999848e+02
-3.379136720700000183e+02
-3.379080096100000219e+02
-3.379024405800000181e+02
-3.378972422699999925e+02
-3.377307163300000070e+02
-3.377360842300000172e+02
-3.377388869000000113e+02
-3.377391494199999897e+02
-3.377369832300000212e+02
-3.377325852999999825e+02
-3.377262280599999826e+02
-3.377182530900000188e+02
-3.377090571900000100e+02
-3.376990787899999873e+02
-3.382164561100000242e+02
-3.382145907799999804e+02
-3.382098552499999755e+02
-3.382024265000000014e+02
-3.381925476999999773e+02
-3.381805248100000085e+02
-3.381667075799999793e+02
-3.381514868500000262e+02
-3.381352763599999776e+02
-3.381185012799999754e+02
-3.369535791700000118e+02
-3.369627877500000181e+02
-3.369755514999999946e+02
-3.369918616599999837e+02
-3.370117154100000221e+02
-3.370351033000000029e+02
-3.370620000900000264e+02
-3.370923357400000100e+02
-3.371259881099999802e+02
-3.371627599799999757e+02
-3.369262229500000103e+02
-3.369221401699999774e+02
-3.369205652200000145e+02
-3.369215184899999826e+02
-3.369250147899999774e+02
-3.369310568999999873e+02
-3.369396475199999941e+02
-3.369507755299999872e+02
-3.369644190500000036e+02
-3.369805459899999960e+02
-3.375353020700000002e+02
-3.375373716199999876e+02
-3.375392502299999933e+02
-3.375409972499999753e+02
-3.375427013500000157e+02
-3.375444736700000021e+02
-3.375464458600000057e+02
-3.375487603099999774e+02
-3.375515710299999910e+02
-3.375550296299999786e+02
-3.372929453699999840e+02
-3.372911393800000042e+02
-3.372862612100000206e+02
-3.372784995900000240e+02
-3.372681474999999978e+02
-3.372556008799999745e+02
-3.372413253600000189e+02
-3.372258636199999842e+02
-3.372097893399999862e+02
-3.371937063099999818e+02
-3.377281843200000253e+02
-3.377332872800000132e+02
-3.377355075199999987e+02
-3.377348634400000265e+02
-3.377314709699999753e+02
-3.377255475499999875e+02
-3.377173972699999922e+02
-3.377074022099999979e+02
-3.376959961100000100e+02
-3.376836555500000259e+02
-3.363978307099999938e+02
-3.364120473899999979e+02
-3.364313403500000277e+02
-3.364555352400000174e+02
-3.364844183899999734e+02
-3.365177248900000109e+02
-3.365551560000000109e+02
-3.365963656499999956e+02
-3.366409783600000196e+02
-3.366885861800000157e+02
-3.376377360500000009e+02
-3.376350029800000243e+02
-3.376288640500000042e+02
-3.376195756700000175e+02
-3.376075108699999987e+02
-3.375931414300000029e+02
-3.375770100600000205e+02
-3.375597049599999764e+02
-3.375418265399999882e+02
-3.375239585900000066e+02
-3.380516186400000151e+02
-3.380525548900000103e+02
-3.380491254899999944e+02
-3.380414810500000158e+02
-3.380299131699999862e+02
-3.380148446800000102e+02
-3.379967960500000004e+02
-3.379763704200000234e+02
-3.379542211899999984e+02
-3.379310232299999939e+02
-3.376835430900000006e+02
-3.376890833100000009e+02
-3.376920808799999918e+02
-3.376925608299999908e+02
-3.376906688099999769e+02
-3.376866637900000114e+02
-3.376808931799999982e+02
-3.376737781799999993e+02
-3.376657837999999856e+02
-3.376573889000000008e+02
-3.381998367300000155e+02
-3.381963616799999954e+02
-3.381886178600000221e+02
-3.381768471899999895e+02
-3.381614235900000267e+02
-3.381428461099999936e+02
-3.381217063199999870e+02
-3.380986599899999874e+02
-3.380743991300000175e+02
-3.380496261499999946e+02
-3.378469910499999855e+02
-3.378501661600000148e+02
-3.378506043200000022e+02
-3.378484267800000111e+02
-3.378438536099999965e+02
-3.378371865600000206e+02
-3.378287933700000281e+02
-3.378190971099999729e+02
-3.378085459199999718e+02
-3.377976000200000044e+02
-3.376303509900000108e+02
-3.376286462699999902e+02
-3.376272621300000196e+02
-3.376262889800000266e+02
-3.376258392799999797e+02
-3.376260517200000209e+02
-3.376270736499999998e+02
-3.376290678099999809e+02
-3.376322038999999791e+02
-3.376366457600000217e+02
-3.373771972000000119e+02
-3.373871944800000051e+02
-3.373969129700000167e+02
-3.374062189300000227e+02
-3.374150031199999944e+02
-3.374231927299999825e+02
-3.374307446400000003e+02
-3.374376550599999973e+02
-3.374439446299999759e+02
-3.374496715899999799e+02
-3.382118551699999784e+02
-3.382190350600000102e+02
-3.382224593799999752e+02