-1.872869434172668601e+00 5.717648631287293171e-01 -2.936671424526570567e-02 5.717648631287293171e-01 -5.944589680411728194e-01 2.301182238121784351e+00 -2.936671424526570567e-02 2.301182238121784351e+00 -7.609306252714167496e-01
-1.522421822058599217e+00 6.734453029077495101e-01 1.219875950114300833e-01 6.734453029077495101e-01 -6.771523080926508120e-01 2.270097643424978884e+00 1.219875950114300833e-01 2.270097643424978884e+00 -4.027796755536011686e-01
-1.161648844283170279e+00 7.747640836443405732e-01 2.758011857566456393e-01 7.747640836443405732e-01 -7.484714712597245745e-01 2.245685658060995848e+00 2.758011857566456393e-01 2.245685658060995848e+00 -2.661810552280241202e-02
-7.925396255797446665e-01 8.752872144875869509e-01 4.320378920861380201e-01 8.752872144875869509e-01 -8.080547984999649769e-01 2.227656954795891320e+00 4.320378920861380201e-01 2.227656954795891320e+00 3.646246465773015366e-01
-4.182044337132142520e-01 9.742371284962654254e-01 5.902818061011134709e-01 9.742371284962654254e-01 -8.559384557176149544e-01 2.215812621156329154e+00 5.902818061011134709e-01 2.215812621156329154e+00 7.673500732745383024e-01
-4.162695578362170246e-02 1.070854341681274358e+00 7.499181074294422045e-01 1.070854341681274358e+00 -8.920681940563101042e-01 2.209610168578664879e+00 7.499181074294422045e-01 2.209610168578664879e+00 1.178285160234921802e+00
3.337570473059539022e-01 1.164433618909876511e+00 9.104585563638440959e-01 1.164433618909876511e+00 -9.168780043669657598e-01 2.208579440307741226e+00 9.104585563638440959e-01 2.208579440307741226e+00 1.593361243231122160e+00
7.047468930300124779e-01 1.254233559145091936e+00 1.071306415484311048e+00 1.254233559145091936e+00 -9.308561263568611022e-01 2.212123698923549320e+00 1.071306415484311048e+00 2.212123698923549320e+00 2.008690487557022397e+00
1.067924903437596607e+00 1.339548927254182731e+00 1.231919196227199143e+00 1.339548927254182731e+00 -9.347077951587341449e-01 2.219555792245472947e+00 1.231919196227199143e+00 2.219555792245472947e+00 2.420095731272564610e+00
1.420054230098962922e+00 1.419728736960776505e+00 1.391772492980985376e+00 1.419728736960776505e+00 -9.292829095222934210e-01 2.230188568092896784e+00 1.391772492980985376e+00 2.230188568092896784e+00 2.823490227198295788e+00
4.325882146957628294e+01 -9.399072821119206500e-01 9.333458579481909823e+00 -9.399072821119206500e-01 -5.524310597710536008e+00 2.640585809552243290e+01 9.333458579481909823e+00 2.640585809552243290e+01 4.865480920662901809e+01
4.316112211031602897e+01 -8.041530714887558107e-01 9.288078037157887934e+00 -8.041530714887558107e-01 -5.484776520288171753e+00 2.631699887295082974e+01 9.288078037157887934e+00 2.631699887295082974e+01 4.857570583211621340e+01
4.295720023211960381e+01 -6.713749228185440510e-01 9.217304114146537941e+00 -6.713749228185440510e-01 -5.488245657594276850e+00 2.618240691137438247e+01 9.217304114146537941e+00 2.618240691137438247e+01 4.829106047467518437e+01
4.264872876922091649e+01 -5.429816228245767373e-01 9.120890272771283946e+00 -5.429816228245767373e-01 -5.535387183322414195e+00 2.600151869610376920e+01 9.120890272771283946e+00 2.600151869610376920e+01 4.780256367837390030e+01
4.223810265904956651e+01 -4.203819582301451807e-01 8.998995001538498073e+00 -4.203819582301451807e-01 -5.627469005523547452e+00 2.577438705664111751e+01 8.998995001538498073e+00 2.577438705664111751e+01 4.711310345599510896e+01
4.172838601272870562e+01 -3.049318862564173171e-01 8.852058546299208075e+00 -3.049318862564173171e-01 -5.765935130589047830e+00 2.550143462900341618e+01 8.852058546299208075e+00 2.550143462900341618e+01 4.622695899721079371e+01
4.112345299374739227e+01 -1.977936559501085323e-01 8.680890959419306441e+00 -1.977936559501085323e-01 -5.952264784578372492e+00 2.518347146555655414e+01 8.680890959419306441e+00 2.518347146555655414e+01 4.514974783908009215e+01
4.042821674580309832e+01 -1.000590770217696518e-01 8.486584050609344843e+00 -1.000590770217696518e-01 -6.187831534546731405e+00 2.482180069401957567e+01 8.486584050609344843e+00 2.482180069401957567e+01 4.388853152505348731e+01
3.964834763545707830e+01 -1.246776250112863541e-02 8.270634655762817644e+00 -1.246776250112863541e-02 -6.473938508213167076e+00 2.441814807812851384e+01 8.270634655762817644e+00 2.441814807812851384e+01 4.245188604430902757e+01
3.879032608163647211e+01 6.432872375229223283e-02 8.034838977951924477e+00 6.432872375229223283e-02 -6.811448587445697811e+00 2.397476767664063857e+01 8.034838977951924477e+00 2.397476767664063857e+01 4.084977856291400400e+01
-4.024725877029333709e+00 1.287505671617540060e+01 -1.348267925475993056e+00 1.287505671617540060e+01 -4.741974107119319548e+00 -1.077414717460749749e+01 -1.348267925475993056e+00 -1.077414717460749749e+01 2.972366141127235295e+01
-4.142541475387425010e+00 1.286316872362939279e+01 -1.608739434386186717e+00 1.286316872362939279e+01 -4.808990635660172153e+00 -1.062808180944053049e+01 -1.608739434386186717e+00 -1.062808180944053049e+01 2.946717661913404029e+01
-4.298618731090104284e+00 1.283473856239644917e+01 -1.862337915739431526e+00 1.283473856239644917e+01 -4.908333844993811645e+00 -1.045057369615870257e+01 -1.862337915739431526e+00 -1.045057369615870257e+01 2.909603313105880673e+01
-4.492127829786666027e+00 1.279010898188229994e+01 -2.108359831281866548e+00 1.279010898188229994e+01 -5.039246078539159512e+00 -1.024176715030126950e+01 -2.108359831281866548e+00 -1.024176715030126950e+01 2.861133135303345654e+01
-4.723014653149887998e+00 1.272973096814710736e+01 -2.345813011681124216e+00 1.272973096814710736e+01 -5.201799494065841856e+00 -1.000216727625561397e+01 -2.345813011681124216e+00 -1.000216727625561397e+01 2.801498346595310807e+01
-4.991279201179771974e+00 1.265429002000233005e+01 -2.573849603144089393e+00 1.265429002000233005e+01 -5.396408998749210539e+00 -9.732441533390788990e+00 -2.573849603144089393e+00 -9.732441533390788990e+00 2.730872125628879488e+01
-5.296885394991503127e+00 1.256459791235626966e+01 -2.791856264628934881e+00 1.256459791235626966e+01 -5.623561657534247971e+00 -9.433239341633433028e+00 -2.791856264628934881e+00 -9.433239341633433028e+00 2.649452906270526142e+01
-5.640031668451555902e+00 1.246168289342610436e+01 -2.999345931190680936e+00 1.246168289342610436e+01 -5.884051205886848379e+00 -9.105372475891847728e+00 -2.999345931190680936e+00 -9.105372475891847728e+00 2.557453553940649016e+01
-6.020808218771962927e+00 1.234659125087142328e+01 -3.196120168962853114e+00 1.234659125087142328e+01 -6.178581182060872479e+00 -8.749616632189518128e+00 -3.196120168962853114e+00 -8.749616632189518128e+00 2.455092345892369110e+01
-6.439251124837539031e+00 1.222062182454551049e+01 -3.382160938503044445e+00 1.222062182454551049e+01 -6.508053558176654541e+00 -8.366783585434747650e+00 -3.382160938503044445e+00 -8.366783585434747650e+00 2.342609206709695613e+01
-9.655543145786991133e+00 9.404852252081933983e+00 1.117171963543743551e+01 9.404852252081933983e+00 2.688248195959464848e+00 1.374439994731175751e+01 1.117171963543743551e+01 1.374439994731175751e+01 -6.380350401248538361e+00
-9.482418493515396563e+00 9.361198523889997958e+00 1.115316407486958994e+01 9.361198523889997958e+00 2.733246793379627615e+00 1.366401675006241234e+01 1.115316407486958994e+01 1.366401675006241234e+01 -6.090603778199404239e+00
-9.286849064259188324e+00 9.311147579909736294e+00 1.111205469386619349e+01 9.311147579909736294e+00 2.791912169983943315e+00 1.356689538309417742e+01 1.111205469386619349e+01 1.356689538309417742e+01 -5.768725684940720022e+00
-9.069398249181544358e+00 9.254663072324168738e+00 1.104826427506782061e+01 9.254663072324168738e+00 2.864262499680901186e+00 1.345332662894288411e+01 1.104826427506782061e+01 1.345332662894288411e+01 -5.415479425629047050e+00
-8.831738047863503027e+00 9.192017609760638308e+00 1.096181099238296142e+01 9.192017609760638308e+00 2.949970652117689163e+00 1.332363761796135115e+01 1.096181099238296142e+01 1.332363761796135115e+01 -5.032591521570893178e+00
-8.576122024957772538e+00 9.123465626937999673e+00 1.085273119362859084e+01 9.123465626937999673e+00 3.048146105778319459e+00 1.317813730659389293e+01 1.085273119362859084e+01 1.317813730659389293e+01 -4.622679015588755824e+00
-8.304658353849140084e+00 9.049243384666617374e+00 1.072107940053018460e+01 9.049243384666617374e+00 3.157825643512843339e+00 1.301711647737634792e+01 1.072107940053018460e+01 1.301711647737634792e+01 -4.188268080962685325e+00
-8.019927729543129047e+00 8.969696187207791382e+00 1.056694648263018443e+01 8.969696187207791382e+00 3.277937004720377967e+00 1.284075686939360850e+01 1.056694648263018443e+01 1.284075686939360850e+01 -3.732411934318928814e+00
-7.724510847045249484e+00 8.885060295371886241e+00 1.039035061383708047e+01 8.885060295371886241e+00 3.407117146264205587e+00 1.264918570000510556e+01 1.039035061383708047e+01 1.264918570000510556e+01 -3.258163792283731208e+00
-7.421042923086495158e+00 8.795735535145675854e+00 1.019138266369332513e+01 8.795735535145675854e+00 3.544003025007608887e+00 1.244243931702781580e+01 1.019138266369332513e+01 1.244243931702781580e+01 -2.768595045391831544e+00
1.279696046275631183e+01 1.491889839913471683e+00 -1.881524609664116809e+01 1.491889839913471683e+00 -1.325840185319224673e+01 1.474621627967657034e+01 -1.881524609664116809e+01 1.474621627967657034e+01 1.589266974946261080e+01
1.280155882746619156e+01 1.546078412278940384e+00 -1.874040996508819035e+01 1.546078412278940384e+00 -1.310528532475457730e+01 1.484923768198070171e+01 -1.874040996508819035e+01 1.484923768198070171e+01 1.609946993178780161e+01
1.277519486979620389e+01 1.603116167484257781e+00 -1.861980658006979894e+01 1.603116167484257781e+00 -1.295298027244218098e+01 1.492712135720415212e+01 -1.861980658006979894e+01 1.492712135720415212e+01 1.624894383406313381e+01
1.271799481936583298e+01 1.663093269543342689e+00 -1.845412118809178637e+01 1.663093269543342689e+00 -1.280233423798589953e+01 1.497956074769958512e+01 -1.845412118809178637e+01 1.497956074769958512e+01 1.633923407760187274e+01
1.262972424973888685e+01 1.725811357625572695e+00 -1.824434559330726202e+01 1.725811357625572695e+00 -1.265486197681957492e+01 1.500635749263638807e+01 -1.824434559330726202e+01 1.500635749263638807e+01 1.636891607098408485e+01
1.251020283288753099e+01 1.791090103703109504e+00 -1.799152569827768744e+01 1.791090103703109504e+00 -1.251233070361602451e+01 1.500742142800063661e+01 -1.799152569827768744e+01 1.500742142800063661e+01 1.633714227247894257e+01
1.235925024078392376e+01 1.858586884523059535e+00 -1.769681560238122842e+01 1.858586884523059535e+00 -1.237713878114550070e+01 1.498289681621460012e+01 -1.769681560238122842e+01 1.498289681621460012e+01 1.624256022187764970e+01
1.217655991578073760e+01 1.928013175240881782e+00 -1.736145956900996978e+01 1.928013175240881782e+00 -1.225164850657268900e+01 1.493305414932003750e+01 -1.736145956900996978e+01 1.493305414932003750e+01 1.608387155737977281e+01
1.196196956265292499e+01 1.998918155786979733e+00 -1.698666579595043302e+01 1.998918155786979733e+00 -1.213858283311795105e+01 1.485832621458376401e+01 -1.698666579595043302e+01 1.485832621458376401e+01 1.585963365476259668e+01
1.171551524700604752e+01 2.070778874880621512e+00 -1.657364248098913606e+01 2.070778874880621512e+00 -1.204062864839607805e+01 1.475919989768093998e+01 -1.657364248098913606e+01 1.475919989768093998e+01 1.556865634904239748e+01
3.686319814002565209e+01 -1.737818262438777683e+00 8.468264337988250290e+00 -1.737818262438777683e+00 3.933508664503779784e+01 2.797903066455540255e+01 8.468264337988250290e+00 2.797903066455540255e+01 5.792718934908137385e+01
3.698594481966244985e+01 -1.740021540379250053e+00 8.386088956052189403e+00 -1.740021540379250053e+00 3.916546866983923536e+01 2.783345940250402961e+01 8.386088956052189403e+00 2.783345940250402961e+01 5.785831970033270011e+01
3.701696284191816488e+01 -1.740210884577259698e+00 8.281209483463916499e+00 -1.740210884577259698e+00 3.890364007021011616e+01 2.763175619229733471e+01 8.281209483463916499e+00 2.763175619229733471e+01 5.755285586961687727e+01
3.695477187942654496e+01 -1.738420721250625745e+00 8.154193952817458069e+00 -1.738420721250625745e+00 3.855220002559583747e+01 2.737545300062830833e+01 8.154193952817458069e+00 2.737545300062830833e+01 5.701172736481505154e+01
3.679777111305897108e+01 -1.734874820815177854e+00 8.005851380231582937e+00 -1.734874820815177854e+00 3.811364443678834846e+01 2.706654654813049632e+01 8.005851380231582937e+00 2.706654654813049632e+01 5.623694811966967677e+01
3.654461792032046219e+01 -1.729659248815465622e+00 7.837335044003256534e+00 -1.729659248815465622e+00 3.759091674541124917e+01 2.670730896518001884e+01 7.837335044003256534e+00 2.670730896518001884e+01 5.523184026420037895e+01
3.619452049820116457e+01 -1.722825644578218851e+00 7.649970353518544819e+00 -1.722825644578218851e+00 3.698733908148415850e+01 2.630049434920246298e+01 7.649970353518544819e+00 2.630049434920246298e+01 5.400084478050591485e+01
3.574770261711690011e+01 -1.714528926083626947e+00 7.445272062361520504e+00 -1.714528926083626947e+00 3.630669832896725069e+01 2.584913220736597950e+01 7.445272062361520504e+00 2.584913220736597950e+01 5.255048543686316265e+01
3.520495608007753674e+01 -1.704786306440600141e+00 7.225047546967728884e+00 -1.704786306440600141e+00 3.555333219130584865e+01 2.535669958767037357e+01 7.225047546967728884e+00 2.535669958767037357e+01 5.088868026337068073e+01
3.456719318185530199e+01 -1.693718277411507822e+00 6.991310741079634461e+00 -1.693718277411507822e+00 3.473107919178684710e+01 2.482741370179858365e+01 6.991310741079634461e+00 2.482741370179858365e+01 4.902401860137455003e+01
-3.652062897453502899e+01 6.083022158454379991e+00 9.714333316141543051e+00 6.083022158454379991e+00 -1.460461704087586021e+01 -6.326641744077070584e+00 9.714333316141543051e+00 -6.326641744077070584e+00 -2.982929711403760464e+01
-3.656395534318498619e+01 6.024779541072662781e+00 9.854905391705193196e+00 6.024779541072662781e+00 -1.458292578330985378e+01 -6.362556777096195049e+00 9.854905391705193196e+00 -6.362556777096195049e+00 -2.986856222048581699e+01
-3.655334365807720332e+01 5.963561160142201167e+00 9.979962322728534119e+00 5.963561160142201167e+00 -1.452477674339822400e+01 -6.380598513328835431e+00 9.979962322728534119e+00 -6.380598513328835431e+00 -2.979265217675180821e+01
-3.648853190229542776e+01 5.899666463567270647e+00 1.009002814304404616e+01 5.899666463567270647e+00 -1.443024478311703618e+01 -6.381047685185249563e+00 1.009002814304404616e+01 -6.381047685185249563e+00 -2.960310165334498222e+01
-3.637023126461231470e+01 5.833413614746166154e+00 1.018514028363976998e+01 5.833413614746166154e+00 -1.430028439266117246e+01 -6.363960439147490433e+00 1.018514028363976998e+01 -6.363960439147490433e+00 -2.930138917429271217e+01
-3.619937751972874196e+01 5.765195639053247945e+00 1.026533617550373378e+01 5.765195639053247945e+00 -1.413601850167167129e+01 -6.329392921697608365e+00 1.026533617550373378e+01 -6.329392921697608365e+00 -2.888979802986510137e+01
-3.597703745080367810e+01 5.695405561862880717e+00 1.033069068061201179e+01 5.695405561862880717e+00 -1.393883205670580594e+01 -6.277551003269794094e+00 1.033069068061201179e+01 -6.277551003269794094e+00 -2.837076123428439445e+01
-3.570444628044226221e+01 5.624548701513529814e+00 1.038116636797656511e+01 5.624548701513529814e+00 -1.371037202123709697e+01 -6.208546976828151820e+00 1.038116636797656511e+01 -6.208546976828151820e+00 -2.774762886097967751e+01
-3.538278308476758838e+01 5.552999367885539606e+00 1.041676323759739553e+01 5.552999367885539606e+00 -1.345211691929290687e+01 -6.122530566324819290e+00 1.041676323759739553e+01 -6.122530566324819290e+00 -2.702285263966721729e+01
-3.501341409484292200e+01 5.481169301847290676e+00 1.043742514299245094e+01 5.481169301847290676e+00 -1.316593830027496281e+01 -6.019595349229881265e+00 1.043742514299245094e+01 -6.019595349229881265e+00 -2.619991365223421909e+01
2.913927727826569125e+01 -3.261566938730648069e+00 1.441460056391152200e+01 -3.261566938730648069e+00 -7.242567145415880425e+00 1.787048451720734477e+01 1.441460056391152200e+01 1.787048451720734477e+01 -4.854396886677998069e+00
2.888558512283191249e+01 -3.300057791740193203e+00 1.464307395664756761e+01 -3.300057791740193203e+00 -7.338373368193012780e+00 1.792670731273873486e+01 1.464307395664756761e+01 1.792670731273873486e+01 -5.314245262744570653e+00
2.863226909951222865e+01 -3.336685895232291532e+00 1.483860892282030264e+01 -3.336685895232291532e+00 -7.410787755683748479e+00 1.796014724878751423e+01 1.483860892282030264e+01 1.796014724878751423e+01 -5.750612248259483472e+00
2.838131733519546174e+01 -3.371576626578310254e+00 1.500220848140065755e+01 -3.371576626578310254e+00 -7.458789377864102121e+00 1.797076850324756947e+01 1.500220848140065755e+01 1.797076850324756947e+01 -6.160739541052674184e+00
2.813351791621590792e+01 -3.404604608406882615e+00 1.513437414187410290e+01 -3.404604608406882615e+00 -7.482772277901227120e+00 1.795832032137617063e+01 1.513437414187410290e+01 1.795832032137617063e+01 -6.543534566887946546e+00
2.788930070784682869e+01 -3.435698196505798219e+00 1.523573279109747070e+01 -3.435698196505798219e+00 -7.483632008447740347e+00 1.792264150369584996e+01 1.523573279109747070e+01 1.792264150369584996e+01 -6.898513727332886702e+00
2.764918513062674421e+01 -3.464732013503691643e+00 1.530710833751116873e+01 -3.464732013503691643e+00 -7.462264122156262225e+00 1.786344547335776412e+01 1.530710833751116873e+01 1.786344547335776412e+01 -7.225444178697813413e+00
2.741327865087396631e+01 -3.491562770976143426e+00 1.534925304534339929e+01 -3.491562770976143426e+00 -7.419868659581300818e+00 1.778048147561917958e+01 1.534925304534339929e+01 1.778048147561917958e+01 -7.524845341521245956e+00
2.718181411227817534e+01 -3.516011358392629571e+00 1.536306246724677571e+01 -3.516011358392629571e+00 -7.357556106012101971e+00 1.767344502257821048e+01 1.536306246724677571e+01 1.767344502257821048e+01 -7.796985881598971879e+00
2.695479151483937486e+01 -3.537916576275679681e+00 1.534928886744950205e+01 -3.537916576275679681e+00 -7.276741434639804496e+00 1.754192416001465205e+01 1.534928886744950205e+01 1.754192416001465205e+01 -8.042689707371396324e+00
-3.389427753035965196e+01 2.115587801204819041e+00 -1.609207469613631858e+01 2.115587801204819041e+00 -2.513429929633435478e+01 7.215621538169617821e+00 -1.609207469613631858e+01 7.215621538169617821e+00 -4.545433906813064695e+00
-3.379226864264495589e+01 2.210876981769056115e+00 -1.595307008738766363e+01 2.210876981769056115e+00 -2.507023808816658672e+01 7.106500960387339916e+00 -1.595307008738766363e+01 7.106500960387339916e+00 -4.329171331687256874e+00
-3.367166856514730000e+01 2.304952881875570014e+00 -1.578733597686271750e+01 2.304952881875570014e+00 -2.499079621696553133e+01 6.991892621765516402e+00 -1.578733597686271750e+01 6.991892621765516402e+00 -4.079123562277165327e+00
-3.353311193687535052e+01 2.397367521047663264e+00 -1.559472303773590873e+01 2.397367521047663264e+00 -2.489644032906108251e+01 6.872020512542493798e+00 -1.559472303773590873e+01 6.872020512542493798e+00 -3.797922483883389155e+00
-3.337816668949753307e+01 2.487467594423485195e+00 -1.537530593342002128e+01 2.487467594423485195e+00 -2.478851436588333002e+01 6.747164620516209688e+00 -1.537530593342002128e+01 6.747164620516209688e+00 -3.488311976925701163e+00
-3.320838208882911147e+01 2.574506467875206095e+00 -1.512914066147464176e+01 2.574506467875206095e+00 -2.466843693227515288e+01 6.617623599337795426e+00 -1.512914066147464176e+01 6.617623599337795426e+00 -3.153129251089854090e+00
-3.302573671530882393e+01 2.657886834100562812e+00 -1.485624588775297106e+01 2.657886834100562812e+00 -2.453801861599654188e+01 6.483565441686012676e+00 -1.485624588775297106e+01 6.483565441686012676e+00 -2.796032813602211675e+00
-3.283224648108181043e+01 2.736955388237704678e+00 -1.455637895616345645e+01 2.736955388237704678e+00 -2.439916333407345661e+01 6.345158140239623989e+00 -1.455637895616345645e+01 6.345158140239623989e+00 -2.420662505835943001e+00
-3.263016995438476897e+01 2.811133488837562755e+00 -1.422927854476136389e+01 2.811133488837562755e+00 -2.425388699865103348e+01 6.202383029145432047e+00 -1.422927854476136389e+01 6.202383029145432047e+00 -2.031162147200501256e+00
-3.242161637662879770e+01 2.879879826157461409e+00 -1.387436601209762266e+01 2.879879826157461409e+00 -2.410435484869998746e+01 6.055277440109829712e+00 -1.387436601209762266e+01 6.055277440109829712e+00 -1.631414235160599802e+00
-1.834097775514862860e+01 1.179485187775639377e+00 -4.453093157709933969e+00 1.179485187775639377e+00 -3.417022603461148833e+01 -7.968544643949668771e-01 -4.453093157709933969e+00 -7.968544643949668771e-01 -4.600708290606873874e+01
-1.840162657603125851e+01 1.096715616295287576e+00 -4.349894311888268916e+00 1.096715616295287576e+00 -3.415832931827473118e+01 -6.644870502405351154e-01 -4.349894311888268916e+00 -6.644870502405351154e-01 -4.608466528369610415e+01
-1.840359996499707051e+01 1.015731491974480205e+00 -4.242222451077429568e+00 1.015731491974480205e+00 -3.407935617128099182e+01 -5.289434195601770972e-01 -4.242222451077429568e+00 -5.289434195601770972e-01 -4.599185961976104409e+01
-1.834657842097540836e+01 9.368147275226189619e-01 -4.129852045109895009e+00 9.368147275226189619e-01 -3.393328779944963003e+01 -3.898476887413571124e-01 -4.129852045109895009e+00 -3.898476887413571124e-01 -4.572956803493366351e+01
-1.823105059266257300e+01 8.601344705653448663e-01 -4.012839476527544136e+00 8.601344705653448663e-01 -3.372078199910259855e+01 -2.473126228678358129e-01 -4.012839476527544136e+00 -2.473126228678358129e-01 -4.529920009276096238e+01
-1.805786221818677006e+01 7.858598687282989381e-01 -3.891128362788498940e+00 7.858598687282989381e-01 -3.344277847927122593e+01 -1.014133986621203742e-01 -3.891128362788498940e+00 -1.014133986621203742e-01 -4.470304868327941250e+01
-1.782799059494059080e+01 7.141788638177490878e-01 -3.764681115531503419e+00 7.141788638177490878e-01 -3.310059283259938923e+01 4.779360133390884308e-02 -3.764681115531503419e+00 4.779360133390884308e-02 -4.394400811030553200e+01
-1.754292046319354625e+01 6.452230150980827750e-01 -3.633384969672798448e+00 6.452230150980827750e-01 -3.269593532952413284e+01 2.002144062171179184e-01 -3.633384969672798448e+00 2.002144062171179184e-01 -4.302610032849345600e+01
-1.720398620977014659e+01 5.791238818336874594e-01 -3.497164748489876018e+00 5.791238818336874594e-01 -3.223045985794060186e+01 3.558114276262532849e-01 -3.497164748489876018e+00 3.558114276262532849e-01 -4.195314055651042651e+01
-1.681306725273306313e+01 5.159754349276969299e-01 -3.355851304357095888e+00 5.159754349276969299e-01 -3.170636533698213100e+01 5.145658713806882112e-01 -3.355851304357095888e+00 5.145658713806882112e-01 -4.073048513583506036e+01
1.941120659375922131e+01 6.989676101318172741e+00 -1.046534841724477793e+01 6.989676101318172741e+00 2.487145531392894071e+01 -2.143745600588254518e+01 -1.046534841724477793e+01 -2.143745600588254518e+01 5.167972577621814168e+01
1.943958342784053883e+01 7.043018251203458924e+00 -1.051723848499150371e+01 7.043018251203458924e+00 2.484802955509115918e+01 -2.116822598142053025e+01 -1.051723848499150371e+01 -2.116822598142053025e+01 5.166179343655516476e+01
1.938942536168077879e+01 7.086353280808528332e+00 -1.054430319665845595e+01 7.086353280808528332e+00 2.474470428870136018e+01 -2.083645145520715758e+01 -1.054430319665845595e+01 -2.083645145520715758e+01 5.142288218734772443e+01
1.926052245569363919e+01 7.119226321029732851e+00 -1.054657754217668675e+01 7.119226321029732851e+00 2.456149700972506622e+01 -2.044304216544971808e+01 -1.054657754217668675e+01 -2.044304216544971808e+01 5.096313198832002911e+01
1.905280473001701935e+01 7.141497412142873813e+00 -1.052402653161514756e+01 7.141497412142873813e+00 2.429867014264515035e+01 -1.998943269932124522e+01 -1.052402653161514756e+01 -1.998943269932124522e+01 5.028423985112798533e+01
1.876628967961644889e+01 7.153096574285854103e+00 -1.047670264987041122e+01 7.153096574285854103e+00 2.395664356663421302e+01 -1.947740754330527935e+01 -1.047670264987041122e+01 -1.947740754330527935e+01 4.938895248535899185e+01
1.840125722394032337e+01 7.154111282286296891e+00 -1.040479834156325190e+01 7.154111282286296891e+00 2.353616956520981773e+01 -1.890925853788557376e+01 -1.040479834156325190e+01 -1.890925853788557376e+01 4.828099631866984964e+01
1.795819722202334034e+01 7.144891435454696627e+00 -1.030859352614206692e+01 7.144891435454696627e+00 2.303840280609660951e+01 -1.828752245306323587e+01 -1.030859352614206692e+01 -1.828752245306323587e+01 4.696556735582143460e+01
1.743835181641776444e+01 7.125961882756802979e+00 -1.018861305257260419e+01 7.125961882756802979e+00 2.246505779591602092e+01 -1.761559331215008228e+01 -1.018861305257260419e+01 -1.761559331215008228e+01 4.544938366357529702e+01
1.684326056408978189e+01 7.098004927848082346e+00 -1.004546924464823121e+01 7.098004927848082346e+00 2.181853134494496160e+01 -1.689695261328556342e+01 -1.004546924464823121e+01 -1.689695261328556342e+01 4.374112274483177032e+01
3.166705315721397440e+01 9.127187385187536250e+00 -1.046602626453385732e+01 9.127187385187536250e+00 2.993651170166089770e+01 2.481914158651988345e+01 -1.046602626453385732e+01 2.481914158651988345e+01 3.853206390014005223e+00
3.167901380897009389e+01 9.146373533312463167e+00 -1.056425443240195783e+01 9.146373533312463167e+00 2.974824543098350560e+01 2.480084985663478747e+01 -1.056425443240195783e+01 2.480084985663478747e+01 3.621025937522344140e+00
3.169451705846044121e+01 9.159070764795501418e+00 -1.063903481229654702e+01 9.159070764795501418e+00 2.956334638191487230e+01 2.474548361382821682e+01 -1.063903481229654702e+01 2.474548361382821682e+01 3.384881984595369264e+00
3.171349275523481737e+01 9.165173853961380956e+00 -1.069027971615489037e+01 9.165173853961380956e+00 2.938314741300847288e+01 2.465367421215182020e+01 -1.069027971615489037e+01 2.465367421215182020e+01 3.145791712760727332e+00
3.173464311596484677e+01 9.164665263197559142e+00 -1.071790145591426580e+01 9.164665263197559142e+00 2.920782390038976217e+01 2.452591270475686969e+01 -1.071790145591426580e+01 2.452591270475686969e+01 2.903176380804413537e+00
3.175640729313398580e+01 9.157597605341667446e+00 -1.072195264441230833e+01 9.157597605341667446e+00 2.903749860734655641e+01 2.436261999434446324e+01 -1.072195264441230833e+01 2.436261999434446324e+01 2.655983731973688755e+00
3.177680353652456091e+01 9.144005955618801806e+00 -1.070246835687410680e+01 9.144005955618801806e+00 2.887187339446558099e+01 2.416412929555296785e+01 -1.070246835687410680e+01 2.416412929555296785e+01 2.402460005013989264e+00
3.179285045200381177e+01 9.124188453442233282e+00 -1.065960643181257517e+01 9.124188453442233282e+00 2.870980831693136537e+01 2.393052829644510737e+01 -1.065960643181257517e+01 2.393052829644510737e+01 2.139430892054555944e+00
3.180389914790756123e+01 9.097969722686508831e+00 -1.059338440684025784e+01 9.097969722686508831e+00 2.855198734163319685e+01 2.366199237314634374e+01 -1.059338440684025784e+01 2.366199237314634374e+01 1.866913930707933877e+00
3.180696823010304897e+01 9.065665440377449258e+00 -1.050397765808260964e+01 9.065665440377449258e+00 2.839707761001760389e+01 2.335824092385594497e+01 -1.050397765808260964e+01 2.335824092385594497e+01 1.581103459051721005e+00
-7.425976618103587334e+00 -3.648648085733508406e+00 -1.839035944586152027e+01 -3.648648085733508406e+00 -2.583755711498892538e+01 1.696899422414024627e+01 -1.839035944586152027e+01 1.696899422414024627e+01 -3.314858019009023593e+01
-7.381048833505954754e+00 -3.568419898952023495e+00 -1.820194841854602075e+01 -3.568419898952023495e+00 -2.581142034847444933e+01 1.680846365109817242e+01 -1.820194841854602075e+01 1.680846365109817242e+01 -3.306759145864792515e+01
-7.289987522775247974e+00 -3.483535694856746190e+00 -1.798426569672388808e+01 -3.483535694856746190e+00 -2.572941137419446278e+01 1.663062604955502977e+01 -1.798426569672388808e+01 1.663062604955502977e+01 -3.286064911142613454e+01
-7.152644286953255381e+00 -3.394663268759614105e+00 -1.773749677909288280e+01 -3.394663268759614105e+00 -2.559160439162807066e+01 1.643600081586454564e+01 -1.773749677909288280e+01 1.643600081586454564e+01 -3.252860644243455823e+01
-6.969761120831020840e+00 -3.302655914670327153e+00 -1.746229091109517029e+01 -3.302655914670327153e+00 -2.539905674335250652e+01 1.622525574533866077e+01 -1.746229091109517029e+01 1.622525574533866077e+01 -3.207341118799967461e+01
-6.742822013990631191e+00 -3.208385476468360142e+00 -1.715926023843335457e+01 -3.208385476468360142e+00 -2.515360486647560379e+01 1.599909573302886479e+01 -1.715926023843335457e+01 1.599909573302886479e+01 -3.149817972624387608e+01
-6.473681953409690770e+00 -3.112686698293636312e+00 -1.682886850785184407e+01 -3.112686698293636312e+00 -2.485741909576115916e+01 1.575802162541911144e+01 -1.682886850785184407e+01 1.575802162541911144e+01 -3.080688172929922786e+01
-6.164678222679984998e+00 -3.016375774416302225e+00 -1.647163511570436611e+01 -3.016375774416302225e+00 -2.451302221349871857e+01 1.550247861938402671e+01 -1.647163511570436611e+01 1.550247861938402671e+01 -3.000450711213549226e+01
-5.818574752398147254e+00 -2.920287448976280675e+00 -1.608794960925622064e+01 -2.920287448976280675e+00 -2.412347494820133065e+01 1.523280061257958273e+01 -1.608794960925622064e+01 1.523280061257958273e+01 -2.909667648529482875e+01
-5.438413721207451701e+00 -2.825219366373942442e+00 -1.567816443603314980e+01 -2.825219366373942442e+00 -2.369200497721003984e+01 1.494922875331286249e+01 -1.567816443603314980e+01 1.494922875331286249e+01 -2.809004925202683367e+01
-3.495872556741604598e+01 -2.421897576653891271e+00 1.326318929772369870e+01 -2.421897576653891271e+00 -2.730223609531353546e+01 5.004121541236148829e+00 1.326318929772369870e+01 5.004121541236148829e+00 -1.386846686889252034e+01