-3.386764687200000026e+02
-3.386739781699999980e+02
-3.386664928399999894e+02
-3.386542110799999818e+02
-3.386374474099999929e+02
-3.386166178099999797e+02
-3.385922226399999886e+02
-3.385648206999999843e+02
-3.385350067200000126e+02
-3.385033917499999916e+02
-3.380553756300000146e+02
-3.380612068799999861e+02
-3.380628486699999939e+02
-3.380603300899999795e+02
-3.380538336000000186e+02
-3.380436779500000171e+02
-3.380303120099999887e+02
-3.380142816900000184e+02
-3.379962110399999915e+02
-3.379767716999999720e+02
-3.377713869799999884e+02
-3.377686356500000215e+02
-3.377665931299999897e+02
-3.377654037600000265e+02
-3.377652738699999873e+02
-3.377664564899999959e+02
-3.377692396799999983e+02
-3.377739257599999974e+02
-3.377808194200000003e+02
-3.377902008099999875e+02
-3.378590969300000211e+02
-3.378611487399999760e+02
-3.378607999199999767e+02
-3.378581226200000174e+02
-3.378532765599999834e+02
-3.378465069599999993e+02
-3.378381427499999745e+02
-3.378285792300000026e+02
-3.378182687999999985e+02
-3.378076954599999908e+02
-3.378423210600000175e+02
-3.378389394700000139e+02
-3.378306385100000284e+02
-3.378177449300000035e+02
-3.378007397000000083e+02
-3.377802378299999759e+02
-3.377569461799999999e+02
-3.377316483600000083e+02
-3.377051472900000135e+02
-3.376782544600000051e+02
-3.382082312699999989e+02
-3.382089985499999898e+02
-3.382055654700000105e+02
-3.381979982999999947e+02
-3.381864633999999796e+02
-3.381712228600000003e+02
-3.381526204300000131e+02
-3.381310685099999773e+02
-3.381070260399999938e+02
-3.380809855399999719e+02
-3.375362217800000053e+02
-3.375382696899999928e+02
-3.375388027600000100e+02
-3.375377805200000125e+02
-3.375352443099999959e+02
-3.375313288599999737e+02
-3.375262535200000116e+02
-3.375203020899999728e+02
-3.375138154800000052e+02
-3.375071713300000056e+02
-3.375656094700000267e+02
-3.375670552299999940e+02
-3.375655877199999964e+02
-3.375614232099999867e+02
-3.375549150300000179e+02
-3.375465336999999977e+02
-3.375368422199999827e+02
-3.375264662800000224e+02
-3.375160634900000218e+02
-3.375062920799999802e+02
-3.377574238899999841e+02
-3.377592550800000026e+02
-3.377562281300000109e+02
-3.377485578000000146e+02
-3.377366043299999774e+02
-3.377208511900000190e+02
-3.377018815100000211e+02
-3.376803443399999765e+02
-3.376569196400000124e+02
-3.376322996299999772e+02
-3.380536793699999976e+02
-3.380563427700000148e+02
-3.380543866500000263e+02
-3.380479641900000161e+02
-3.380373492400000259e+02
-3.380229234500000075e+02
-3.380051627000000281e+02
-3.379846059299999865e+02
-3.379618451800000116e+02
-3.379374960999999757e+02
-3.378890076499999964e+02
-3.378913242799999921e+02
-3.378910962799999993e+02
-3.378884361099999865e+02
-3.378835542699999905e+02
-3.378767450799999779e+02
-3.378683733600000210e+02
-3.378588655699999777e+02
-3.378486900400000081e+02
-3.378383407300000272e+02
-3.374942760100000214e+02
-3.374923457500000268e+02
-3.374864641699999765e+02
-3.374767848600000093e+02
-3.374635655399999905e+02
-3.374471566999999936e+02
-3.374279922399999805e+02
-3.374065670300000193e+02
-3.373834222599999748e+02
-3.373591299299999946e+02
-3.382288716900000054e+02
-3.382294376400000147e+02
-3.382255207300000279e+02
-3.382172722600000156e+02
-3.382049813599999766e+02
-3.381890657000000147e+02
-3.381700428999999986e+02
-3.381485120799999891e+02
-3.381251161000000138e+02
-3.381005280900000116e+02
-3.375279156899999862e+02
-3.375263782700000093e+02
-3.375233664099999942e+02
-3.375189944499999797e+02
-3.375134370600000011e+02
-3.375069231100000025e+02
-3.374997298200000273e+02
-3.374921708599999874e+02
-3.374845834500000024e+02
-3.374773207599999978e+02
-3.362941806700000029e+02
-3.362874526300000184e+02
-3.362866417600000091e+02
-3.362919060599999739e+02
-3.363033950700000219e+02
-3.363212381600000072e+02
-3.363455126100000143e+02
-3.363762086799999906e+02
-3.364132041099999810e+02
-3.364562223799999856e+02
-3.375462390199999732e+02
-3.375524865500000260e+02
-3.375554867199999762e+02
-3.375553257600000165e+02
-3.375522005500000091e+02
-3.375464101200000187e+02
-3.375383372399999757e+02
-3.375284250000000270e+02
-3.375171618200000125e+02
-3.375050522000000228e+02
-3.377226848299999915e+02
-3.377174921600000062e+02
-3.377094506099999762e+02
-3.376987516600000276e+02
-3.376856562899999972e+02
-3.376704826100000219e+02
-3.376536007600000175e+02
-3.376354083499999774e+02
-3.376163296700000274e+02
-3.375967943100000070e+02
-3.380628569099999936e+02
-3.380600824399999738e+02
-3.380527760499999772e+02
-3.380411806600000091e+02
-3.380256856999999968e+02
-3.380067988399999876e+02
-3.379851266499999838e+02
-3.379613510099999871e+02
-3.379361973599999942e+02
-3.379104154400000084e+02
-3.370695281000000136e+02
-3.370692786999999839e+02
-3.370706981499999983e+02
-3.370738651199999936e+02
-3.370788656099999798e+02
-3.370857952800000135e+02
-3.370947596799999815e+02
-3.371058674899999801e+02
-3.371192122699999913e+02
-3.371348889999999869e+02
-3.383427939800000104e+02
-3.383368870400000219e+02
-3.383267960200000175e+02
-3.383127299099999732e+02
-3.382949877400000105e+02
-3.382739396900000202e+02
-3.382500145199999793e+02
-3.382236843499999850e+02
-3.381954445900000223e+02
-3.381657997400000113e+02
-3.373766238900000189e+02
-3.373746370999999726e+02
-3.373711905600000023e+02
-3.373663853300000142e+02
-3.373603993500000229e+02
-3.373534814000000210e+02
-3.373459349799999814e+02
-3.373381171600000243e+02
-3.373304163000000244e+02
-3.373232510299999944e+02
-3.379108444199999894e+02
-3.379046198899999922e+02
-3.378944745200000170e+02
-3.378806897399999798e+02
-3.378636646900000073e+02
-3.378439025700000116e+02
-3.378219724900000074e+02
-3.377985103500000150e+02
-3.377741840599999819e+02
-3.377496726100000046e+02
-3.378696030300000075e+02
-3.378742151199999739e+02
-3.378740270900000269e+02
-3.378690975000000094e+02
-3.378596008200000256e+02
-3.378458327000000168e+02
-3.378281886500000155e+02
-3.378071439000000282e+02
-3.377832392500000083e+02
-3.377570548599999825e+02
-3.361909355000000232e+02
-3.362000412200000028e+02
-3.362119501000000241e+02
-3.362265087499999936e+02
-3.362435623399999827e+02
-3.362629551399999741e+02
-3.362845272900000282e+02
-3.363081204599999978e+02
-3.363335863899999936e+02
-3.363607746999999790e+02
-3.377998598300000026e+02
-3.378012908300000277e+02
-3.377987974000000122e+02
-3.377925379700000121e+02
-3.377827996999999982e+02
-3.377699846799999932e+02
-3.377545903100000260e+02
-3.377371814800000038e+02
-3.377183752199999844e+02
-3.376988077199999907e+02
-3.379917631800000208e+02
-3.379878172200000108e+02
-3.379805383300000017e+02
-3.379701268800000094e+02
-3.379569181699999945e+02
-3.379413686500000154e+02
-3.379240258099999892e+02
-3.379055066099999749e+02
-3.378864644299999895e+02
-3.378675565099999858e+02
-3.376296089300000176e+02
-3.376282155900000248e+02
-3.376260342799999989e+02
-3.376231223799999839e+02
-3.376195979899999884e+02
-3.376156346800000279e+02
-3.376114433600000098e+02
-3.376072641800000156e+02
-3.376033472199999892e+02
-3.375999378700000193e+02
-3.380539714199999821e+02
-3.380577214099999992e+02
-3.380597217600000022e+02
-3.380600236999999879e+02
-3.380587561500000220e+02
-3.380561226099999885e+02
-3.380523763799999983e+02
-3.380478107399999885e+02
-3.380427377099999831e+02
-3.380374676299999805e+02
-3.380802925099999925e+02
-3.380749541499999964e+02
-3.380656293700000106e+02
-3.380525334800000223e+02
-3.380359851800000115e+02
-3.380163886000000275e+02
-3.379942014299999755e+02
-3.379699345899999798e+02
-3.379441259399999922e+02
-3.379173179499999833e+02
-3.376783689000000095e+02
-3.376788873200000012e+02
-3.376774489599999924e+02
-3.376741571300000260e+02
-3.376692062199999782e+02
-3.376628686199999834e+02
-3.376554828899999734e+02
-3.376474347999999850e+02
-3.376391353299999878e+02
-3.376309989200000246e+02
-3.380951064399999950e+02
-3.380946442499999876e+02
-3.380880578499999842e+02
-3.380755994599999781e+02
-3.380577070100000014e+02
-3.380349814100000003e+02
-3.380081614200000217e+02
-3.379780882100000099e+02
-3.379456724799999847e+02
-3.379118584299999952e+02
-3.378636804600000119e+02
-3.378560629199999994e+02
-3.378452778500000022e+02
-3.378315913700000124e+02
-3.378153512399999840e+02
-3.377969836400000077e+02
-3.377769627499999956e+02
-3.377558044500000278e+02
-3.377340466499999820e+02
-3.377122290899999939e+02
-3.380161619300000098e+02
-3.380167526199999770e+02
-3.380135845899999936e+02
-3.380068967600000178e+02
-3.379970855700000243e+02
-3.379846914299999980e+02
-3.379703610899999831e+02
-3.379548151999999845e+02
-3.379388237200000162e+02
-3.379231515500000000e+02
-3.380061451500000089e+02
-3.380081964799999810e+02
-3.380073152699999923e+02
-3.380036231899999848e+02
-3.379973048699999936e+02
-3.379886111299999811e+02
-3.379778444400000126e+02
-3.379653478100000257e+02
-3.379514944200000173e+02
-3.379366670300000237e+02
-3.380363997399999789e+02
-3.380458540299999868e+02
-3.380527430700000195e+02
-3.380571035199999983e+02
-3.380590991600000166e+02
-3.380589961599999924e+02
-3.380571451000000138e+02
-3.380539603000000284e+02
-3.380498892499999783e+02
-3.380453842200000167e+02
-3.377599855099999786e+02
-3.377597169699999995e+02
-3.377575910599999816e+02
-3.377538720100000091e+02
-3.377489097900000274e+02
-3.377431193300000132e+02
-3.377369605700000079e+02
-3.377309053899999753e+02
-3.377254180200000064e+02
-3.377209250999999881e+02
-3.380728522499999826e+02
-3.380710433599999760e+02
-3.380644132400000217e+02
-3.380532031199999778e+02
-3.380377780100000109e+02
-3.380186199899999906e+02
-3.379962912099999812e+02
-3.379714187000000152e+02
-3.379446642799999836e+02
-3.379166958100000215e+02
-3.380734006199999726e+02
-3.380664891100000204e+02
-3.380568595299999970e+02
-3.380448067400000127e+02
-3.380306996799999979e+02
-3.380149656799999889e+02
-3.379980800600000066e+02
-3.379805484699999738e+02
-3.379628921199999922e+02
-3.379456332999999972e+02
-3.381568840699999896e+02
-3.381560222400000271e+02
-3.381509547499999826e+02
-3.381418669700000237e+02
-3.381290536399999951e+02
-3.381129228799999851e+02
-3.380939630799999804e+02
-3.380727352800000176e+02
-3.380498438800000258e+02
-3.380259252800000240e+02
-3.379855724700000223e+02
-3.379905171799999835e+02
-3.379927110300000095e+02
-3.379921432200000027e+02
-3.379888907100000210e+02
-3.379831222999999909e+02
-3.379750849299999800e+02
-3.379651008199999751e+02
-3.379535513700000138e+02
-3.379408616800000118e+02
-3.380639105399999949e+02
-3.380589630299999726e+02
-3.380503727099999765e+02
-3.380383505300000024e+02
-3.380232194499999991e+02
-3.380053992399999743e+02
-3.379853887699999859e+02
-3.379637426599999799e+02
-3.379410531099999844e+02
-3.379179331299999944e+02
-3.381079401499999904e+02
-3.381090316699999789e+02
-3.381071691199999805e+02
-3.381024098899999899e+02
-3.380948801999999773e+02
-3.380847709000000236e+02
-3.380723262700000191e+02
-3.380578381199999853e+02
-3.380416352500000130e+02
-3.380240648899999769e+02
-3.377228742699999771e+02
-3.377269662300000164e+02
-3.377277930800000263e+02
-3.377254909600000019e+02
-3.377203008500000010e+02
-3.377125587200000041e+02
-3.377026791700000103e+02
-3.376911396599999762e+02
-3.376784683199999790e+02
-3.376652102300000138e+02
-3.378368017799999734e+02
-3.378311169899999982e+02
-3.378237971300000027e+02
-3.378149651699999936e+02
-3.378048140800000283e+02
-3.377935896100000264e+02
-3.377815968500000281e+02
-3.377691792100000043e+02
-3.377567091600000140e+02
-3.377445808499999771e+02
-3.370285379000000034e+02
-3.370310121900000127e+02
-3.370356671700000106e+02
-3.370424272399999950e+02
-3.370512013399999773e+02
-3.370618835199999808e+02
-3.370743602900000155e+02
-3.370885072899999955e+02
-3.371041932800000041e+02
-3.371212763300000006e+02
-3.376850516599999992e+02
-3.376796043699999927e+02
-3.376733006700000033e+02
-3.376664717300000120e+02
-3.376595492899999726e+02
-3.376530391599999916e+02
-3.376474972400000070e+02
-3.376434906200000228e+02
-3.376415679899999986e+02
-3.376422256199999765e+02
-3.375455195999999773e+02
-3.375449852200000009e+02
-3.375442401299999915e+02
-3.375433783299999959e+02
-3.375425307599999769e+02
-3.375418688500000144e+02
-3.375415865900000085e+02
-3.375419089900000245e+02
-3.375430746000000113e+02
-3.375453356599999779e+02
-3.378856558200000109e+02
-3.378956669600000282e+02
-3.379048900899999808e+02
-3.379131520700000237e+02
-3.379203664300000014e+02
-3.379265251699999908e+02
-3.379316962999999987e+02
-3.379360015999999973e+02
-3.379396153800000207e+02
-3.379427288800000042e+02
-3.384160765199999901e+02
-3.384101177000000007e+02
-3.383991993899999784e+02
-3.383835657600000104e+02
-3.383635725199999911e+02
-3.383396725599999968e+02
-3.383124009399999750e+02
-3.382823444900000140e+02
-3.382501212500000065e+02
-3.382163626600000157e+02
-3.381783505899999795e+02
-3.381814775500000110e+02
-3.381812024899999756e+02
-3.381775664200000051e+02
-3.381706920199999900e+02
-3.381607829499999980e+02
-3.381481083400000216e+02
-3.381329972199999929e+02
-3.381158217700000250e+02
-3.380969877300000235e+02
-3.372365300299999831e+02
-3.372392792800000052e+02
-3.372432639400000198e+02
-3.372484628500000099e+02
-3.372548794799999996e+02
-3.372625538799999845e+02
-3.372715484799999786e+02
-3.372819559800000206e+02
-3.372938849399999981e+02
-3.373074564500000179e+02
-3.371483826099999987e+02
-3.371529468800000018e+02
-3.371592236500000013e+02
-3.371673372600000107e+02
-3.371774461499999802e+02
-3.371897412499999973e+02
-3.372044139399999949e+02
-3.372216272599999911e+02
-3.372415006599999856e+02
-3.372640751499999965e+02
-3.379784423199999992e+02
-3.379854578800000127e+02
-3.379889745400000152e+02
-3.379890571999999906e+02
-3.379858697199999824e+02
-3.379796809299999722e+02
-3.379708544299999744e+02
-3.379598191000000043e+02
-3.379470694999999978e+02
-3.379331289200000015e+02
-3.375611371499999791e+02
-3.375576949399999762e+02
-3.375538835699999822e+02
-3.375498247799999945e+02
-3.375456823000000099e+02
-3.375416486199999895e+02
-3.375379416900000251e+02
-3.375348010499999987e+02
-3.375324766300000192e+02
-3.375312174800000093e+02
-3.376884507699999745e+02
-3.376920832199999722e+02
-3.376927003499999955e+02
-3.376903945600000156e+02
-3.376853599300000042e+02
-3.376778952700000218e+02
-3.376683779300000197e+02
-3.376572586300000012e+02
-3.376450328099999751e+02
-3.376322306299999809e+02
-3.373792003099999874e+02
-3.373724640099999874e+02
-3.373655248200000187e+02
-3.373584927200000152e+02
-3.373515092600000003e+02
-3.373447542600000020e+02
-3.373384347699999921e+02
-3.373327770600000122e+02
-3.373280285199999753e+02
-3.373244397700000263e+02
-3.378875285600000211e+02
-3.378830002299999933e+02
-3.378758537900000078e+02
-3.378662186399999996e+02
-3.378543112699999824e+02
-3.378404375200000231e+02
-3.378249776000000111e+02
-3.378083699300000262e+02
-3.377911001300000180e+02
-3.377736837200000082e+02
-3.375863862799999993e+02
-3.375890016800000240e+02
-3.375869364199999723e+02
-3.375802721800000086e+02
-3.375692304199999967e+02
-3.375541655700000092e+02
-3.375355418899999904e+02
-3.375139159999999947e+02
-3.374899192400000061e+02
-3.374642265400000269e+02
-3.376845905100000209e+02
-3.376824799500000154e+02
-3.376755142100000171e+02
-3.376638465999999994e+02
-3.376477430300000151e+02
-3.376275775400000043e+02
-3.376038095600000020e+02
-3.375769616399999791e+02
-3.375475999600000137e+02
-3.375163136499999723e+02
-3.378224334000000226e+02
-3.378318953300000089e+02
-3.378405971700000237e+02
-3.378484345200000121e+02
-3.378553784000000064e+02
-3.378614611200000013e+02
-3.378667805100000123e+02
-3.378714811300000065e+02
-3.378757403199999771e+02
-3.378797572199999877e+02
-3.380538508299999876e+02
-3.380570218099999806e+02
-3.380577172100000212e+02
-3.380561084000000278e+02
-3.380524717499999952e+02
-3.380471809800000074e+02
-3.380406748300000004e+02
-3.380334365800000000e+02
-3.380259691300000213e+02
-3.380187652700000172e+02
-3.371850787299999865e+02
-3.372014582699999892e+02
-3.372202240500000130e+02
-3.372411883699999748e+02
-3.372642033399999946e+02
-3.372891617799999722e+02
-3.373159898100000191e+02
-3.373446218999999928e+02
-3.373749881300000197e+02
-3.374069967400000110e+02
-3.382520026000000257e+02
-3.382445550900000057e+02
-3.382333585299999754e+02
-3.382187190700000201e+02
-3.382010598100000038e+02
-3.381808977100000106e+02
-3.381588236200000210e+02
-3.381354751700000065e+02
-3.381115131899999824e+02
-3.380875963199999887e+02
-3.375068198600000073e+02
-3.375074219699999958e+02
-3.375094031500000256e+02
-3.375128453400000126e+02
-3.375178514300000074e+02
-3.375245327800000155e+02
-3.375329952000000162e+02
-3.375433285899999873e+02
-3.375555877400000213e+02
-3.375697782699999721e+02
-3.383273169600000188e+02
-3.383259137300000248e+02
-3.383196363999999789e+02
-3.383086813200000051e+02
-3.382933898300000237e+02
-3.382742223299999864e+02
-3.382517421399999762e+02
-3.382265964800000120e+02
-3.381994845500000224e+02
-3.381711360099999979e+02
-3.355848508899999842e+02
-3.355878143300000147e+02
-3.356030657399999768e+02
-3.356304581399999734e+02
-3.356697007899999790e+02
-3.357203230800000142e+02
-3.357816566199999784e+02
-3.358528007400000206e+02
-3.359326072200000226e+02
-3.360196931099999915e+02
-3.369033640600000012e+02
-3.369336847299999818e+02
-3.369697816999999986e+02
-3.370110155300000088e+02
-3.370566687499999716e+02
-3.371059641300000180e+02
-3.371580808599999841e+02
-3.372121736999999939e+02
-3.372674078200000167e+02
-3.373229772799999751e+02
-3.381440994800000226e+02
-3.381410691799999881e+02
-3.381342955800000141e+02
-3.381240191200000140e+02
-3.381105954399999973e+02
-3.380944744700000228e+02
-3.380761802999999759e+02
-3.380562902899999926e+02
-3.380353988900000104e+02
-3.380141062199999737e+02
-3.384068823800000132e+02
-3.384026236199999857e+02
-3.383935573100000056e+02
-3.383799294799999871e+02
-3.383620930299999827e+02
-3.383404943200000048e+02
-3.383156479500000273e+02
-3.382881125000000111e+02
-3.382584762700000169e+02
-3.382273294699999724e+02
-3.374708991399999718e+02
-3.374702983500000073e+02
-3.374694900700000062e+02
-3.374685556200000178e+02
-3.374676164399999720e+02
-3.374668143100000179e+02
-3.374663062999999852e+02
-3.374662449499999752e+02
-3.374667739399999959e+02
-3.374680032300000221e+02
-3.377769918399999938e+02
-3.377960149799999954e+02
-3.378148440100000016e+02
-3.378333277099999918e+02
-3.378514134800000193e+02
-3.378691402100000118e+02
-3.378866150900000207e+02
-3.379040038499999810e+02
-3.379215014100000190e+02
-3.379393015200000150e+02
-3.381159165700000244e+02
-3.381100937900000076e+02
-3.381000242599999979e+02
-3.380859994400000232e+02
-3.380684245599999826e+02
-3.380477928899999824e+02
-3.380246727900000110e+02
-3.379996781199999987e+02
-3.379734452100000226e+02
-3.379466060199999902e+02
-3.365269153300000085e+02
-3.365492012199999863e+02
-3.365790683700000159e+02
-3.366159824200000230e+02
-3.366593436599999905e+02
-3.367084701300000233e+02
-3.367626151900000195e+02
-3.368209551599999827e+02
-3.368826017999999749e+02
-3.369466225599999802e+02
-3.380668381500000237e+02
-3.380664296100000001e+02
-3.380636778100000015e+02
-3.380587677400000075e+02
-3.380519876700000168e+02
-3.380437120999999934e+02
-3.380343906499999775e+02
-3.380245085299999914e+02
-3.380145726999999738e+02
-3.380050784300000259e+02
-3.377447005999999874e+02
-3.377501821999999834e+02
-3.377529347899999834e+02
-3.377529914500000245e+02
-3.377504637900000262e+02
-3.377455400499999882e+02
-3.377384735800000044e+02
-3.377295730499999991e+02
-3.377191863400000216e+02
-3.377076897300000269e+02
-3.379822587300000123e+02
-3.379755580899999927e+02
-3.379647050899999954e+02
-3.379499750200000108e+02
-3.379317587799999956e+02
-3.379105528399999798e+02
-3.378869383300000209e+02
-3.378615449600000034e+02
-3.378350410300000135e+02
-3.378080965300000003e+02
-3.379416935699999840e+02
-3.379453366500000016e+02
-3.379470580500000096e+02
-3.379470314999999800e+02
-3.379455513999999994e+02
-3.379430110000000127e+02
-3.379398822200000154e+02
-3.379366779599999973e+02
-3.379339127200000235e+02
-3.379320795500000258e+02
-3.382060236699999791e+02
-3.381998983700000281e+02
-3.381897307500000238e+02
-3.381757736900000282e+02
-3.381583773400000155e+02
-3.381379722099999867e+02
-3.381150574700000107e+02
-3.380901838400000088e+02
-3.380639316200000053e+02
-3.380368930199999795e+02
-3.372986751000000254e+02
-3.373028340600000092e+02
-3.373050916999999913e+02
-3.373055645000000027e+02
-3.373045277499999770e+02
-3.373023959299999888e+02
-3.372996964999999818e+02
-3.372970271799999864e+02
-3.372950221699999815e+02
-3.372943131700000094e+02
-3.373357680099999811e+02
-3.373617142400000262e+02
-3.373897407499999872e+02
-3.374194145800000229e+02
-3.374503458199999955e+02
-3.374821798699999817e+02
-3.375146010400000023e+02
-3.375473251299999902e+02
-3.375800960700000246e+02
-3.376126882799999862e+02
-3.382163131699999781e+02
-3.382147130000000175e+02
-3.382096842700000252e+02
-3.382013822100000198e+02
-3.381900587900000232e+02
-3.381760439700000234e+02
-3.381597417400000154e+02
-3.381416034399999830e+02
-3.381221108899999876e+02
-3.381017553899999939e+02
-3.381105248800000140e+02
-3.381100265800000102e+02
-3.381047860400000218e+02
-3.380949721900000213e+02
-3.380808729199999902e+02
-3.380628868300000249e+02
-3.380415020699999786e+02
-3.380172749299999850e+02
-3.379908061900000007e+02
-3.379627224199999773e+02
-3.382711264899999719e+02
-3.382685491899999874e+02
-3.382615169399999786e+02
-3.382502440700000079e+02
-3.382350998200000163e+02
-3.382165916199999742e+02
-3.381953375900000083e+02
-3.381720285100000183e+02
-3.381474098799999979e+02
-3.381222319199999902e+02
-3.378605397800000105e+02
-3.378656098999999813e+02
-3.378680691299999808e+02
-3.378680381400000101e+02
-3.378657816499999740e+02
-3.378616994199999795e+02
-3.378562914299999989e+02
-3.378501361200000019e+02
-3.378438498799999934e+02
-3.378380560300000184e+02
-3.378256320099999925e+02
-3.378269934599999829e+02
-3.378258405400000015e+02
-3.378222776299999737e+02
-3.378165040399999839e+02
-3.378088099199999874e+02
-3.377995603100000039e+02
-3.377891858599999750e+02
-3.377781666500000028e+02
-3.377670062799999755e+02
-3.378222269600000232e+02
-3.378246977499999844e+02
-3.378242591900000207e+02
-3.378209939299999860e+02
-3.378150856600000225e+02
-3.378068007499999794e+02
-3.377964930399999730e+02
-3.377845761699999798e+02
-3.377715165399999933e+02
-3.377578120100000092e+02
-3.374094314499999996e+02
-3.374137416699999790e+02
-3.374181355399999802e+02
-3.374224706699999956e+02
-3.374266587399999935e+02
-3.374306675600000176e+02
-3.374345244699999853e+02
-3.374383114899999896e+02
-3.374421537599999965e+02
-3.374462114699999802e+02
-3.380213958900000080e+02
-3.380210617600000091e+02
-3.380193677600000228e+02
-3.380163771800000063e+02
-3.380121889000000124e+02
-3.380069395300000110e+02
-3.380007991699999934e+02
-3.379939624799999933e+02
-3.379866460000000075e+02
-3.379790782200000194e+02
-3.380229664400000047e+02
-3.380202267399999982e+02
-3.380139425200000005e+02
-3.380042976099999805e+02
-3.379915741199999957e+02
-3.379761307699999975e+02
-3.379583765099999937e+02
-3.379387564400000201e+02
-3.379177277599999911e+02
-3.378957380100000023e+02
-3.383827432799999997e+02
-3.383885844399999883e+02
-3.383903510000000097e+02
-3.383880843800000093e+02
-3.383819300700000099e+02
-3.383721264199999723e+02
-3.383589993599999843e+02
-3.383429439999999886e+02
-3.383244121000000177e+02
-3.383038868400000183e+02
-3.380264509500000258e+02
-3.380226081299999805e+02
-3.380139685500000155e+02
-3.380007585999999833e+02
-3.379833388499999955e+02
-3.379621948800000268e+02
-3.379379107299999987e+02
-3.379111435799999867e+02
-3.378826065900000231e+02
-3.378530428199999847e+02
-3.369779118700000140e+02
-3.369888641000000007e+02
-3.369991833400000019e+02
-3.370087893400000212e+02
-3.370176636300000155e+02
-3.370258385399999952e+02
-3.370334060800000202e+02
-3.370405043000000092e+02
-3.370473161599999798e+02
-3.370540617699999757e+02
-3.381623506000000248e+02
-3.381627927000000113e+02
-3.381600626800000100e+02
-3.381542805899999848e+02
-3.381456546100000082e+02
-3.381344819500000085e+02
-3.381211286999999857e+02
-3.381060151300000030e+02
-3.380896064300000035e+02
-3.380723890400000187e+02
-3.370648347100000137e+02
-3.370529576900000279e+02
-3.370429322100000036e+02
-3.370350689900000134e+02
-3.370297321599999805e+02
-3.370273351100000241e+02
-3.370283027400000151e+02
-3.370330614000000082e+02
-3.370419952400000057e+02
-3.370554177899999786e+02
-3.378483742799999732e+02
-3.378477464800000121e+02
-3.378444856300000083e+02
-3.378387604700000111e+02
-3.378308418600000209e+02
-3.378210826800000177e+02
-3.378098965699999781e+02
-3.377977362600000220e+02
-3.377850705199999766e+02
-3.377723549899999966e+02
-3.382392526799999928e+02
-3.382409009200000014e+02
-3.382387999300000274e+02
-3.382330543599999828e+02
-3.382238542499999880e+02
-3.382114779500000168e+02
-3.381962706099999991e+02
-3.381786314600000196e+02
-3.381589986800000247e+02
-3.381378363200000194e+02
-3.385355574299999830e+02
-3.385309656900000164e+02
-3.385215363899999943e+02
-3.385075187799999981e+02
-3.384892617099999939e+02
-3.384671971500000041e+02
-3.384418210399999793e+02
-3.384136753399999975e+02
-3.383833279300000072e+02
-3.383513496799999984e+02
-3.383095407399999885e+02
-3.383043020900000215e+02
-3.382942514599999981e+02
-3.382796280900000170e+02
-3.382607922700000245e+02
-3.382382078499999807e+02
-3.382124200000000087e+02
-3.381840336299999876e+02
-3.381536827200000062e+02
-3.381220118200000115e+02
-3.378151957399999787e+02
-3.378083931099999973e+02
-3.377991910299999745e+02
-3.377877367500000219e+02
-3.377742542699999717e+02
-3.377590315099999998e+02
-3.377424141600000098e+02
-3.377247872500000199e+02
-3.377065718100000140e+02
-3.376881982699999867e+02
-3.378443828200000212e+02
-3.378534733199999778e+02
-3.378596709799999758e+02
-3.378629132799999866e+02
-3.378632466099999760e+02
-3.378608086500000240e+02
-3.378558357800000067e+02
-3.378486398200000167e+02
-3.378395954999999731e+02
-3.378291214700000182e+02
-3.380384120300000177e+02
-3.380376269600000114e+02
-3.380328771599999982e+02
-3.380243840399999726e+02
-3.380124834999999734e+02
-3.379976115100000129e+02
-3.379802740000000085e+02
-3.379610338400000273e+02
-3.379404751499999975e+02
-3.379191853899999956e+02
-3.378786815600000182e+02
-3.378899721099999738e+02
-3.378996658600000274e+02
-3.379076050799999962e+02
-3.379137119999999754e+02
-3.379179876900000181e+02
-3.379205106800000067e+02
-3.379214255300000218e+02
-3.379209227499999884e+02
-3.379192322700000091e+02
-3.379462565300000279e+02
-3.379484064600000011e+02
-3.379487349099999847e+02
-3.379473024399999872e+02
-3.379442484100000001e+02
-3.379397873600000253e+02
-3.379341971599999965e+02
-3.379278091200000063e+02
-3.379209930399999848e+02
-3.379141335699999900e+02
-3.374880137100000184e+02
-3.374834425799999735e+02
-3.374828993900000000e+02
-3.374864208500000018e+02
-3.374940275700000143e+02
-3.375057114800000022e+02
-3.375214324500000203e+02
-3.375410987500000033e+02
-3.375645690700000046e+02
-3.375916269499999771e+02
-3.375853335099999981e+02
-3.375927853100000107e+02
-3.376010078499999736e+02
-3.376099944900000196e+02
-3.376197485800000209e+02
-3.376302841300000068e+02
-3.376416167799999926e+02
-3.376537698700000192e+02
-3.376667694000000211e+02
-3.376806379199999810e+02
-3.383217256899999938e+02
-3.383189565900000275e+02
-3.383115018099999816e+02
-3.382995820400000184e+02
-3.382835374599999909e+02
-3.382638161200000013e+02
-3.382409438299999920e+02
-3.382155097200000000e+02
-3.381881410899999878e+02
-3.381594832200000269e+02
-3.378088508299999830e+02
-3.378062071400000264e+02
-3.378015545900000234e+02
-3.377952601399999821e+02
-3.377878107899999804e+02
-3.377797913399999743e+02
-3.377718472999999904e+02
-3.377646544099999915e+02
-3.377588869400000249e+02
-3.377551779099999862e+02
-3.378348131999999850e+02
-3.378332297900000185e+02
-3.378284802700000000e+02
-3.378206717699999899e+02
-3.378099835900000016e+02
-3.377966644300000212e+02
-3.377810223800000244e+02
-3.377634151600000223e+02
-3.377442314200000055e+02
-3.377238768299999947e+02
-3.375170562299999801e+02
-3.375223188200000095e+02
-3.375278056999999876e+02
-3.375334967300000244e+02
-3.375394002599999794e+02
-3.375455620100000260e+02
-3.375520653699999798e+02
-3.375590200899999900e+02
-3.375665684499999770e+02
-3.375748701200000141e+02
-3.375162370300000134e+02
-3.375141646000000151e+02
-3.375135123100000101e+02
-3.375144215999999915e+02
-3.375171017100000199e+02
-3.375218090700000175e+02
-3.375288372300000219e+02
-3.375384834800000249e+02
-3.375510206600000060e+02
-3.375666697099999851e+02
-3.377579797899999789e+02
-3.377583809999999858e+02
-3.377561214599999744e+02
-3.377513007499999844e+02
-3.377440963000000238e+02
-3.377347559799999885e+02
-3.377235881299999960e+02
-3.377109508199999937e+02
-3.376972422000000051e+02
-3.376828803000000221e+02
-3.373579592400000138e+02
-3.373548158300000068e+02
-3.373517356699999823e+02
-3.373488135499999885e+02
-3.373461934800000108e+02
-3.373440565600000127e+02
-3.373426004099999886e+02
-3.373420316799999910e+02
-3.373425484699999970e+02
-3.373443178900000134e+02
-3.384450325199999838e+02
-3.384406589499999995e+02
-3.384315892199999780e+02
-3.384180382000000122e+02
-3.384003705200000240e+02
-3.383790665199999808e+02
-3.383547090899999716e+02
-3.383279534700000113e+02
-3.382995005099999730e+02
-3.382700724499999865e+02
-3.375448106399999801e+02
-3.375440388499999926e+02
-3.375419049100000279e+02
-3.375384998000000110e+02
-3.375339675499999998e+02
-3.375284969699999920e+02
-3.375223225299999967e+02
-3.375157100900000273e+02
-3.375089490899999873e+02
-3.375023459500000058e+02
-3.379951875400000176e+02
-3.379866453099999717e+02
-3.379747654899999816e+02
-3.379598942399999828e+02
-3.379424510399999804e+02
-3.379229182700000251e+02
-3.379018264000000045e+02
-3.378797373799999946e+02
-3.378572257999999806e+02
-3.378348670799999809e+02
-3.379861992599999780e+02
-3.379901157300000136e+02
-3.379911006699999803e+02