 vasp.6.1.1 19Jun20 (build Dec 21 2021 08:45:49) complex                        
  
 executed on             LinuxIFC date 2023.10.08  07:56:52
 running on   40 total cores
 distrk:  each k-point on   40 cores,    1 groups
 distr:  one band on NCORE=   1 cores,   40 groups


--------------------------------------------------------------------------------------------------------


 INCAR:
 POTCAR:   PAW_PBE Te 08Apr2002                   
 POTCAR:   PAW_PBE Mo 08Apr2002                   
 -----------------------------------------------------------------------------
|                                                                             |
|           W    W    AA    RRRRR   N    N  II  N    N   GGGG   !!!           |
|           W    W   A  A   R    R  NN   N  II  NN   N  G    G  !!!           |
|           W    W  A    A  R    R  N N  N  II  N N  N  G       !!!           |
|           W WW W  AAAAAA  RRRRR   N  N N  II  N  N N  G  GGG   !            |
|           WW  WW  A    A  R   R   N   NN  II  N   NN  G    G                |
|           W    W  A    A  R    R  N    N  II  N    N   GGGG   !!!           |
|                                                                             |
|     For optimal performance we recommend to set                             |
|       NCORE = 4 - approx SQRT(number of cores).                             |
|     NCORE specifies how many cores store one orbital (NPAR=cpu/NCORE).      |
|     This setting can greatly improve the performance of VASP for DFT.       |
|     The default, NCORE=1 might be grossly inefficient on modern             |
|     multi-core architectures or massively parallel machines. Do your        |
|     own testing!!!!                                                         |
|     Unfortunately you need to use the default for GW and RPA                |
|     calculations (for HF NCORE is supported but not extensively tested      |
|     yet).                                                                   |
|                                                                             |
 -----------------------------------------------------------------------------

 POTCAR:   PAW_PBE Te 08Apr2002                   
   VRHFIN =Te: s2p4                                                                                 
   LEXCH  = PE                                                                                      
   EATOM  =   223.2721 eV,   16.4100 Ry                                                             
                                                                                                    
   TITEL  = PAW_PBE Te 08Apr2002                                                                    
   LULTRA =        F    use ultrasoft PP ?                                                          
   IUNSCR =        1    unscreen: 0-lin 1-nonlin 2-no                                               
   RPACOR =    2.200    partial core radius                                                         
   POMASS =  127.600; ZVAL   =    6.000    mass and valenz                                          
   RCORE  =    2.300    outmost cutoff radius                                                       
   RWIGS  =    2.900; RWIGS  =    1.535    wigner-seitz radius (au A)                               
   ENMAX  =  174.982; ENMIN  =  131.236 eV                                                          
   ICORE  =        3    local potential                                                             
   LCOR   =        T    correct aug charges                                                         
   LPAW   =        T    paw PP                                                                      
   EAUG   =  368.792                                                                                
   DEXC   =    -.169                                                                                
   RMAX   =    3.486    core radius for proj-oper                                                   
   RAUG   =    1.300    factor for augmentation sphere                                              
   RDEP   =    2.397    radius for radial grids                                                     
   QCUT   =   -3.586; QGAM   =    7.172    optimization parameters                                  
                                                                                                    
   Description                                                                                      
     l     E      TYP  RCUT    TYP  RCUT                                                            
     0   .000     23  2.300                                                                         
     0   .000     23  2.300                                                                         
     1   .000     23  2.300                                                                         
     1   .000     23  2.300                                                                         
     2   .000     23  2.300                                                                         
     3  -.100     23  2.300                                                                         
  local pseudopotential read in
  partial core-charges read in
  atomic valenz-charges read in
  non local Contribution for L=           0  read in
    real space projection operators read in
  non local Contribution for L=           0  read in
    real space projection operators read in
  non local Contribution for L=           1  read in
    real space projection operators read in
  non local Contribution for L=           1  read in
    real space projection operators read in
  non local Contribution for L=           2  read in
    real space projection operators read in
    PAW grid and wavefunctions read in
 
   number of l-projection  operators is LMAX  =           5
   number of lm-projection operators is LMMAX =          13
 
 POTCAR:   PAW_PBE Mo 08Apr2002                   
   VRHFIN =Mo: 4p5s4d                                                                               
   LEXCH  = PE                                                                                      
   EATOM  =   217.5180 eV,   15.9871 Ry                                                             
                                                                                                    
   TITEL  = PAW_PBE Mo 08Apr2002                                                                    
   LULTRA =        F    use ultrasoft PP ?                                                          
   IUNSCR =        1    unscreen: 0-lin 1-nonlin 2-no                                               
   RPACOR =    2.200    partial core radius                                                         
   POMASS =   95.940; ZVAL   =    6.000    mass and valenz                                          
   RCORE  =    2.750    outmost cutoff radius                                                       
   RWIGS  =    2.750; RWIGS  =    1.455    wigner-seitz radius (au A)                               
   ENMAX  =  224.584; ENMIN  =  168.438 eV                                                          
   RCLOC  =    2.111    cutoff for local pot                                                        
   LCOR   =        T    correct aug charges                                                         
   LPAW   =        T    paw PP                                                                      
   EAUG   =  345.278                                                                                
   DEXC   =    -.088                                                                                
   RMAX   =    3.077    core radius for proj-oper                                                   
   RAUG   =    1.300    factor for augmentation sphere                                              
   RDEP   =    2.815    radius for radial grids                                                     
   QCUT   =   -4.063; QGAM   =    8.126    optimization parameters                                  
                                                                                                    
   Description                                                                                      
     l     E      TYP  RCUT    TYP  RCUT                                                            
     2   .000     23  2.500                                                                         
     2   .000     23  2.500                                                                         
     0   .000     23  2.600                                                                         
     0  1.000     23  2.600                                                                         
     1   .400     23  2.750                                                                         
     1  2.000     23  2.750                                                                         
     3   .000      7   .000                                                                         
  local pseudopotential read in
  partial core-charges read in
  atomic valenz-charges read in
  non local Contribution for L=           2  read in
    real space projection operators read in
  non local Contribution for L=           2  read in
    real space projection operators read in
  non local Contribution for L=           0  read in
    real space projection operators read in
  non local Contribution for L=           0  read in
    real space projection operators read in
  non local Contribution for L=           1  read in
    real space projection operators read in
  non local Contribution for L=           1  read in
    real space projection operators read in
    PAW grid and wavefunctions read in
 
   number of l-projection  operators is LMAX  =           6
   number of lm-projection operators is LMMAX =          18
 
 -----------------------------------------------------------------------------
|                                                                             |
|               ----> ADVICE to this user running VASP <----                  |
|                                                                             |
|     You have a (more or less) 'large supercell' and for larger cells it     |
|     might be more efficient to use real-space projection operators.         |
|     Therefore, try LREAL= Auto in the INCAR file.                           |
|     Mind: If you want to do very accurate calculations, keep the            |
|     reciprocal projection scheme (i.e. LREAL=.FALSE.).                      |
|                                                                             |
 -----------------------------------------------------------------------------

 PAW_PBE Te 08Apr2002                   :
 energy of atom  1       EATOM= -223.2721
 kinetic energy error for atom=    0.0006 (will be added to EATOM!!)
 PAW_PBE Mo 08Apr2002                   :
 energy of atom  2       EATOM= -217.5180
 kinetic energy error for atom=    0.0009 (will be added to EATOM!!)
 
 
 POSCAR: Te Mo
  positions in cartesian coordinates
  No initial velocities read in
 exchange correlation table for  LEXCH =        8
   RHO(1)=    0.500       N(1)  =     2000
   RHO(2)=  100.500       N(2)  =     4000
 


--------------------------------------------------------------------------------------------------------


 ion  position               nearest neighbor table
   1  0.111  0.222  0.321-  37 2.62  38 2.66  41 2.69   5 3.43   9 3.43   3 3.45   4 3.45   2 3.46
                             7 3.46  19 3.52
   2  0.111  0.556  0.321-  38 2.61  39 2.66  42 2.68   6 3.42   7 3.43   8 3.45   5 3.45   1 3.46
                             3 3.46  20 3.51
   3  0.111  0.890  0.321-  39 2.62  37 2.65  40 2.69   4 3.43   8 3.43   1 3.45   9 3.45   6 3.46
                             2 3.46  21 3.52
   4  0.445  0.222  0.321-  40 2.62  41 2.67  44 2.69   8 3.43   3 3.43   7 3.44   6 3.45   5 3.45
                             1 3.45  22 3.51
   5  0.445  0.556  0.320-  41 2.63  42 2.67  45 2.69   9 3.42   1 3.43   2 3.45   4 3.45   8 3.46
                             6 3.46  23 3.53
   6  0.444  0.889  0.320-  42 2.63  40 2.66  43 2.69   2 3.42   7 3.43   9 3.45   4 3.45   3 3.46
                             5 3.46  24 3.53
   7  0.778  0.223  0.321-  43 2.61  44 2.65  38 2.69   2 3.43   6 3.43   8 3.44   4 3.44   9 3.46
                             1 3.46  25 3.52
   8  0.778  0.555  0.321-  44 2.61  45 2.66  39 2.69   4 3.43   3 3.43   7 3.44   2 3.45   5 3.46
                             9 3.46  26 3.52
   9  0.777  0.889  0.321-  45 2.62  43 2.66  37 2.69   5 3.42   1 3.43   6 3.45   3 3.45   7 3.46
                             8 3.46  27 3.52
  10  0.222  0.167  0.558-  48 2.62  46 2.66  49 2.68  14 3.42  18 3.43  13 3.45  11 3.46  12 3.46
                            16 3.46  28 3.52
  11  0.222  0.500  0.558-  46 2.62  47 2.66  50 2.69  15 3.42  16 3.43  12 3.45  17 3.45  14 3.45
                            10 3.46  29 3.52
  12  0.223  0.833  0.558-  47 2.62  48 2.66  51 2.69  17 3.43  13 3.43  15 3.44  11 3.45  18 3.46
                            10 3.46  30 3.52
  13  0.556  0.167  0.558-  51 2.62  49 2.67  52 2.69  17 3.42  12 3.43  16 3.44  10 3.45  14 3.46
                            15 3.46  31 3.51
  14  0.555  0.500  0.558-  49 2.62  50 2.66  53 2.69  10 3.42  18 3.43  11 3.45  15 3.45  13 3.46
                            17 3.46  32 3.52
  15  0.555  0.833  0.559-  50 2.61  51 2.66  54 2.68  11 3.42  16 3.43  12 3.44  14 3.45  18 3.46
                            13 3.46  33 3.51
  16  0.889  0.167  0.558-  54 2.62  52 2.66  46 2.70  11 3.43  15 3.43  13 3.44  17 3.45  10 3.46
                            18 3.46  34 3.52
  17  0.889  0.500  0.558-  52 2.62  53 2.66  47 2.69  13 3.42  12 3.43  16 3.45  11 3.45  14 3.46
                            18 3.46  35 3.52
  18  0.889  0.833  0.558-  53 2.62  54 2.66  48 2.68  10 3.43  14 3.43  15 3.46  12 3.46  17 3.46
                            16 3.46  36 3.52
  19  0.111  0.222  0.442-  41 2.61  38 2.67  37 2.69  23 3.43  27 3.43  25 3.45  22 3.46  20 3.46
                            21 3.46   1 3.52
  20  0.112  0.556  0.441-  42 2.60  39 2.67  38 2.68  24 3.42  25 3.43  21 3.45  23 3.45  19 3.46
                            26 3.46   2 3.51
  21  0.111  0.888  0.442-  40 2.62  37 2.67  39 2.68  26 3.42  22 3.43  20 3.45  24 3.45  27 3.45
                            19 3.46   3 3.52
  22  0.445  0.222  0.442-  44 2.62  41 2.67  40 2.68  21 3.43  26 3.43  24 3.45  25 3.45  23 3.46
                            19 3.46   4 3.51
  23  0.445  0.555  0.442-  45 2.61  42 2.67  41 2.68  19 3.43  27 3.43  26 3.44  20 3.45  22 3.46
                            24 3.46   5 3.53
  24  0.444  0.889  0.442-  43 2.62  40 2.66  42 2.69  20 3.42  25 3.43  22 3.45  21 3.45  27 3.45
                            23 3.46   6 3.53
  25  0.778  0.222  0.442-  38 2.62  44 2.67  43 2.69  24 3.43  20 3.43  22 3.45  19 3.45  27 3.45
                            26 3.46   7 3.52
  26  0.778  0.556  0.442-  39 2.61  45 2.66  44 2.69  21 3.42  22 3.43  23 3.44  27 3.45  20 3.46
                            25 3.46   8 3.52
  27  0.778  0.889  0.442-  37 2.62  43 2.67  45 2.69  23 3.43  19 3.43  26 3.45  21 3.45  24 3.45
                            25 3.45   9 3.52
  28  0.222  0.167  0.679-  49 2.61  46 2.66  48 2.69  36 3.43  32 3.43  30 3.45  34 3.45  31 3.46
                            29 3.46  10 3.52
  29  0.222  0.500  0.679-  50 2.62  47 2.67  46 2.69  34 3.43  33 3.43  32 3.45  28 3.46  35 3.46
                            30 3.46  11 3.52
  30  0.223  0.834  0.679-  51 2.61  48 2.67  47 2.69  31 3.42  35 3.43  36 3.45  28 3.45  33 3.46
                            29 3.46  12 3.52
  31  0.556  0.166  0.679-  52 2.60  49 2.67  51 2.67  30 3.42  35 3.43  33 3.45  34 3.45  28 3.46
                            32 3.47  13 3.51
  32  0.555  0.500  0.679-  53 2.62  50 2.66  49 2.69  28 3.43  36 3.43  29 3.45  33 3.45  35 3.45
                            31 3.47  14 3.52
  33  0.556  0.834  0.679-  54 2.60  51 2.66  50 2.68  34 3.42  29 3.43  31 3.45  32 3.45  36 3.45
                            30 3.46  15 3.51
  34  0.889  0.167  0.679-  46 2.62  52 2.67  54 2.69  33 3.42  29 3.43  31 3.45  28 3.45  36 3.46
                            35 3.46  16 3.52
  35  0.889  0.500  0.679-  47 2.62  53 2.66  52 2.68  31 3.43  30 3.43  36 3.45  32 3.45  29 3.46
                            34 3.46  17 3.52
  36  0.889  0.833  0.679-  48 2.60  54 2.68  53 2.69  28 3.43  32 3.43  35 3.45  30 3.45  33 3.45
                            34 3.46  18 3.52
  37  0.000  0.000  0.381-   1 2.62  27 2.62   3 2.65  21 2.67  19 2.69   9 2.69  41 3.43  45 3.43
                            40 3.45  39 3.45  43 3.46  38 3.46
  38  0.000  0.334  0.381-   2 2.61  25 2.62   1 2.66  19 2.67  20 2.68   7 2.69  42 3.42  43 3.43
                            41 3.44  44 3.45  39 3.46  37 3.46
  39  1.000  0.667  0.381-  26 2.61   3 2.62   2 2.66  20 2.67  21 2.68   8 2.69  44 3.42  40 3.43
                            45 3.45  37 3.45  42 3.45  38 3.46
  40  0.333  0.000  0.381-  21 2.62   4 2.62   6 2.66  24 2.66  22 2.68   3 2.69  39 3.43  44 3.44
                            37 3.45  43 3.45  42 3.45  41 3.46
  41  0.333  0.334  0.381-  19 2.61   5 2.63   4 2.67  22 2.67  23 2.68   1 2.69  37 3.43  45 3.43
                            38 3.44  42 3.45  40 3.46  44 3.46
  42  0.333  0.667  0.381-  20 2.60   6 2.63  23 2.67   5 2.67   2 2.68  24 2.69  38 3.42  43 3.43
                            41 3.45  39 3.45  40 3.45  45 3.46
  43  0.667  0.000  0.381-   7 2.61  24 2.62   9 2.66  27 2.67  25 2.69   6 2.69  38 3.43  42 3.43
                            40 3.45  37 3.46  44 3.46  45 3.46
  44  0.668  0.334  0.381-   8 2.61  22 2.62   7 2.65  25 2.67   4 2.69  26 2.69  39 3.42  40 3.44
                            45 3.45  38 3.45  43 3.46  41 3.46
  45  0.667  0.666  0.381-  23 2.61   9 2.62  26 2.66   8 2.66  27 2.69   5 2.69  41 3.43  37 3.43
                            39 3.45  44 3.45  42 3.46  43 3.46
  46  0.112  0.278  0.619-  34 2.62  11 2.62  10 2.66  28 2.66  29 2.69  16 2.70  50 3.43  54 3.44
                            49 3.44  48 3.46  47 3.46  52 3.46
  47  0.111  0.611  0.619-  35 2.62  12 2.62  11 2.66  29 2.67  17 2.69  30 2.69  52 3.43  51 3.43
                            53 3.45  50 3.45  48 3.45  46 3.46
  48  0.110  0.944  0.619-  36 2.60  10 2.62  12 2.66  30 2.67  18 2.68  28 2.69  53 3.42  49 3.43
                            47 3.45  54 3.46  46 3.46  51 3.46
  49  0.444  0.278  0.619-  28 2.61  14 2.62  13 2.67  31 2.67  10 2.68  32 2.69  53 3.43  48 3.43
                            46 3.44  50 3.45  52 3.45  51 3.46
  50  0.445  0.611  0.619-  15 2.61  29 2.62  14 2.66  32 2.66  33 2.68  11 2.69  54 3.42  46 3.43
                            49 3.45  47 3.45  53 3.45  51 3.46
  51  0.445  0.945  0.619-  30 2.61  13 2.62  15 2.66  33 2.66  31 2.67  12 2.69  52 3.43  47 3.43
                            54 3.44  50 3.46  49 3.46  48 3.46
  52  0.778  0.278  0.619-  31 2.60  17 2.62  16 2.66  34 2.67  35 2.68  13 2.69  51 3.43  47 3.43
                            53 3.45  49 3.45  54 3.46  46 3.46
  53  0.778  0.611  0.619-  18 2.62  32 2.62  17 2.66  35 2.66  36 2.69  14 2.69  48 3.42  49 3.43
                            52 3.45  47 3.45  50 3.45  54 3.46
  54  0.777  0.944  0.619-  33 2.60  16 2.62  18 2.66  36 2.68  15 2.68  34 2.69  50 3.42  46 3.44
                            51 3.44  48 3.46  52 3.46  53 3.46
 

IMPORTANT INFORMATION: All symmetrisations will be switched off!
NOSYMM: (Re-)initialisation of all symmetry stuff for point group C_1.


----------------------------------------------------------------------------------------

                                     Primitive cell                                     

  volume of cell :    2691.8646

  direct lattice vectors                    reciprocal lattice vectors
    10.356930995  0.000000000  0.000000000     0.096553699  0.056855349 -0.003231802
    -5.260025681  8.932755662  0.000000000     0.000000000  0.111947538 -0.002893714
     0.531021921  0.752103689 29.096227154     0.000000000  0.000000000  0.034368717

  length of vectors
    10.356930995 10.366387697 29.110789733     0.112096352  0.111984931  0.034368717

  position of ions in fractional coordinates (direct lattice)
     0.111340087  0.222455183  0.320687210
     0.111435759  0.555799605  0.320784529
     0.110776933  0.889594358  0.320649886
     0.444847727  0.222417301  0.320894011
     0.444831702  0.555642275  0.320385369
     0.444080534  0.888863520  0.320457212
     0.777564567  0.222702724  0.320773265
     0.778208779  0.555212841  0.320733344
     0.777279733  0.888976407  0.320524587
     0.222491253  0.166827103  0.558484993
     0.222204186  0.500123535  0.558410738
     0.222532687  0.833069827  0.558395015
     0.556005807  0.166931917  0.558483665
     0.555225117  0.499843264  0.558405928
     0.554944829  0.832904188  0.558520937
     0.888510562  0.167243816  0.558421102
     0.888931000  0.499841679  0.558466822
     0.888908514  0.833413638  0.558452347
     0.111113297  0.222215094  0.441538997
     0.111893248  0.556083017  0.441395378
     0.110703619  0.888193786  0.441571504
     0.444606629  0.221678866  0.441500172
     0.444685136  0.555144174  0.441511948
     0.444402289  0.889035807  0.441551828
     0.777854471  0.222209473  0.441572068
     0.777706645  0.556061201  0.441578193
     0.777686017  0.888840169  0.441537433
     0.222351540  0.166740495  0.679393889
     0.222357520  0.500198570  0.679490277
     0.222743600  0.834258807  0.679245227
     0.555699583  0.166003404  0.679177311
     0.555101394  0.500233492  0.679477611
     0.556438953  0.833826864  0.679105248
     0.889046044  0.166587908  0.679398259
     0.888569878  0.500483339  0.679457721
     0.889475810  0.833446056  0.679286724
     0.000301533  0.000030950  0.380871755
     0.000493647  0.333777611  0.381062872
     0.999879763  0.666967196  0.381209970
     0.333443037  0.000065925  0.381178319
     0.332760171  0.333576874  0.381289472
     0.333006485  0.666614547  0.381229165
     0.666851389  0.000395421  0.380985892
     0.667550416  0.334166785  0.381014464
     0.666614476  0.666491179  0.381127878
     0.111665303  0.277836673  0.618954813
     0.111066386  0.610955519  0.618935361
     0.110280918  0.943751683  0.618795367
     0.443918300  0.277931464  0.619003466
     0.444514892  0.611145649  0.618926112
     0.444955294  0.944809407  0.618992037
     0.777508621  0.278357902  0.619061545
     0.778176547  0.611304484  0.618875511
     0.777007918  0.944439808  0.618770921

  ion indices of the primitive-cell ions
   primitive index   ion index
                 1           1
                 2           2
                 3           3
                 4           4
                 5           5
                 6           6
                 7           7
                 8           8
                 9           9
                10          10
                11          11
                12          12
                13          13
                14          14
                15          15
                16          16
                17          17
                18          18
                19          19
                20          20
                21          21
                22          22
                23          23
                24          24
                25          25
                26          26
                27          27
                28          28
                29          29
                30          30
                31          31
                32          32
                33          33
                34          34
                35          35
                36          36
                37          37
                38          38
                39          39
                40          40
                41          41
                42          42
                43          43
                44          44
                45          45
                46          46
                47          47
                48          48
                49          49
                50          50
                51          51
                52          52
                53          53
                54          54

----------------------------------------------------------------------------------------

 
 

Automatic generation of k-mesh.
 generate k-points for:    3    3    1
Space group operators:
 irot       det(A)        alpha          n_x          n_y          n_z        tau_x        tau_y        tau_z
    1     1.000000     0.000000     1.000000     0.000000     0.000000     0.000000     0.000000     0.000000
 
 Subroutine IBZKPT returns following result:
 ===========================================
 
 Found      5 irreducible k-points:
 
 Following reciprocal coordinates:
            Coordinates               Weight
  0.000000  0.000000  0.000000      1.000000
  0.333333  0.000000 -0.000000      2.000000
  0.000000  0.333333  0.000000      2.000000
  0.333333  0.333333 -0.000000      2.000000
 -0.333333  0.333333 -0.000000      2.000000
 
 Following cartesian coordinates:
            Coordinates               Weight
  0.000000  0.000000  0.000000      1.000000
  0.032185  0.018952 -0.001077      2.000000
  0.000000  0.037316 -0.000965      2.000000
  0.032185  0.056268 -0.002042      2.000000
 -0.032185  0.018364  0.000113      2.000000
 


--------------------------------------------------------------------------------------------------------




 Dimension of arrays:
   k-points           NKPTS =      5   k-points in BZ     NKDIM =      5   number of bands    NBANDS=    200
   number of dos      NEDOS =    301   number of ions     NIONS =     54
   non local maximal  LDIM  =      6   non local SUM 2l+1 LMDIM =     18
   total plane-waves  NPLWV = ******
   max r-space proj   IRMAX =      1   max aug-charges    IRDMAX=  34389
   dimension x,y,z NGX =    80 NGY =   80 NGZ =  224
   dimension x,y,z NGXF=   160 NGYF=  160 NGZF=  448
   support grid    NGXF=   160 NGYF=  160 NGZF=  448
   ions per type =              36  18
   NGX,Y,Z   is equivalent  to a cutoff of  12.84, 12.83, 12.79 a.u.
   NGXF,Y,Z  is equivalent  to a cutoff of  25.68, 25.66, 25.58 a.u.

 SYSTEM =  dpgen_md                                
 POSCAR =  Te Mo                                   

 Startparameter for this run:
   NWRITE =      2    write-flag & timer
   PREC   = a         normal or accurate (medium, high low for compatibility)
   ISTART =      0    job   : 0-new  1-cont  2-samecut
   ICHARG =      2    charge: 1-file 2-atom 10-const
   ISPIN  =      1    spin polarized calculation?
   LNONCOLLINEAR =      F non collinear calculations
   LSORBIT =      F    spin-orbit coupling
   INIWAV =      1    electr: 0-lowe 1-rand  2-diag
   LASPH  =      F    aspherical Exc in radial PAW
   METAGGA=      F    non-selfconsistent MetaGGA calc.

 Electronic Relaxation 1
   ENCUT  =  550.0 eV  40.42 Ry    6.36 a.u.  19.80 19.82 55.67*2*pi/ulx,y,z
   ENINI  =  550.0     initial cutoff
   ENAUG  =  368.8 eV  augmentation charge cutoff
   NELM   =    100;   NELMIN=  6; NELMDL= -5     # of ELM steps 
   EDIFF  = 0.1E-05   stopping-criterion for ELM
   LREAL  =      F    real-space projection
   NLSPLINE    = F    spline interpolate recip. space projectors
   LCOMPAT=      F    compatible to vasp.4.4
   GGA_COMPAT  = T    GGA compatible to vasp.4.4-vasp.4.6
   LMAXPAW     = -100 max onsite density
   LMAXMIX     =    2 max onsite mixed and CHGCAR
   VOSKOWN=      0    Vosko Wilk Nusair interpolation
   ROPT   =    0.00000   0.00000
 Ionic relaxation
   EDIFFG = 0.1E-04   stopping-criterion for IOM
   NSW    =     10    number of steps for IOM
   NBLOCK =      1;   KBLOCK =      1    inner block; outer block 
   IBRION =      0    ionic relax: 0-MD 1-quasi-New 2-CG
   NFREE  =      0    steps in history (QN), initial steepest desc. (CG)
   ISIF   =      2    stress and relaxation
   IWAVPR =     11    prediction:  0-non 1-charg 2-wave 3-comb
   ISYM   =      0    0-nonsym 1-usesym 2-fastsym
   LCORR  =      T    Harris-Foulkes like correction to forces

   POTIM  = 2.0000    time-step for ionic-motion
   TEIN   =  100.0    initial temperature
   TEBEG  =  100.0;   TEEND  = 100.0 temperature during run
   SMASS  =   0.04    Nose mass-parameter (am)
   estimated Nose-frequenzy (Omega)   =  0.79E+14 period in steps = 0.40E+02 mass=   0.327E-28a.u.
   SCALEE = 1.0000    scale energy and forces
   NPACO  =    256;   APACO  = 16.0  distance and # of slots for P.C.
   PSTRESS=    0.0 pullay stress

  Mass of Ions in am
   POMASS = 127.60 95.94
  Ionic Valenz
   ZVAL   =   6.00  6.00
  Atomic Wigner-Seitz radii
   RWIGS  =  -1.00 -1.00
  virtual crystal weights 
   VCA    =   1.00  1.00
   NELECT =     324.0000    total number of electrons
   NUPDOWN=      -1.0000    fix difference up-down

 DOS related values:
   EMIN   =  10.00;   EMAX   =-10.00  energy-range for DOS
   EFERMI =   0.00
   ISMEAR =     0;   SIGMA  =   0.10  broadening in eV -4-tet -1-fermi 0-gaus

 Electronic relaxation 2 (details)
   IALGO  =     68    algorithm
   LDIAG  =      T    sub-space diagonalisation (order eigenvalues)
   LSUBROT=      F    optimize rotation matrix (better conditioning)
   TURBO    =      0    0=normal 1=particle mesh
   IRESTART =      0    0=no restart 2=restart with 2 vectors
   NREBOOT  =      0    no. of reboots
   NMIN     =      0    reboot dimension
   EREF     =   0.00    reference energy to select bands
   IMIX   =      4    mixing-type and parameters
     AMIX     =   0.40;   BMIX     =  1.00
     AMIX_MAG =   1.60;   BMIX_MAG =  1.00
     AMIN     =   0.10
     WC   =   100.;   INIMIX=   1;  MIXPRE=   1;  MAXMIX= -45

 Intra band minimization:
   WEIMIN = 0.0010     energy-eigenvalue tresh-hold
   EBREAK =  0.13E-08  absolut break condition
   DEPER  =   0.30     relativ break condition  

   TIME   =   0.40     timestep for ELM

  volume/ion in A,a.u.               =      49.85       336.40
  Fermi-wavevector in a.u.,A,eV,Ry     =   0.808299  1.527464  8.889332  0.653347
  Thomas-Fermi vector in A             =   1.917079
 
 Write flags
   LWAVE        =      F    write WAVECAR
   LDOWNSAMPLE  =      F    k-point downsampling of WAVECAR
   LCHARG       =      F    write CHGCAR
   LVTOT        =      F    write LOCPOT, total local potential
   LVHAR        =      F    write LOCPOT, Hartree potential only
   LELF         =      F    write electronic localiz. function (ELF)
   LORBIT       =      0    0 simple, 1 ext, 2 COOP (PROOUT), +10 PAW based schemes


 Dipole corrections
   LMONO  =      F    monopole corrections only (constant potential shift)
   LDIPOL =      F    correct potential (dipole corrections)
   IDIPOL =      0    1-x, 2-y, 3-z, 4-all directions 
   EPSILON=  1.0000000 bulk dielectric constant

 Exchange correlation treatment:
   GGA     =    --    GGA type
   LEXCH   =     8    internal setting for exchange type
   VOSKOWN=      0    Vosko Wilk Nusair interpolation
   LHFCALC =     F    Hartree Fock is set to
   LHFONE  =     F    Hartree Fock one center treatment
   AEXX    =    0.0000 exact exchange contribution

 Linear response parameters
   LEPSILON=     F    determine dielectric tensor
   LRPA    =     F    only Hartree local field effects (RPA)
   LNABLA  =     F    use nabla operator in PAW spheres
   LVEL    =     F    velocity operator in full k-point grid
   LINTERFAST=   F  fast interpolation
   KINTER  =     0    interpolate to denser k-point grid
   CSHIFT  =0.1000    complex shift for real part using Kramers Kronig
   OMEGAMAX=  -1.0    maximum frequency
   DEG_THRESHOLD= 0.2000000E-02 threshold for treating states as degnerate
   RTIME   =   -0.100 relaxation time in fs
  (WPLASMAI=    0.000 imaginary part of plasma frequency in eV, 0.658/RTIME)
   DFIELD  = 0.0000000 0.0000000 0.0000000 field for delta impulse in time
 
 Orbital magnetization related:
   ORBITALMAG=     F  switch on orbital magnetization
   LCHIMAG   =     F  perturbation theory with respect to B field
   DQ        =  0.001000  dq finite difference perturbation B field
   LLRAUG    =     F  two centre corrections for induced B field



--------------------------------------------------------------------------------------------------------


 molecular dynamics for ions
   using nose mass (canonical ensemble)
 charge density and potential will be updated during run
 non-spin polarized calculation
 RMM-DIIS sequential band-by-band and
  variant of blocked Davidson during initial phase
 perform sub-space diagonalisation
    before iterative eigenvector-optimisation
 modified Broyden-mixing scheme, WC =      100.0
 initial mixing is a Kerker type mixing with AMIX =  0.4000 and BMIX =      1.0000
 Hartree-type preconditioning will be used
 using additional bands           38
 reciprocal scheme for non local part
 use partial core corrections
 calculate Harris-corrections to forces 
   (improved forces if not selfconsistent)
 use gradient corrections 
 use of overlap-Matrix (Vanderbilt PP)
 Gauss-broadening in eV      SIGMA  =   0.10


--------------------------------------------------------------------------------------------------------


  energy-cutoff  :      550.00
  volume of cell :     2691.86
      direct lattice vectors                 reciprocal lattice vectors
    10.356930995  0.000000000  0.000000000     0.096553699  0.056855349 -0.003231802
    -5.260025681  8.932755662  0.000000000     0.000000000  0.111947538 -0.002893714
     0.531021921  0.752103689 29.096227154     0.000000000  0.000000000  0.034368717

  length of vectors
    10.356930995 10.366387697 29.110789733     0.112096352  0.111984931  0.034368717


 
 k-points in units of 2pi/SCALE and weight: read from INCAR                         
   0.00000000  0.00000000  0.00000000       0.111
   0.03218457  0.01895178 -0.00107727       0.222
   0.00000000  0.03731585 -0.00096457       0.222
   0.03218457  0.05626763 -0.00204184       0.222
  -0.03218457  0.01836406  0.00011270       0.222
 
 k-points in reciprocal lattice and weights: read from INCAR                         
   0.00000000  0.00000000  0.00000000       0.111
   0.33333333  0.00000000 -0.00000000       0.222
   0.00000000  0.33333333  0.00000000       0.222
   0.33333333  0.33333333 -0.00000000       0.222
  -0.33333333  0.33333333 -0.00000000       0.222
 
 position of ions in fractional coordinates (direct lattice) 
   0.11134009  0.22245518  0.32068721
   0.11143576  0.55579961  0.32078453
   0.11077693  0.88959436  0.32064989
   0.44484773  0.22241730  0.32089401
   0.44483170  0.55564227  0.32038537
   0.44408053  0.88886352  0.32045721
   0.77756457  0.22270272  0.32077327
   0.77820878  0.55521284  0.32073334
   0.77727973  0.88897641  0.32052459
   0.22249125  0.16682710  0.55848499
   0.22220419  0.50012353  0.55841074
   0.22253269  0.83306983  0.55839502
   0.55600581  0.16693192  0.55848367
   0.55522512  0.49984326  0.55840593
   0.55494483  0.83290419  0.55852094
   0.88851056  0.16724382  0.55842110
   0.88893100  0.49984168  0.55846682
   0.88890851  0.83341364  0.55845235
   0.11111330  0.22221509  0.44153900
   0.11189325  0.55608302  0.44139538
   0.11070362  0.88819379  0.44157150
   0.44460663  0.22167887  0.44150017
   0.44468514  0.55514417  0.44151195
   0.44440229  0.88903581  0.44155183
   0.77785447  0.22220947  0.44157207
   0.77770665  0.55606120  0.44157819
   0.77768602  0.88884017  0.44153743
   0.22235154  0.16674050  0.67939389
   0.22235752  0.50019857  0.67949028
   0.22274360  0.83425881  0.67924523
   0.55569958  0.16600340  0.67917731
   0.55510139  0.50023349  0.67947761
   0.55643895  0.83382686  0.67910525
   0.88904604  0.16658791  0.67939826
   0.88856988  0.50048334  0.67945772
   0.88947581  0.83344606  0.67928672
   0.00030153  0.00003095  0.38087176
   0.00049365  0.33377761  0.38106287
   0.99987976  0.66696720  0.38120997
   0.33344304  0.00006592  0.38117832
   0.33276017  0.33357687  0.38128947
   0.33300648  0.66661455  0.38122917
   0.66685139  0.00039542  0.38098589
   0.66755042  0.33416679  0.38101446
   0.66661448  0.66649118  0.38112788
   0.11166530  0.27783667  0.61895481
   0.11106639  0.61095552  0.61893536
   0.11028092  0.94375168  0.61879537
   0.44391830  0.27793146  0.61900347
   0.44451489  0.61114565  0.61892611
   0.44495529  0.94480941  0.61899204
   0.77750862  0.27835790  0.61906154
   0.77817655  0.61130448  0.61887551
   0.77700792  0.94443981  0.61877092
 
 position of ions in cartesian coordinates  (Angst):
   0.15331356  2.22832783  9.33078791
  -1.59904411  5.20608530  9.33361954
  -3.36170799  8.18769100  9.32970193
   3.60773825  2.22814497  9.33680503
   1.85453027  5.20437969  9.32200548
   0.09403631  8.18101769  9.32409582
   7.05209815  2.23060378  9.33329179
   5.30973726  5.20080538  9.33213022
   3.54439941  8.18207676  9.32605619
   1.72337948  1.91026437 16.24980620
  -0.03278087  4.88746411 16.24764568
  -1.78069301  7.86158016 16.24718821
   5.17701468  1.91119965 16.24976758
   3.41776560  4.88495690 16.24750571
   1.66301474  7.86019526 16.25085205
   8.61906966  1.91393871 16.24794723
   6.87397508  4.88498855 16.24927752
   5.11913744  7.86469446 16.24885635
   0.21640254  2.31707624 12.84711896
  -1.53174968  5.29932881 12.84294019
  -3.29088824  8.26612563 12.84806479
   3.67316992  2.31225706 12.84598931
   1.91995318  5.29103003 12.84633192
   0.16076636  8.27363240 12.84749230
   7.12184199  2.31705091 12.84808120
   5.36424556  5.29927143 12.84825940
   3.61358435  8.27187398 12.84707344
   1.78659331  2.00042675 19.76779893
   0.03270839  4.97919875 19.77060345
  -1.72058855  7.96309293 19.76347341
   5.24281811  1.99367960 19.76149732
   3.47872332  4.97950118 19.77023492
   1.73766889  7.95912921 19.75940056
   8.69230722  1.99906702 19.76792608
   6.93110863  4.98171804 19.76965619
   5.18900807  7.95586402 19.76468082
   0.20521141  0.28673152 11.08193111
  -1.54821340  3.26815264 11.08749188
   7.04985198  6.24456442 11.09177188
   3.65551380  0.28727451 11.09085096
   1.89422427  3.26652993 11.09408508
   0.14495659  6.24142873 11.09233039
   7.10676576  0.29007309 11.08525205
   5.35837475  3.27159263 11.08608338
   3.60070667  6.24025054 11.08938331
   0.02376037  2.94736532 18.00924985
  -1.73466658  5.92301994 18.00868386
  -3.49339232  8.89570147 18.00461055
   3.46440898  2.94824865 18.01066547
   1.71783159  5.92471137 18.00841475
  -0.03265213  8.90529777 18.01033292
   6.91716868  2.95210159 18.01235534
   5.17267997  5.92609215 18.00694246
   3.40822067  8.90182994 18.00389928
 


--------------------------------------------------------------------------------------------------------


 k-point   1 :   0.0000 0.0000 0.0000  plane waves:   78867
 k-point   2 :   0.3333 0.0000-0.0000  plane waves:   78804
 k-point   3 :   0.0000 0.3333 0.0000  plane waves:   78826
 k-point   4 :   0.3333 0.3333-0.0000  plane waves:   78849
 k-point   5 :  -0.3333 0.3333-0.0000  plane waves:   78882

 maximum and minimum number of plane-waves per node :     78882    78804

 maximum number of plane-waves:     78882
 maximum index in each direction: 
   IXMAX=   20   IYMAX=   19   IZMAX=   55
   IXMIN=  -20   IYMIN=  -20   IZMIN=  -55


 serial   3D FFT for wavefunctions
 parallel 3D FFT for charge:
    minimum data exchange during FFTs selected (reduces bandwidth)


 total amount of memory used by VASP MPI-rank0   333548. kBytes
=======================================================================

   base      :      30000. kBytes
   nonl-proj :     181831. kBytes
   fftplans  :      15437. kBytes
   grid      :      73553. kBytes
   one-center:        839. kBytes
   wavefun   :      31888. kBytes
 
     INWAV:  cpu time    0.0000: real time    0.0000
 Broyden mixing: mesh for mixing (old mesh)
   NGX = 39   NGY = 39   NGZ =111
  (NGX  =160   NGY  =160   NGZ  =448)
  gives a total of 168831 points

 initial charge density was supplied:
 charge density of overlapping atoms calculated
 number of electron     324.0000000 magnetization 
 keeping initial charge density in first step


--------------------------------------------------------------------------------------------------------


 Maximum index for augmentation-charges         1133 (set IRDMAX)


--------------------------------------------------------------------------------------------------------


 First call to EWALD:  gamma=   0.127
 Maximum number of real-space cells 4x 4x 2
 Maximum number of reciprocal cells 2x 2x 5

    FEWALD:  cpu time    0.0021: real time    0.0021


--------------------------------------- Iteration      1(   1)  ---------------------------------------


    POTLOK:  cpu time    0.2541: real time    0.2553
    SETDIJ:  cpu time    0.0108: real time    0.0109
     EDDAV:  cpu time   44.7052: real time   44.8121
       DOS:  cpu time    0.0009: real time    0.0010
    --------------------------------------------
      LOOP:  cpu time   44.9710: real time   45.0793

 eigenvalue-minimisations  :  2000
 total energy-change (2. order) : 0.2180152E+04  (-0.1177041E+05)
 number of electron     324.0000000 magnetization 
 augmentation part      324.0000000 magnetization 

 Free energy of the ion-electron system (eV)
  ---------------------------------------------------
  alpha Z        PSCENC =       266.60559765
  Ewald energy   TEWEN  =     63238.72708544
  -Hartree energ DENC   =    -74993.96824703
  -exchange      EXHF   =         0.00000000
  -V(xc)+E(xc)   XCENC  =     -2091.13629425
  PAW double counting   =      7476.04436201    -4809.59211051
  entropy T*S    EENTRO =        -0.12457552
  eigenvalues    EBANDS =      1140.51347215
  atomic energy  EATOM  =     11953.08265402
  Solvation  Ediel_sol  =         0.00000000
  ---------------------------------------------------
  free energy    TOTEN  =      2180.15194398 eV

  energy without entropy =     2180.27651949  energy(sigma->0) =     2180.21423173


--------------------------------------------------------------------------------------------------------




--------------------------------------- Iteration      1(   2)  ---------------------------------------


     EDDAV:  cpu time   62.5421: real time   62.7085
       DOS:  cpu time    0.0006: real time    0.0006
    --------------------------------------------
      LOOP:  cpu time   62.5427: real time   62.7091

 eigenvalue-minimisations  :  3040
 total energy-change (2. order) :-0.2273618E+04  (-0.2194599E+04)
 number of electron     324.0000000 magnetization 
 augmentation part      324.0000000 magnetization 

 Free energy of the ion-electron system (eV)
  ---------------------------------------------------
  alpha Z        PSCENC =       266.60559765
  Ewald energy   TEWEN  =     63238.72708544
  -Hartree energ DENC   =    -74993.96824703
  -exchange      EXHF   =         0.00000000
  -V(xc)+E(xc)   XCENC  =     -2091.13629425
  PAW double counting   =      7476.04436201    -4809.59211051
  entropy T*S    EENTRO =        -0.02482197
  eigenvalues    EBANDS =     -1133.20378683
  atomic energy  EATOM  =     11953.08265402
  Solvation  Ediel_sol  =         0.00000000
  ---------------------------------------------------
  free energy    TOTEN  =       -93.46556145 eV

  energy without entropy =      -93.44073948  energy(sigma->0) =      -93.45315047


--------------------------------------------------------------------------------------------------------




--------------------------------------- Iteration      1(   3)  ---------------------------------------


     EDDAV:  cpu time   52.9061: real time   53.0067
       DOS:  cpu time    0.0004: real time    0.0004
    --------------------------------------------
      LOOP:  cpu time   52.9065: real time   53.0070

 eigenvalue-minimisations  :  2480
 total energy-change (2. order) :-0.2264168E+03  (-0.2225576E+03)
 number of electron     324.0000000 magnetization 
 augmentation part      324.0000000 magnetization 

 Free energy of the ion-electron system (eV)
  ---------------------------------------------------
  alpha Z        PSCENC =       266.60559765
  Ewald energy   TEWEN  =     63238.72708544
  -Hartree energ DENC   =    -74993.96824703
  -exchange      EXHF   =         0.00000000
  -V(xc)+E(xc)   XCENC  =     -2091.13629425
  PAW double counting   =      7476.04436201    -4809.59211051
  entropy T*S    EENTRO =        -0.00000000
  eigenvalues    EBANDS =     -1359.64543783
  atomic energy  EATOM  =     11953.08265402
  Solvation  Ediel_sol  =         0.00000000
  ---------------------------------------------------
  free energy    TOTEN  =      -319.88239048 eV

  energy without entropy =     -319.88239048  energy(sigma->0) =     -319.88239048


--------------------------------------------------------------------------------------------------------




--------------------------------------- Iteration      1(   4)  ---------------------------------------


     EDDAV:  cpu time   63.2875: real time   63.4329
       DOS:  cpu time    0.0004: real time    0.0004
    --------------------------------------------
      LOOP:  cpu time   63.2879: real time   63.4333

 eigenvalue-minimisations  :  3080
 total energy-change (2. order) :-0.1118444E+02  (-0.1110633E+02)
 number of electron     324.0000000 magnetization 
 augmentation part      324.0000000 magnetization 

 Free energy of the ion-electron system (eV)
  ---------------------------------------------------
  alpha Z        PSCENC =       266.60559765
  Ewald energy   TEWEN  =     63238.72708544
  -Hartree energ DENC   =    -74993.96824703
  -exchange      EXHF   =         0.00000000
  -V(xc)+E(xc)   XCENC  =     -2091.13629425
  PAW double counting   =      7476.04436201    -4809.59211051
  entropy T*S    EENTRO =        -0.00000000
  eigenvalues    EBANDS =     -1370.82987548
  atomic energy  EATOM  =     11953.08265402
  Solvation  Ediel_sol  =         0.00000000
  ---------------------------------------------------
  free energy    TOTEN  =      -331.06682813 eV

  energy without entropy =     -331.06682813  energy(sigma->0) =     -331.06682813


--------------------------------------------------------------------------------------------------------




--------------------------------------- Iteration      1(   5)  ---------------------------------------


     EDDAV:  cpu time   61.1072: real time   61.2313
       DOS:  cpu time    0.0004: real time    0.0004
    CHARGE:  cpu time    1.0394: real time    1.0407
    MIXING:  cpu time    0.0066: real time    0.0068
    --------------------------------------------
      LOOP:  cpu time   62.1536: real time   62.2791

 eigenvalue-minimisations  :  2960
 total energy-change (2. order) :-0.2925491E+00  (-0.2920016E+00)
 number of electron     324.0000000 magnetization 
 augmentation part      -24.4621498 magnetization 

 Broyden mixing:
  rms(total) = 0.17521E+01    rms(broyden)= 0.17521E+01
  rms(prec ) = 0.18530E+01
  weight for this iteration     100.00

 Free energy of the ion-electron system (eV)
  ---------------------------------------------------
  alpha Z        PSCENC =       266.60559765
  Ewald energy   TEWEN  =     63238.72708544
  -Hartree energ DENC   =    -74993.96824703
  -exchange      EXHF   =         0.00000000
  -V(xc)+E(xc)   XCENC  =     -2091.13629425
  PAW double counting   =      7476.04436201    -4809.59211051
  entropy T*S    EENTRO =        -0.00000000
  eigenvalues    EBANDS =     -1371.12242459
  atomic energy  EATOM  =     11953.08265402
  Solvation  Ediel_sol  =         0.00000000
  ---------------------------------------------------
  free energy    TOTEN  =      -331.35937725 eV

  energy without entropy =     -331.35937725  energy(sigma->0) =     -331.35937725


--------------------------------------------------------------------------------------------------------




--------------------------------------- Iteration      1(   6)  ---------------------------------------


    POTLOK:  cpu time    0.2170: real time    0.2172
    SETDIJ:  cpu time    0.0107: real time    0.0107
    EDDIAG:  cpu time    2.2627: real time    2.2680
  RMM-DIIS:  cpu time   36.4252: real time   36.5089
    ORTHCH:  cpu time    0.2020: real time    0.2023
       DOS:  cpu time    0.0004: real time    0.0004
    CHARGE:  cpu time    1.0383: real time    1.0394
    MIXING:  cpu time    0.0063: real time    0.0065
    --------------------------------------------
      LOOP:  cpu time   40.1626: real time   40.2533

 eigenvalue-minimisations  :  2037
 total energy-change (2. order) : 0.8616231E+01  (-0.2575603E+01)
 number of electron     324.0000000 magnetization 
 augmentation part      -21.0859228 magnetization 

 Broyden mixing:
  rms(total) = 0.70989E+00    rms(broyden)= 0.70988E+00
  rms(prec ) = 0.78034E+00
  weight for this iteration     100.00

 eigenvalues of (default mixing * dielectric matrix)
  average eigenvalue GAMMA=   1.3631
  1.3631

 Free energy of the ion-electron system (eV)
  ---------------------------------------------------
  alpha Z        PSCENC =       266.60559765
  Ewald energy   TEWEN  =     63238.72708544
  -Hartree energ DENC   =    -75004.03916078
  -exchange      EXHF   =         0.00000000
  -V(xc)+E(xc)   XCENC  =     -2084.87836781
  PAW double counting   =      7847.15741299    -5193.80824223
  entropy T*S    EENTRO =        -0.00000000
  eigenvalues    EBANDS =     -1345.59012576
  atomic energy  EATOM  =     11953.08265402
  Solvation  Ediel_sol  =         0.00000000
  ---------------------------------------------------
  free energy    TOTEN  =      -322.74314647 eV

  energy without entropy =     -322.74314647  energy(sigma->0) =     -322.74314647


--------------------------------------------------------------------------------------------------------




--------------------------------------- Iteration      1(   7)  ---------------------------------------


    POTLOK:  cpu time    0.2166: real time    0.2168
    SETDIJ:  cpu time    0.0113: real time    0.0113
    EDDIAG:  cpu time    2.2637: real time    2.2661
  RMM-DIIS:  cpu time   35.4259: real time   35.5068
    ORTHCH:  cpu time    0.2018: real time    0.2020
       DOS:  cpu time    0.0004: real time    0.0004
    CHARGE:  cpu time    1.0383: real time    1.0431
    MIXING:  cpu time    0.0062: real time    0.0062
    --------------------------------------------
      LOOP:  cpu time   39.1640: real time   39.2527

 eigenvalue-minimisations  :  2000
 total energy-change (2. order) : 0.2375626E+01  (-0.9265873E+00)
 number of electron     324.0000000 magnetization 
 augmentation part      -21.5755558 magnetization 

 Broyden mixing:
  rms(total) = 0.34987E+00    rms(broyden)= 0.34987E+00
  rms(prec ) = 0.36922E+00
  weight for this iteration     100.00

 eigenvalues of (default mixing * dielectric matrix)
  average eigenvalue GAMMA=   1.5262
  0.8613  2.1912

 Free energy of the ion-electron system (eV)
  ---------------------------------------------------
  alpha Z        PSCENC =       266.60559765
  Ewald energy   TEWEN  =     63238.72708544
  -Hartree energ DENC   =    -75089.03703442
  -exchange      EXHF   =         0.00000000
  -V(xc)+E(xc)   XCENC  =     -2081.58986685
  PAW double counting   =      8271.07212885    -5626.51268903
  entropy T*S    EENTRO =        -0.00000000
  eigenvalues    EBANDS =     -1252.71539637
  atomic energy  EATOM  =     11953.08265402
  Solvation  Ediel_sol  =         0.00000000
  ---------------------------------------------------
  free energy    TOTEN  =      -320.36752071 eV

  energy without entropy =     -320.36752071  energy(sigma->0) =     -320.36752071


--------------------------------------------------------------------------------------------------------




--------------------------------------- Iteration      1(   8)  ---------------------------------------


    POTLOK:  cpu time    0.2174: real time    0.2176
    SETDIJ:  cpu time    0.0110: real time    0.0110
    EDDIAG:  cpu time    2.2884: real time    2.2938
  RMM-DIIS:  cpu time   36.4072: real time   36.4751
    ORTHCH:  cpu time    0.2041: real time    0.2043
       DOS:  cpu time    0.0004: real time    0.0004
    CHARGE:  cpu time    1.0327: real time    1.0369
    MIXING:  cpu time    0.0063: real time    0.0063
    --------------------------------------------
      LOOP:  cpu time   40.1676: real time   40.2454

 eigenvalue-minimisations  :  2024
 total energy-change (2. order) : 0.1879203E+00  (-0.3639325E+00)
 number of electron     324.0000000 magnetization 
 augmentation part      -21.0932053 magnetization 

 Broyden mixing:
  rms(total) = 0.95051E-01    rms(broyden)= 0.95051E-01
  rms(prec ) = 0.10493E+00
  weight for this iteration     100.00

 eigenvalues of (default mixing * dielectric matrix)
  average eigenvalue GAMMA=   1.4241
  2.1736  1.3050  0.7937

 Free energy of the ion-electron system (eV)
  ---------------------------------------------------
  alpha Z        PSCENC =       266.60559765
  Ewald energy   TEWEN  =     63238.72708544
  -Hartree energ DENC   =    -75132.12938394
  -exchange      EXHF   =         0.00000000
  -V(xc)+E(xc)   XCENC  =     -2078.40967935
  PAW double counting   =      8574.55267190    -5935.64013743
  entropy T*S    EENTRO =        -0.00000000
  eigenvalues    EBANDS =     -1206.96840870
  atomic energy  EATOM  =     11953.08265402
  Solvation  Ediel_sol  =         0.00000000
  ---------------------------------------------------
  free energy    TOTEN  =      -320.17960041 eV

  energy without entropy =     -320.17960041  energy(sigma->0) =     -320.17960041


--------------------------------------------------------------------------------------------------------




--------------------------------------- Iteration      1(   9)  ---------------------------------------


    POTLOK:  cpu time    0.2166: real time    0.2168
    SETDIJ:  cpu time    0.0115: real time    0.0115
    EDDIAG:  cpu time    2.2473: real time    2.2518
  RMM-DIIS:  cpu time   40.5624: real time   40.6623
    ORTHCH:  cpu time    0.2044: real time    0.2076
       DOS:  cpu time    0.0004: real time    0.0004
    CHARGE:  cpu time    1.0340: real time    1.0351
    MIXING:  cpu time    0.0068: real time    0.0068
    --------------------------------------------
      LOOP:  cpu time   44.2834: real time   44.3922

 eigenvalue-minimisations  :  2261
 total energy-change (2. order) :-0.5005093E-01  (-0.8685812E-01)
 number of electron     324.0000000 magnetization 
 augmentation part      -20.9796362 magnetization 

 Broyden mixing:
  rms(total) = 0.92664E-01    rms(broyden)= 0.92663E-01
  rms(prec ) = 0.10463E+00
  weight for this iteration     100.00

 eigenvalues of (default mixing * dielectric matrix)
  average eigenvalue GAMMA=   1.4159
  2.2102  2.2102  0.8071  0.4362

 Free energy of the ion-electron system (eV)
  ---------------------------------------------------
  alpha Z        PSCENC =       266.60559765
  Ewald energy   TEWEN  =     63238.72708544
  -Hartree energ DENC   =    -75140.70607233
  -exchange      EXHF   =         0.00000000
  -V(xc)+E(xc)   XCENC  =     -2078.08512542
  PAW double counting   =      8612.64213128    -5974.07322858
  entropy T*S    EENTRO =        -0.00000000
  eigenvalues    EBANDS =     -1198.42269341
  atomic energy  EATOM  =     11953.08265402
  Solvation  Ediel_sol  =         0.00000000
  ---------------------------------------------------
  free energy    TOTEN  =      -320.22965134 eV

  energy without entropy =     -320.22965134  energy(sigma->0) =     -320.22965134


--------------------------------------------------------------------------------------------------------




--------------------------------------- Iteration      1(  10)  ---------------------------------------


    POTLOK:  cpu time    0.2176: real time    0.2178
    SETDIJ:  cpu time    0.0111: real time    0.0111
    EDDIAG:  cpu time    2.2667: real time    2.2693
  RMM-DIIS:  cpu time   38.0633: real time   38.1483
    ORTHCH:  cpu time    0.2098: real time    0.2101
       DOS:  cpu time    0.0004: real time    0.0004
    CHARGE:  cpu time    1.0333: real time    1.0343
    MIXING:  cpu time    0.0064: real time    0.0064
    --------------------------------------------
      LOOP:  cpu time   41.8086: real time   41.8978

 eigenvalue-minimisations  :  2107
 total energy-change (2. order) : 0.2609691E-01  (-0.1740596E-01)
 number of electron     324.0000000 magnetization 
 augmentation part      -21.0891630 magnetization 

 Broyden mixing:
  rms(total) = 0.19750E-01    rms(broyden)= 0.19750E-01
  rms(prec ) = 0.24079E-01
  weight for this iteration     100.00

 eigenvalues of (default mixing * dielectric matrix)
  average eigenvalue GAMMA=   1.3488
  2.3994  2.1149  0.9653  0.8322  0.4323

 Free energy of the ion-electron system (eV)
  ---------------------------------------------------
  alpha Z        PSCENC =       266.60559765
  Ewald energy   TEWEN  =     63238.72708544
  -Hartree energ DENC   =    -75151.49773570
  -exchange      EXHF   =         0.00000000
  -V(xc)+E(xc)   XCENC  =     -2077.84197495
  PAW double counting   =      8653.02545209    -6014.58482616
  entropy T*S    EENTRO =        -0.00000000
  eigenvalues    EBANDS =     -1187.71980682
  atomic energy  EATOM  =     11953.08265402
  Solvation  Ediel_sol  =         0.00000000
  ---------------------------------------------------
  free energy    TOTEN  =      -320.20355442 eV

  energy without entropy =     -320.20355442  energy(sigma->0) =     -320.20355442


--------------------------------------------------------------------------------------------------------




--------------------------------------- Iteration      1(  11)  ---------------------------------------


    POTLOK:  cpu time    0.2180: real time    0.2182
    SETDIJ:  cpu time    0.0135: real time    0.0135
    EDDIAG:  cpu time    2.2709: real time    2.2799
  RMM-DIIS:  cpu time   47.5916: real time   47.6985
    ORTHCH:  cpu time    0.2033: real time    0.2035
       DOS:  cpu time    0.0004: real time    0.0004
    CHARGE:  cpu time    1.0380: real time    1.0412
    MIXING:  cpu time    0.0066: real time    0.0066
    --------------------------------------------
      LOOP:  cpu time   51.3423: real time   51.4617

 eigenvalue-minimisations  :  2656
 total energy-change (2. order) :-0.4317908E-02  (-0.5634425E-02)
 number of electron     324.0000000 magnetization 
 augmentation part      -21.1355933 magnetization 

 Broyden mixing:
  rms(total) = 0.17052E-01    rms(broyden)= 0.17052E-01
  rms(prec ) = 0.20413E-01
  weight for this iteration     100.00

 eigenvalues of (default mixing * dielectric matrix)
  average eigenvalue GAMMA=   1.2641
  2.4574  1.9794  1.3820  0.8074  0.4552  0.5035

 Free energy of the ion-electron system (eV)
  ---------------------------------------------------
  alpha Z        PSCENC =       266.60559765
  Ewald energy   TEWEN  =     63238.72708544
  -Hartree energ DENC   =    -75158.71110212
  -exchange      EXHF   =         0.00000000
  -V(xc)+E(xc)   XCENC  =     -2077.69935246
  PAW double counting   =      8668.98965604    -6030.62178854
  entropy T*S    EENTRO =        -0.00000000
  eigenvalues    EBANDS =     -1180.58062237
  atomic energy  EATOM  =     11953.08265402
  Solvation  Ediel_sol  =         0.00000000
  ---------------------------------------------------
  free energy    TOTEN  =      -320.20787233 eV

  energy without entropy =     -320.20787233  energy(sigma->0) =     -320.20787233


--------------------------------------------------------------------------------------------------------




--------------------------------------- Iteration      1(  12)  ---------------------------------------


    POTLOK:  cpu time    0.2212: real time    0.2214
    SETDIJ:  cpu time    0.0109: real time    0.0109
    EDDIAG:  cpu time    2.2531: real time    2.2584
  RMM-DIIS:  cpu time   43.8121: real time   43.9108
    ORTHCH:  cpu time    0.2050: real time    0.2054
       DOS:  cpu time    0.0004: real time    0.0004
    CHARGE:  cpu time    1.0355: real time    1.0366
    MIXING:  cpu time    0.0068: real time    0.0068
    --------------------------------------------
      LOOP:  cpu time   47.5451: real time   47.6507

 eigenvalue-minimisations  :  2417
 total energy-change (2. order) :-0.3975108E-03  (-0.1040089E-02)
 number of electron     324.0000000 magnetization 
 augmentation part      -21.1198464 magnetization 

 Broyden mixing:
  rms(total) = 0.11385E-01    rms(broyden)= 0.11385E-01
  rms(prec ) = 0.14278E-01
  weight for this iteration     100.00

 eigenvalues of (default mixing * dielectric matrix)
  average eigenvalue GAMMA=   1.3511
  2.4272  2.4272  2.0217  0.9183  0.8355  0.4304  0.3977

 Free energy of the ion-electron system (eV)
  ---------------------------------------------------
  alpha Z        PSCENC =       266.60559765
  Ewald energy   TEWEN  =     63238.72708544
  -Hartree energ DENC   =    -75161.62609871
  -exchange      EXHF   =         0.00000000
  -V(xc)+E(xc)   XCENC  =     -2077.66639830
  PAW double counting   =      8670.42564900    -6032.02175599
  entropy T*S    EENTRO =        -0.00000000
  eigenvalues    EBANDS =     -1177.73500297
  atomic energy  EATOM  =     11953.08265402
  Solvation  Ediel_sol  =         0.00000000
  ---------------------------------------------------
  free energy    TOTEN  =      -320.20826984 eV

  energy without entropy =     -320.20826984  energy(sigma->0) =     -320.20826984


--------------------------------------------------------------------------------------------------------




--------------------------------------- Iteration      1(  13)  ---------------------------------------


    POTLOK:  cpu time    0.2190: real time    0.2192
    SETDIJ:  cpu time    0.0108: real time    0.0108
    EDDIAG:  cpu time    2.2563: real time    2.2655
  RMM-DIIS:  cpu time   40.1763: real time   40.2581
    ORTHCH:  cpu time    0.2033: real time    0.2035
       DOS:  cpu time    0.0004: real time    0.0004
    CHARGE:  cpu time    1.0370: real time    1.0380
    MIXING:  cpu time    0.0069: real time    0.0069
    --------------------------------------------
      LOOP:  cpu time   43.9100: real time   44.0024

 eigenvalue-minimisations  :  2231
 total energy-change (2. order) :-0.5774676E-03  (-0.4210540E-03)
 number of electron     324.0000000 magnetization 
 augmentation part      -21.0946528 magnetization 

 Broyden mixing:
  rms(total) = 0.80547E-02    rms(broyden)= 0.80547E-02
  rms(prec ) = 0.10509E-01
  weight for this iteration     100.00

 eigenvalues of (default mixing * dielectric matrix)
  average eigenvalue GAMMA=   1.3636
  2.9209  2.3875  1.7581  1.3052  0.8571  0.8571  0.4450  0.3782

 Free energy of the ion-electron system (eV)
  ---------------------------------------------------
  alpha Z        PSCENC =       266.60559765
  Ewald energy   TEWEN  =     63238.72708544
  -Hartree energ DENC   =    -75167.45576200
  -exchange      EXHF   =         0.00000000
  -V(xc)+E(xc)   XCENC  =     -2077.64690293
  PAW double counting   =      8668.15982312    -6029.61109710
  entropy T*S    EENTRO =        -0.00000000
  eigenvalues    EBANDS =     -1172.07024552
  atomic energy  EATOM  =     11953.08265402
  Solvation  Ediel_sol  =         0.00000000
  ---------------------------------------------------
  free energy    TOTEN  =      -320.20884731 eV

  energy without entropy =     -320.20884731  energy(sigma->0) =     -320.20884731


--------------------------------------------------------------------------------------------------------




--------------------------------------- Iteration      1(  14)  ---------------------------------------


    POTLOK:  cpu time    0.2203: real time    0.2205
    SETDIJ:  cpu time    0.0122: real time    0.0122
    EDDIAG:  cpu time    2.2531: real time    2.2630
  RMM-DIIS:  cpu time   37.5580: real time   37.6312
    ORTHCH:  cpu time    0.2070: real time    0.2072
       DOS:  cpu time    0.0004: real time    0.0004
    CHARGE:  cpu time    1.0405: real time    1.0416
    MIXING:  cpu time    0.0070: real time    0.0070
    --------------------------------------------
      LOOP:  cpu time   41.2985: real time   41.3831

 eigenvalue-minimisations  :  2107
 total energy-change (2. order) :-0.3160883E-03  (-0.1598993E-03)
 number of electron     324.0000000 magnetization 
 augmentation part      -21.1140077 magnetization 

 Broyden mixing:
  rms(total) = 0.34276E-02    rms(broyden)= 0.34276E-02
  rms(prec ) = 0.52250E-02
  weight for this iteration     100.00

 eigenvalues of (default mixing * dielectric matrix)
  average eigenvalue GAMMA=   1.3076
  3.0130  2.3307  1.7661  1.4458  0.8856  0.8280  0.6743  0.4461  0.3786

 Free energy of the ion-electron system (eV)
  ---------------------------------------------------
  alpha Z        PSCENC =       266.60559765
  Ewald energy   TEWEN  =     63238.72708544
  -Hartree energ DENC   =    -75172.07793572
  -exchange      EXHF   =         0.00000000
  -V(xc)+E(xc)   XCENC  =     -2077.62076509
  PAW double counting   =      8670.66727003    -6032.10789481
  entropy T*S    EENTRO =        -0.00000000
  eigenvalues    EBANDS =     -1167.48517493
  atomic energy  EATOM  =     11953.08265402
  Solvation  Ediel_sol  =         0.00000000
  ---------------------------------------------------
  free energy    TOTEN  =      -320.20916340 eV

  energy without entropy =     -320.20916340  energy(sigma->0) =     -320.20916340


--------------------------------------------------------------------------------------------------------




--------------------------------------- Iteration      1(  15)  ---------------------------------------


    POTLOK:  cpu time    0.2193: real time    0.2195
    SETDIJ:  cpu time    0.0109: real time    0.0109
    EDDIAG:  cpu time    2.2595: real time    2.2622
  RMM-DIIS:  cpu time   44.6222: real time   44.7266
    ORTHCH:  cpu time    0.2083: real time    0.2088
       DOS:  cpu time    0.0004: real time    0.0004
    CHARGE:  cpu time    1.0378: real time    1.0407
    MIXING:  cpu time    0.0085: real time    0.0086
    --------------------------------------------
      LOOP:  cpu time   48.3670: real time   48.4776

 eigenvalue-minimisations  :  2477
 total energy-change (2. order) :-0.8065435E-03  (-0.7437804E-04)
 number of electron     324.0000000 magnetization 
 augmentation part      -21.1147168 magnetization 

 Broyden mixing:
  rms(total) = 0.32294E-02    rms(broyden)= 0.32294E-02
  rms(prec ) = 0.45539E-02
  weight for this iteration     100.00

 eigenvalues of (default mixing * dielectric matrix)
  average eigenvalue GAMMA=   1.5119
  4.2791  2.4862  2.4862  1.6306  1.2909  0.8448  0.8448  0.3794  0.4492  0.4278

 Free energy of the ion-electron system (eV)
  ---------------------------------------------------
  alpha Z        PSCENC =       266.60559765
  Ewald energy   TEWEN  =     63238.72708544
  -Hartree energ DENC   =    -75174.23515382
  -exchange      EXHF   =         0.00000000
  -V(xc)+E(xc)   XCENC  =     -2077.60746264
  PAW double counting   =      8670.08243147    -6031.52793953
  entropy T*S    EENTRO =        -0.00000000
  eigenvalues    EBANDS =     -1165.33718255
  atomic energy  EATOM  =     11953.08265402
  Solvation  Ediel_sol  =         0.00000000
  ---------------------------------------------------
  free energy    TOTEN  =      -320.20996994 eV

  energy without entropy =     -320.20996994  energy(sigma->0) =     -320.20996994


--------------------------------------------------------------------------------------------------------




--------------------------------------- Iteration      1(  16)  ---------------------------------------


    POTLOK:  cpu time    0.2213: real time    0.2215
    SETDIJ:  cpu time    0.0108: real time    0.0108
    EDDIAG:  cpu time    2.2925: real time    2.2979
  RMM-DIIS:  cpu time   38.0456: real time   38.1297
    ORTHCH:  cpu time    0.2080: real time    0.2083
       DOS:  cpu time    0.0004: real time    0.0004
    CHARGE:  cpu time    1.0377: real time    1.0388
    MIXING:  cpu time    0.0074: real time    0.0074
    --------------------------------------------
      LOOP:  cpu time   41.8237: real time   41.9147

 eigenvalue-minimisations  :  2117
 total energy-change (2. order) :-0.1974753E-02  (-0.7948828E-04)
 number of electron     324.0000000 magnetization 
 augmentation part      -21.1032848 magnetization 

 Broyden mixing:
  rms(total) = 0.26600E-02    rms(broyden)= 0.26599E-02
  rms(prec ) = 0.30257E-02
  weight for this iteration     100.00

 eigenvalues of (default mixing * dielectric matrix)
  average eigenvalue GAMMA=   1.5368
  4.9105  2.6951  2.2579  1.6957  1.4854  0.9371  0.8365  0.8365  0.3790  0.4491
  0.4217

 Free energy of the ion-electron system (eV)
  ---------------------------------------------------
  alpha Z        PSCENC =       266.60559765
  Ewald energy   TEWEN  =     63238.72708544
  -Hartree energ DENC   =    -75179.90989339
  -exchange      EXHF   =         0.00000000
  -V(xc)+E(xc)   XCENC  =     -2077.57653639
  PAW double counting   =      8667.45912644    -6028.91025501
  entropy T*S    EENTRO =        -0.00000000
  eigenvalues    EBANDS =     -1159.68972347
  atomic energy  EATOM  =     11953.08265402
  Solvation  Ediel_sol  =         0.00000000
  ---------------------------------------------------
  free energy    TOTEN  =      -320.21194469 eV

  energy without entropy =     -320.21194469  energy(sigma->0) =     -320.21194469


--------------------------------------------------------------------------------------------------------




--------------------------------------- Iteration      1(  17)  ---------------------------------------


    POTLOK:  cpu time    0.2235: real time    0.2238
    SETDIJ:  cpu time    0.0108: real time    0.0108
    EDDIAG:  cpu time    2.2506: real time    2.2550
  RMM-DIIS:  cpu time   37.8011: real time   37.8762
    ORTHCH:  cpu time    0.2012: real time    0.2031
       DOS:  cpu time    0.0004: real time    0.0004
    CHARGE:  cpu time    1.0388: real time    1.0399
    MIXING:  cpu time    0.0073: real time    0.0073
    --------------------------------------------
      LOOP:  cpu time   41.5338: real time   41.6166

 eigenvalue-minimisations  :  2098
 total energy-change (2. order) :-0.5094679E-03  (-0.1382674E-04)
 number of electron     324.0000000 magnetization 
 augmentation part      -21.1074664 magnetization 

 Broyden mixing:
  rms(total) = 0.11581E-02    rms(broyden)= 0.11581E-02
  rms(prec ) = 0.13929E-02
  weight for this iteration     100.00

 eigenvalues of (default mixing * dielectric matrix)
  average eigenvalue GAMMA=   1.5302
  5.3426  2.7519  2.0268  2.0268  1.5836  1.0213  0.8519  0.8519  0.6539  0.3790
  0.4491  0.4236

 Free energy of the ion-electron system (eV)
  ---------------------------------------------------
  alpha Z        PSCENC =       266.60559765
  Ewald energy   TEWEN  =     63238.72708544
  -Hartree energ DENC   =    -75180.95511086
  -exchange      EXHF   =         0.00000000
  -V(xc)+E(xc)   XCENC  =     -2077.58023805
  PAW double counting   =      8667.31679972    -6028.76140938
  entropy T*S    EENTRO =        -0.00000000
  eigenvalues    EBANDS =     -1158.64783271
  atomic energy  EATOM  =     11953.08265402
  Solvation  Ediel_sol  =         0.00000000
  ---------------------------------------------------
  free energy    TOTEN  =      -320.21245416 eV

  energy without entropy =     -320.21245416  energy(sigma->0) =     -320.21245416


--------------------------------------------------------------------------------------------------------




--------------------------------------- Iteration      1(  18)  ---------------------------------------


    POTLOK:  cpu time    0.2253: real time    0.2255
    SETDIJ:  cpu time    0.0107: real time    0.0107
    EDDIAG:  cpu time    2.2582: real time    2.2636
  RMM-DIIS:  cpu time   42.1245: real time   42.2003
    ORTHCH:  cpu time    0.2050: real time    0.2052
       DOS:  cpu time    0.0004: real time    0.0004
    CHARGE:  cpu time    1.0414: real time    1.0425
    MIXING:  cpu time    0.0073: real time    0.0073
    --------------------------------------------
      LOOP:  cpu time   45.8728: real time   45.9556

 eigenvalue-minimisations  :  2335
 total energy-change (2. order) :-0.2919007E-03  (-0.8583880E-05)
 number of electron     324.0000000 magnetization 
 augmentation part      -21.1108085 magnetization 

 Broyden mixing:
  rms(total) = 0.77626E-03    rms(broyden)= 0.77626E-03
  rms(prec ) = 0.98166E-03
  weight for this iteration     100.00

 eigenvalues of (default mixing * dielectric matrix)
  average eigenvalue GAMMA=   1.6507
  6.7238  2.8622  2.2894  2.2894  1.7771  1.1683  1.0264  0.8315  0.8315  0.4501
  0.3791  0.4244  0.4059

 Free energy of the ion-electron system (eV)
  ---------------------------------------------------
  alpha Z        PSCENC =       266.60559765
  Ewald energy   TEWEN  =     63238.72708544
  -Hartree energ DENC   =    -75181.34647479
  -exchange      EXHF   =         0.00000000
  -V(xc)+E(xc)   XCENC  =     -2077.58155412
  PAW double counting   =      8667.55138746    -6028.99450075
  entropy T*S    EENTRO =        -0.00000000
  eigenvalues    EBANDS =     -1158.25694098
  atomic energy  EATOM  =     11953.08265402
  Solvation  Ediel_sol  =         0.00000000
  ---------------------------------------------------
  free energy    TOTEN  =      -320.21274606 eV

  energy without entropy =     -320.21274606  energy(sigma->0) =     -320.21274606


--------------------------------------------------------------------------------------------------------




--------------------------------------- Iteration      1(  19)  ---------------------------------------


    POTLOK:  cpu time    0.2255: real time    0.2269
    SETDIJ:  cpu time    0.0108: real time    0.0108
    EDDIAG:  cpu time    2.2513: real time    2.2579
  RMM-DIIS:  cpu time   40.9071: real time   41.0071
    ORTHCH:  cpu time    0.2062: real time    0.2064
       DOS:  cpu time    0.0004: real time    0.0004
    CHARGE:  cpu time    1.0413: real time    1.0424
    MIXING:  cpu time    0.0075: real time    0.0075
    --------------------------------------------
      LOOP:  cpu time   44.6501: real time   44.7594

 eigenvalue-minimisations  :  2224
 total energy-change (2. order) :-0.3311576E-03  (-0.3132136E-05)
 number of electron     324.0000000 magnetization 
 augmentation part      -21.1116203 magnetization 

 Broyden mixing:
  rms(total) = 0.60980E-03    rms(broyden)= 0.60980E-03
  rms(prec ) = 0.71866E-03
  weight for this iteration     100.00

 eigenvalues of (default mixing * dielectric matrix)
  average eigenvalue GAMMA=   1.6509
  6.7989  3.1551  2.4911  2.0295  2.0295  1.1938  1.1938  0.8901  0.8398  0.8398
  0.4504  0.4295  0.3791  0.3926

 Free energy of the ion-electron system (eV)
  ---------------------------------------------------
  alpha Z        PSCENC =       266.60559765
  Ewald energy   TEWEN  =     63238.72708544
  -Hartree energ DENC   =    -75181.77670791
  -exchange      EXHF   =         0.00000000
  -V(xc)+E(xc)   XCENC  =     -2077.58039090
  PAW double counting   =      8667.92550536    -6029.37079212
  entropy T*S    EENTRO =        -0.00000000
  eigenvalues    EBANDS =     -1157.82602877
  atomic energy  EATOM  =     11953.08265402
  Solvation  Ediel_sol  =         0.00000000
  ---------------------------------------------------
  free energy    TOTEN  =      -320.21307722 eV

  energy without entropy =     -320.21307722  energy(sigma->0) =     -320.21307722


--------------------------------------------------------------------------------------------------------




--------------------------------------- Iteration      1(  20)  ---------------------------------------


    POTLOK:  cpu time    0.2233: real time    0.2235
    SETDIJ:  cpu time    0.0107: real time    0.0107
    EDDIAG:  cpu time    2.2603: real time    2.2660
  RMM-DIIS:  cpu time   35.4908: real time   35.5799
    ORTHCH:  cpu time    0.2016: real time    0.2018
       DOS:  cpu time    0.0004: real time    0.0004
    CHARGE:  cpu time    1.0381: real time    1.0392
    MIXING:  cpu time    0.0088: real time    0.0088
    --------------------------------------------
      LOOP:  cpu time   39.2341: real time   39.3305

 eigenvalue-minimisations  :  1886
 total energy-change (2. order) :-0.1127111E-03  (-0.1407695E-05)
 number of electron     324.0000000 magnetization 
 augmentation part      -21.1098288 magnetization 

 Broyden mixing:
  rms(total) = 0.23191E-03    rms(broyden)= 0.23191E-03
  rms(prec ) = 0.30760E-03
  weight for this iteration     100.00

 eigenvalues of (default mixing * dielectric matrix)
  average eigenvalue GAMMA=   1.6346
  6.8308  3.3248  2.4877  2.1187  2.1187  1.5091  1.0587  1.0587  0.8362  0.8362
  0.6882  0.4505  0.4294  0.3791  0.3927

 Free energy of the ion-electron system (eV)
  ---------------------------------------------------
  alpha Z        PSCENC =       266.60559765
  Ewald energy   TEWEN  =     63238.72708544
  -Hartree energ DENC   =    -75181.91844434
  -exchange      EXHF   =         0.00000000
  -V(xc)+E(xc)   XCENC  =     -2077.57927353
  PAW double counting   =      8667.93815882    -6029.38591414
  entropy T*S    EENTRO =        -0.00000000
  eigenvalues    EBANDS =     -1157.68305385
  atomic energy  EATOM  =     11953.08265402
  Solvation  Ediel_sol  =         0.00000000
  ---------------------------------------------------
  free energy    TOTEN  =      -320.21318993 eV

  energy without entropy =     -320.21318993  energy(sigma->0) =     -320.21318993


--------------------------------------------------------------------------------------------------------




--------------------------------------- Iteration      1(  21)  ---------------------------------------


    POTLOK:  cpu time    0.2269: real time    0.2272
    SETDIJ:  cpu time    0.0109: real time    0.0109
    EDDIAG:  cpu time    2.2671: real time    2.2753
  RMM-DIIS:  cpu time   26.7485: real time   26.8175
    ORTHCH:  cpu time    0.2047: real time    0.2051
       DOS:  cpu time    0.0004: real time    0.0004
    CHARGE:  cpu time    1.0382: real time    1.0421
    MIXING:  cpu time    0.0095: real time    0.0095
    --------------------------------------------
      LOOP:  cpu time   30.5062: real time   30.5880

 eigenvalue-minimisations  :  1420
 total energy-change (2. order) :-0.5789606E-04  (-0.4002281E-06)
 number of electron     324.0000000 magnetization 
 augmentation part      -21.1098293 magnetization 

 Broyden mixing:
  rms(total) = 0.18314E-03    rms(broyden)= 0.18314E-03
  rms(prec ) = 0.24257E-03
  weight for this iteration     100.00

 eigenvalues of (default mixing * dielectric matrix)
  average eigenvalue GAMMA=   1.6894
  7.0390  3.8644  2.7561  2.5681  1.9425  1.9425  1.1446  1.1446  0.8374  0.8374
  0.8488  0.3791  0.3934  0.4276  0.4484  0.4559

 Free energy of the ion-electron system (eV)
  ---------------------------------------------------
  alpha Z        PSCENC =       266.60559765
  Ewald energy   TEWEN  =     63238.72708544
  -Hartree energ DENC   =    -75181.99131078
  -exchange      EXHF   =         0.00000000
  -V(xc)+E(xc)   XCENC  =     -2077.58015310
  PAW double counting   =      8667.95342195    -6029.40041690
  entropy T*S    EENTRO =        -0.00000000
  eigenvalues    EBANDS =     -1157.61012613
  atomic energy  EATOM  =     11953.08265402
  Solvation  Ediel_sol  =         0.00000000
  ---------------------------------------------------
[...]
  0.000   0.000   0.000   0.000   0.000   0.011  -0.000  -0.000
  0.000  -0.000   0.000   0.000   0.000  -0.000   0.011  -0.000
  0.000   0.000   0.000   0.000   0.000  -0.000  -0.000   0.011
  0.000  -0.000  -0.000  -0.000  -0.001   0.000   0.000  -0.000
 -0.000  -0.000   0.018  -0.001  -0.000   0.000   0.000   0.000
 -0.010  -0.000   0.000   0.022  -0.000   0.000   0.000  -0.000
  0.000  -0.000  -0.000  -0.000   0.017   0.000   0.000   0.000
 -0.000  -0.000   0.000  -0.000  -0.000  -0.000   0.000   0.000
 total augmentation occupancy for first ion, spin component:           1
  1.929   0.268  -0.005  -0.197  -0.003   0.003  -0.059   0.003  -0.001  -0.002   0.007  -0.001  -0.000
  0.268   1.511   0.005   0.986   0.003   0.004  -0.412  -0.009  -0.000   0.001  -0.025   0.001  -0.002
 -0.005   0.005   1.354  -0.008  -0.005  -0.521   0.004   0.006   0.001   0.128  -0.003  -0.001   0.045
 -0.197   0.986  -0.008   1.528  -0.009   0.005  -0.580   0.001  -0.003  -0.003   0.042   0.000  -0.002
 -0.003   0.003  -0.005  -0.009   1.344   0.006   0.000  -0.514   0.047  -0.001  -0.000   0.124  -0.001
  0.003   0.004  -0.521   0.005   0.006   0.356  -0.000  -0.001  -0.000  -0.044  -0.001   0.000  -0.009
 -0.059  -0.412   0.004  -0.580   0.000  -0.000   0.329   0.001  -0.000   0.001  -0.053   0.000   0.000
  0.003  -0.009   0.006   0.001  -0.514  -0.001   0.001   0.350  -0.007   0.001   0.000  -0.044   0.000
 -0.001  -0.000   0.001  -0.003   0.047  -0.000  -0.000  -0.007   0.024  -0.000   0.000  -0.001  -0.000
 -0.002   0.001   0.128  -0.003  -0.001  -0.044   0.001   0.001  -0.000   0.022  -0.001  -0.000  -0.000
  0.007  -0.025  -0.003   0.042  -0.000  -0.001  -0.053   0.000   0.000  -0.001   0.023  -0.000   0.001
 -0.001   0.001  -0.001   0.000   0.124   0.000   0.000  -0.044  -0.001  -0.000  -0.000   0.021  -0.000
 -0.000  -0.002   0.045  -0.002  -0.001  -0.009   0.000   0.000  -0.000  -0.000   0.001  -0.000   0.024


------------------------ aborting loop because EDIFF is reached ----------------------------------------


    CHARGE:  cpu time    1.0356: real time    1.0365
    FORLOC:  cpu time    0.0675: real time    0.0676
    FORNL :  cpu time   12.3481: real time   12.3716
    STRESS:  cpu time   66.1851: real time   66.3137
    FORCOR:  cpu time    0.2526: real time    0.2529
    FORHAR:  cpu time    0.1075: real time    0.1076
    MIXING:  cpu time    0.0068: real time    0.0068
    OFIELD:  cpu time    0.0000: real time    0.0000

  Number of pair interactions contributing to vdW energy:  289298
  Edisp (eV):  -20.34998
    FORVDW:  cpu time    0.0312: real time    0.0312

  FORCE on cell =-STRESS in cart. coord.  units (eV):
  Direction    XX          YY          ZZ          XY          YZ          ZX
  --------------------------------------------------------------------------------------
  Alpha Z   266.60560   266.60560   266.60560
  Ewald   72395.65528 72401.44809-81757.27567    22.55959   -52.06627   -26.96687
  Hartree 74657.75918 74654.53749-74318.49544     4.54279    -5.69131    -0.57076
  E(xc)   -1371.84775 -1372.80671 -1392.90517    -0.47105     1.94610     1.65394
  Local  ************************150977.97632   -25.47395    54.28574    26.90049
  n-local  3598.92108  3602.97084  3799.43150     1.39263   -13.34540   -12.44039
  augment  -759.76935  -760.11690  -803.54306     0.19082     2.04281     2.28445
  Kinetic  3334.64941  3334.38213  3311.02930     2.76977    -9.15693    -3.73562
  Fock        0.00000     0.00000     0.00000     0.00000     0.00000     0.00000
  vdW       -13.31186   -14.37488   -10.67897     0.01934     0.07017     1.00619
  -------------------------------------------------------------------------------------
  Total      56.84936    58.82610    72.14441     5.52994   -21.91510   -11.86855
  in kB      33.83630    35.01284    42.93980     3.29138   -13.04370    -7.06407
  external pressure =       37.26 kB  Pullay stress =        0.00 kB

  kinetic pressure (ideal gas correction) =      0.39 kB
  total pressure  =     37.65 kB
  Total+kin.    34.047      35.269      43.647       3.286     -13.192      -7.166

 VOLUME and BASIS-vectors are now :
 -----------------------------------------------------------------------------
  energy-cutoff  :      550.00
  volume of cell :     2691.86
      direct lattice vectors                 reciprocal lattice vectors
    10.356930995  0.000000000  0.000000000     0.096553699  0.056855349 -0.003231802
    -5.260025681  8.932755662  0.000000000     0.000000000  0.111947538 -0.002893714
     0.531021921  0.752103689 29.096227154     0.000000000  0.000000000  0.034368717

  length of vectors
    10.356930995 10.366387697 29.110789733     0.112096352  0.111984931  0.034368717


 FORCES acting on ions
    electron-ion (+dipol)            ewald-force                    non-local-force                 convergence-correction
 -----------------------------------------------------------------------------------------------
   0.137E+01 -.122E+01 0.877E+03   -.144E+01 0.115E+01 -.882E+03   0.185E+00 0.371E+00 0.433E+01   -.251E-03 -.309E-03 -.692E-03
   -.294E+00 -.123E+01 0.874E+03   0.292E+00 0.114E+01 -.880E+03   0.125E+00 0.497E+00 0.443E+01   0.334E-03 0.226E-03 -.535E-03
   0.650E+00 0.986E+00 0.876E+03   -.752E+00 -.109E+01 -.881E+03   0.244E+00 0.282E+00 0.441E+01   -.189E-03 0.204E-04 -.556E-03
   -.121E+01 -.318E+01 0.874E+03   0.118E+01 0.309E+01 -.880E+03   0.280E+00 0.729E+00 0.438E+01   -.574E-04 -.281E-03 -.104E-02
   0.193E+01 -.624E+00 0.877E+03   -.199E+01 0.575E+00 -.882E+03   -.452E-01 0.444E+00 0.431E+01   -.290E-03 0.558E-03 -.631E-03
   -.145E+00 0.687E+00 0.876E+03   0.166E+00 -.807E+00 -.881E+03   0.240E+00 0.295E+00 0.424E+01   -.101E-03 -.536E-03 -.632E-03
   -.129E+01 -.851E+00 0.874E+03   0.126E+01 0.785E+00 -.880E+03   0.330E+00 0.332E+00 0.446E+01   0.319E-03 -.985E-05 -.106E-02
   0.187E+00 -.871E+00 0.876E+03   -.154E+00 0.775E+00 -.881E+03   -.761E-01 0.481E+00 0.424E+01   -.706E-04 0.429E-03 -.863E-03
   -.168E+01 -.340E+01 0.876E+03   0.161E+01 0.330E+01 -.882E+03   0.389E+00 0.692E+00 0.433E+01   0.304E-03 -.986E-04 -.574E-03
   -.164E+01 0.259E+01 -.120E+03   0.168E+01 -.275E+01 0.115E+03   0.201E+00 0.167E+00 0.403E+01   0.850E-03 -.453E-03 -.503E-03
   0.111E+01 -.104E+01 -.118E+03   -.117E+01 0.910E+00 0.113E+03   0.332E+00 0.487E+00 0.468E+01   -.526E-04 0.201E-03 -.115E-02
   0.178E+01 -.276E+01 -.121E+03   -.175E+01 0.266E+01 0.116E+03   -.100E+00 0.539E+00 0.462E+01   -.214E-03 0.593E-03 -.516E-03
   -.361E+00 -.508E-01 -.124E+03   0.440E+00 -.912E-01 0.119E+03   0.104E+00 0.493E+00 0.433E+01   -.128E-03 0.180E-03 0.705E-04
   -.134E+01 -.357E+00 -.120E+03   0.134E+01 0.202E+00 0.115E+03   0.279E+00 0.621E+00 0.423E+01   0.386E-03 -.515E-03 -.114E-03
   0.173E+01 -.309E+01 -.118E+03   -.171E+01 0.296E+01 0.113E+03   0.425E-01 0.728E+00 0.415E+01   -.301E-03 0.324E-03 -.482E-03
   0.110E+01 -.193E+01 -.121E+03   -.110E+01 0.183E+01 0.116E+03   0.145E+00 0.473E+00 0.434E+01   -.709E-03 0.974E-04 -.798E-03
   -.267E+01 0.590E+00 -.120E+03   0.274E+01 -.789E+00 0.115E+03   0.414E+00 0.355E+00 0.444E+01   -.311E-03 -.393E-03 -.390E-03
   -.201E+01 -.285E+01 -.118E+03   0.211E+01 0.278E+01 0.112E+03   0.547E-01 0.542E+00 0.419E+01   0.493E-03 -.338E-04 -.333E-03
   0.238E+01 -.277E+01 0.119E+03   -.235E+01 0.289E+01 -.114E+03   -.488E+00 0.322E-02 -.444E+01   -.172E-03 -.117E-03 0.444E-03
   -.101E+01 0.372E+01 0.124E+03   0.108E+01 -.370E+01 -.119E+03   -.171E+00 -.581E+00 -.460E+01   0.384E-03 0.304E-04 0.333E-03
   0.383E+01 0.665E+00 0.121E+03   -.380E+01 -.560E+00 -.116E+03   -.909E+00 -.391E+00 -.413E+01   -.128E-03 0.113E-03 0.393E-03
   0.223E+01 0.819E-01 0.119E+03   -.220E+01 -.445E-01 -.114E+03   -.595E+00 -.188E+00 -.458E+01   -.119E-03 -.371E-03 0.100E-02
   0.524E+01 0.285E+01 0.122E+03   -.529E+01 -.278E+01 -.117E+03   -.719E+00 -.374E+00 -.441E+01   -.467E-03 0.200E-03 0.265E-03
   0.308E+01 0.964E+00 0.119E+03   -.293E+01 -.887E+00 -.113E+03   -.769E+00 -.439E+00 -.451E+01   -.343E-03 -.359E-03 0.419E-03
   0.150E+00 -.937E-02 0.122E+03   -.444E-01 0.160E+00 -.116E+03   -.509E+00 -.508E+00 -.452E+01   0.283E-03 0.131E-03 0.976E-03
   0.938E-01 0.119E-01 0.120E+03   -.455E-02 0.909E-01 -.114E+03   -.391E+00 -.216E+00 -.461E+01   0.114E-03 0.303E-03 0.624E-03
   -.115E+01 -.173E+01 0.121E+03   0.122E+01 0.180E+01 -.116E+03   -.245E+00 -.176E+00 -.447E+01   0.453E-03 0.427E-04 0.159E-03
   0.101E+00 0.461E+01 -.877E+03   -.493E-01 -.462E+01 0.883E+03   -.384E+00 -.565E+00 -.422E+01   0.777E-03 -.497E-03 0.619E-03
   0.236E+01 -.268E+01 -.876E+03   -.237E+01 0.286E+01 0.882E+03   -.273E+00 -.258E+00 -.458E+01   0.108E-03 0.470E-03 0.123E-02
   0.135E+01 0.383E+00 -.873E+03   -.123E+01 -.375E+00 0.878E+03   -.483E+00 -.254E+00 -.428E+01   -.984E-04 0.494E-03 0.667E-03
   0.213E+01 0.283E+01 -.875E+03   -.203E+01 -.285E+01 0.881E+03   -.531E+00 -.292E+00 -.443E+01   -.110E-03 0.476E-05 0.986E-04
   -.878E+00 -.366E+01 -.877E+03   0.913E+00 0.378E+01 0.882E+03   -.788E-01 0.220E+00 -.452E+01   0.376E-03 -.449E-04 0.462E-03
   0.242E+01 0.165E+01 -.877E+03   -.231E+01 -.160E+01 0.882E+03   -.573E+00 -.504E+00 -.404E+01   -.188E-03 0.101E-03 0.839E-03
   0.147E+01 0.266E+01 -.876E+03   -.136E+01 -.259E+01 0.882E+03   -.446E+00 -.625E+00 -.419E+01   -.667E-03 -.189E-03 0.962E-03
   -.741E+00 -.237E+01 -.876E+03   0.850E+00 0.243E+01 0.882E+03   -.798E-01 -.200E-01 -.433E+01   -.469E-03 -.105E-03 0.587E-03
   0.168E+01 0.534E+00 -.878E+03   -.160E+01 -.485E+00 0.883E+03   -.599E+00 -.253E+00 -.430E+01   0.259E-03 -.237E-03 0.590E-03
   0.163E+01 0.170E+01 0.496E+03   -.164E+01 -.184E+01 -.496E+03   -.148E+00 -.225E+00 -.204E+00   -.245E-04 -.239E-03 0.130E-03
   -.216E+01 -.749E+00 0.500E+03   0.235E+01 0.732E+00 -.500E+03   0.101E+00 0.506E-01 0.251E+00   0.345E-03 0.241E-03 0.340E-03
   -.150E+01 0.833E+00 0.500E+03   0.153E+01 -.888E+00 -.500E+03   0.210E+00 0.177E+00 -.407E-02   0.207E-03 0.306E-03 0.208E-03
   -.242E+01 0.362E+00 0.497E+03   0.267E+01 -.355E+00 -.497E+03   0.383E+00 -.218E+00 -.725E-03   -.189E-03 -.442E-03 0.282E-03
   0.187E+00 -.433E+00 0.496E+03   -.137E+00 0.327E+00 -.496E+03   0.273E+00 0.300E-01 0.491E-01   -.465E-03 0.783E-04 0.382E-03
   0.301E+00 0.302E+01 0.500E+03   -.897E-01 -.311E+01 -.500E+03   -.166E+00 -.828E-02 0.186E+00   -.182E-03 -.133E-03 0.214E-03
   -.238E+01 -.274E+01 0.498E+03   0.252E+01 0.278E+01 -.498E+03   0.168E+00 0.456E+00 -.741E-01   0.225E-03 -.271E-03 0.369E-04
   -.442E+00 0.669E+00 0.497E+03   0.510E+00 -.712E+00 -.497E+03   -.207E+00 -.224E+00 -.205E-01   0.101E-03 0.104E-03 0.173E-03
   -.337E+01 0.111E+01 0.502E+03   0.359E+01 -.119E+01 -.502E+03   0.417E+00 -.332E+00 0.170E+00   -.157E-04 0.359E-03 0.227E-04
   0.127E+01 -.163E+01 -.499E+03   -.126E+01 0.175E+01 0.499E+03   0.727E-01 0.266E+00 -.447E-01   0.991E-04 -.166E-03 -.296E-03
   -.956E+00 0.915E+00 -.499E+03   0.100E+01 -.113E+01 0.499E+03   -.137E+00 -.119E+00 -.485E-02   -.384E-03 0.279E-03 -.143E-03
   -.426E+01 0.132E+01 -.496E+03   0.443E+01 -.137E+01 0.496E+03   0.485E+00 0.117E-01 0.335E-01   0.471E-03 -.747E-04 -.204E-03
   -.391E+01 0.343E+01 -.497E+03   0.407E+01 -.359E+01 0.497E+03   0.360E+00 -.276E+00 0.208E+00   0.674E-03 -.417E-03 -.351E-03
   0.205E+01 0.112E+01 -.499E+03   -.211E+01 -.130E+01 0.499E+03   -.930E-01 -.318E+00 0.214E+00   0.235E-03 0.107E-03 0.875E-04
   0.767E+00 -.125E+00 -.498E+03   -.596E+00 0.315E-02 0.498E+03   0.640E-01 0.339E-01 -.238E-01   -.265E-03 0.638E-03 -.106E-03
   -.106E+01 0.407E+00 -.501E+03   0.119E+01 -.385E+00 0.501E+03   -.203E-01 -.152E+00 -.276E+00   -.756E-03 -.148E-03 -.433E-03
   -.165E+00 0.745E+00 -.499E+03   0.488E-01 -.849E+00 0.500E+03   -.136E+00 -.383E+00 0.250E+00   0.670E-04 -.260E-03 0.477E-04
   -.237E+01 -.101E+01 -.496E+03   0.264E+01 0.972E+00 0.497E+03   0.326E+00 0.500E-01 0.192E+00   -.140E-03 -.529E-04 0.389E-06
 -----------------------------------------------------------------------------------------------
   0.314E+01 -.192E+01 0.142E+00   0.142E-13 0.278E-13 0.239E-11   -.315E+01 0.192E+01 -.144E+00   0.909E-05 -.121E-03 0.255E-03
 
 
 POSITION                                       TOTAL-FORCE (eV/Angst)
 -----------------------------------------------------------------------------------
      0.15904      2.22606      9.30293         0.111884      0.297306     -0.973440
     -1.59271      5.20387      9.31277         0.118627      0.396145     -1.010145
     -3.35980      8.20357      9.31396         0.133470      0.184300     -0.972602
      3.60400      2.22336      9.31793         0.230933      0.615692     -0.988180
      1.88099      5.19134      9.30645        -0.105513      0.380721     -1.047048
      0.07019      8.19872      9.31952         0.241440      0.175759     -1.138214
      7.03863      2.21900      9.31771         0.277997      0.250558     -0.971389
      5.31830      5.21181      9.31516        -0.044742      0.376644     -1.126109
      3.53213      8.18239      9.30771         0.307735      0.579123     -0.990322
      1.71425      1.94190     16.25732         0.247706     -0.003665     -1.370345
     -0.03192      4.87397     16.21354         0.287205      0.320589     -0.664815
     -1.75692      7.86264     16.23305        -0.053095      0.405895     -0.852053
      5.18454      1.92126     16.26881         0.200670      0.329252     -1.173745
      3.42543      4.88863     16.24291         0.286662      0.438144     -1.163845
      1.68173      7.84223     16.23123         0.069664      0.551671     -1.185638
      8.61852      1.91788     16.25090         0.149128      0.354026     -1.075650
      6.85704      4.91134     16.23534         0.483124      0.138362     -0.915456
      5.12281      7.86922     16.22869         0.171249      0.438939     -1.150526
      0.21950      2.28329     12.87375        -0.463645      0.130406      0.887164
     -1.55339      5.31573     12.84994        -0.121148     -0.520357      0.798152
     -3.24879      8.26211     12.84166        -0.867130     -0.262997      1.288661
      3.69598      2.31543     12.87347        -0.575815     -0.124995      0.831496
      1.94801      5.28822     12.85711        -0.760361     -0.274898      0.928219
      0.17048      8.26689     12.87613        -0.633572     -0.333798      0.853103
      7.13526      2.31590     12.85521        -0.411436     -0.330707      0.923595
      5.35048      5.29960     12.87724        -0.325859     -0.083757      0.717250
      3.59864      8.25773     12.86414        -0.196216     -0.094938      0.882825
      1.77916      2.01503     19.78141        -0.324251     -0.549566      1.144197
      0.03911      4.96101     19.79358        -0.263107     -0.085073      0.774028
     -1.72540      7.94967     19.75522        -0.354322     -0.236052      1.167870
      5.23300      1.99583     19.77840        -0.419902     -0.297610      1.027010
      3.46610      4.93099     19.78931        -0.044492      0.325502      0.835125
      1.74750      7.96074     19.76615        -0.451614     -0.433715      1.301941
      8.68501      2.01200     19.77590        -0.325859     -0.539234      1.188039
      6.90681      4.97232     19.78305         0.021508      0.049063      1.064678
      5.18665      7.95280     19.78587        -0.508914     -0.193751      0.992506
      0.20785      0.29818     11.10301        -0.177392     -0.386555     -0.289867
      8.80800      3.25164     11.07149         0.272860      0.042888      0.300531
      7.03696      6.23960     11.08520         0.281065      0.141971     -0.116259
      3.64231      0.30374     11.09266         0.647604     -0.232549     -0.056637
      1.89163      3.25720     11.09241         0.348144     -0.047013      0.099296
      0.16229      6.24357     11.07712        -0.012133     -0.110774      0.193783
      1.82455      9.19057     11.09593         0.335783      0.552645     -0.217965
      5.36730      3.28578     11.09794        -0.168611     -0.295718     -0.089931
      3.58415      6.25957     11.07496         0.668598     -0.438473      0.114611
      0.01465      2.93523     18.01409         0.074166      0.409562     -0.048340
     -1.72208      5.92194     18.00453        -0.094456     -0.310799      0.114311
     -3.51663      8.91091     18.00060         0.703166     -0.047061      0.022420
      3.44581      2.96298     18.00140         0.565410     -0.447293      0.278350
      1.72825      5.93416     17.99601        -0.169426     -0.520169      0.457617
     -0.02547      8.89726     18.00623         0.197012     -0.052655      0.010182
      6.92151      2.97247     18.03152         0.093213     -0.156472     -0.403798
      5.17374      5.94956     17.99811        -0.253185     -0.516567      0.517206
      3.39942      8.89689     17.99187         0.596332      0.044231      0.277014
 -----------------------------------------------------------------------------------
    total drift:                               -0.003841      0.002184     -0.001139


--------------------------------------------------------------------------------------------------------



  FREE ENERGIE OF THE ION-ELECTRON SYSTEM (eV)
  ---------------------------------------------------
  free  energy   TOTEN  =      -340.98407755 eV

  energy  without entropy=     -340.98407755  energy(sigma->0) =     -340.98407755
 
 d Force = 0.8663783E-01[ 0.824E-01, 0.909E-01]  d Energy = 0.8651756E-01 0.120E-03
 d Force = 0.4184469E+02[ 0.418E+02, 0.419E+02]  d Ewald  = 0.4184469E+02-0.593E-06


--------------------------------------------------------------------------------------------------------


    POTLOK:  cpu time    0.2634: real time    0.2636


--------------------------------------------------------------------------------------------------------


           RANDOM_SEED =         235972299              324                0
   IONSTEP:  cpu time    0.0001: real time    0.0001

  ENERGY OF THE ELECTRON-ION-THERMOSTAT SYSTEM (eV)
  ---------------------------------------------------
% ion-electron   TOTEN  =      -340.984078  see above
  kinetic energy EKIN   =         1.013218
  kin. lattice  EKIN_LAT=         0.000000  (temperature  147.90 K)
  nose potential ES     =         0.039540
  nose kinetic   EPS    =         0.015200
  ---------------------------------------------------
  total energy   ETOTAL =      -339.916119 eV

  maximum distance moved by ions :      0.73E-03


 mean value of Nose-termostat <S>:     1.049 mean value of <T> :   147.897
 mean temperature <T/S>/<1/S>  :   147.897

    WAVPRE:  cpu time    0.0962: real time    0.0989
    FEWALD:  cpu time    0.0025: real time    0.0025
    ORTHCH:  cpu time    7.4344: real time    7.4478
    POTLOK:  cpu time    0.2309: real time    0.2311
    EDDIAG:  cpu time    2.2555: real time    2.2578
     LOOP+:  cpu time  455.5801: real time  456.6103
    4ORBIT:  cpu time    0.0000: real time    0.0000

 total amount of memory used by VASP MPI-rank0   333548. kBytes
=======================================================================

   base      :      30000. kBytes
   nonl-proj :     181831. kBytes
   fftplans  :      15437. kBytes
   grid      :      73553. kBytes
   one-center:        839. kBytes
   wavefun   :      31888. kBytes
 
  
  
 General timing and accounting informations for this job:
 ========================================================
  
                  Total CPU time used (sec):     5247.813
                            User time (sec):     5235.627
                          System time (sec):       12.186
                         Elapsed time (sec):     5259.931
  
                   Maximum memory used (kb):      740784.
                   Average memory used (kb):           0.
  
                          Minor page faults:       415992
                          Major page faults:            0
                 Voluntary context switches:          559
