 vasp.6.1.1 19Jun20 (build Dec 21 2021 08:45:49) complex                        
  
 executed on             LinuxIFC date 2023.10.08  08:04:06
 running on   40 total cores
 distrk:  each k-point on   40 cores,    1 groups
 distr:  one band on NCORE=   1 cores,   40 groups


--------------------------------------------------------------------------------------------------------


 INCAR:
 POTCAR:   PAW_PBE Te 08Apr2002                   
 POTCAR:   PAW_PBE Mo 08Apr2002                   
 -----------------------------------------------------------------------------
|                                                                             |
|           W    W    AA    RRRRR   N    N  II  N    N   GGGG   !!!           |
|           W    W   A  A   R    R  NN   N  II  NN   N  G    G  !!!           |
|           W    W  A    A  R    R  N N  N  II  N N  N  G       !!!           |
|           W WW W  AAAAAA  RRRRR   N  N N  II  N  N N  G  GGG   !            |
|           WW  WW  A    A  R   R   N   NN  II  N   NN  G    G                |
|           W    W  A    A  R    R  N    N  II  N    N   GGGG   !!!           |
|                                                                             |
|     For optimal performance we recommend to set                             |
|       NCORE = 4 - approx SQRT(number of cores).                             |
|     NCORE specifies how many cores store one orbital (NPAR=cpu/NCORE).      |
|     This setting can greatly improve the performance of VASP for DFT.       |
|     The default, NCORE=1 might be grossly inefficient on modern             |
|     multi-core architectures or massively parallel machines. Do your        |
|     own testing!!!!                                                         |
|     Unfortunately you need to use the default for GW and RPA                |
|     calculations (for HF NCORE is supported but not extensively tested      |
|     yet).                                                                   |
|                                                                             |
 -----------------------------------------------------------------------------

 POTCAR:   PAW_PBE Te 08Apr2002                   
   VRHFIN =Te: s2p4                                                                                 
   LEXCH  = PE                                                                                      
   EATOM  =   223.2721 eV,   16.4100 Ry                                                             
                                                                                                    
   TITEL  = PAW_PBE Te 08Apr2002                                                                    
   LULTRA =        F    use ultrasoft PP ?                                                          
   IUNSCR =        1    unscreen: 0-lin 1-nonlin 2-no                                               
   RPACOR =    2.200    partial core radius                                                         
   POMASS =  127.600; ZVAL   =    6.000    mass and valenz                                          
   RCORE  =    2.300    outmost cutoff radius                                                       
   RWIGS  =    2.900; RWIGS  =    1.535    wigner-seitz radius (au A)                               
   ENMAX  =  174.982; ENMIN  =  131.236 eV                                                          
   ICORE  =        3    local potential                                                             
   LCOR   =        T    correct aug charges                                                         
   LPAW   =        T    paw PP                                                                      
   EAUG   =  368.792                                                                                
   DEXC   =    -.169                                                                                
   RMAX   =    3.486    core radius for proj-oper                                                   
   RAUG   =    1.300    factor for augmentation sphere                                              
   RDEP   =    2.397    radius for radial grids                                                     
   QCUT   =   -3.586; QGAM   =    7.172    optimization parameters                                  
                                                                                                    
   Description                                                                                      
     l     E      TYP  RCUT    TYP  RCUT                                                            
     0   .000     23  2.300                                                                         
     0   .000     23  2.300                                                                         
     1   .000     23  2.300                                                                         
     1   .000     23  2.300                                                                         
     2   .000     23  2.300                                                                         
     3  -.100     23  2.300                                                                         
  local pseudopotential read in
  partial core-charges read in
  atomic valenz-charges read in
  non local Contribution for L=           0  read in
    real space projection operators read in
  non local Contribution for L=           0  read in
    real space projection operators read in
  non local Contribution for L=           1  read in
    real space projection operators read in
  non local Contribution for L=           1  read in
    real space projection operators read in
  non local Contribution for L=           2  read in
    real space projection operators read in
    PAW grid and wavefunctions read in
 
   number of l-projection  operators is LMAX  =           5
   number of lm-projection operators is LMMAX =          13
 
 POTCAR:   PAW_PBE Mo 08Apr2002                   
   VRHFIN =Mo: 4p5s4d                                                                               
   LEXCH  = PE                                                                                      
   EATOM  =   217.5180 eV,   15.9871 Ry                                                             
                                                                                                    
   TITEL  = PAW_PBE Mo 08Apr2002                                                                    
   LULTRA =        F    use ultrasoft PP ?                                                          
   IUNSCR =        1    unscreen: 0-lin 1-nonlin 2-no                                               
   RPACOR =    2.200    partial core radius                                                         
   POMASS =   95.940; ZVAL   =    6.000    mass and valenz                                          
   RCORE  =    2.750    outmost cutoff radius                                                       
   RWIGS  =    2.750; RWIGS  =    1.455    wigner-seitz radius (au A)                               
   ENMAX  =  224.584; ENMIN  =  168.438 eV                                                          
   RCLOC  =    2.111    cutoff for local pot                                                        
   LCOR   =        T    correct aug charges                                                         
   LPAW   =        T    paw PP                                                                      
   EAUG   =  345.278                                                                                
   DEXC   =    -.088                                                                                
   RMAX   =    3.077    core radius for proj-oper                                                   
   RAUG   =    1.300    factor for augmentation sphere                                              
   RDEP   =    2.815    radius for radial grids                                                     
   QCUT   =   -4.063; QGAM   =    8.126    optimization parameters                                  
                                                                                                    
   Description                                                                                      
     l     E      TYP  RCUT    TYP  RCUT                                                            
     2   .000     23  2.500                                                                         
     2   .000     23  2.500                                                                         
     0   .000     23  2.600                                                                         
     0  1.000     23  2.600                                                                         
     1   .400     23  2.750                                                                         
     1  2.000     23  2.750                                                                         
     3   .000      7   .000                                                                         
  local pseudopotential read in
  partial core-charges read in
  atomic valenz-charges read in
  non local Contribution for L=           2  read in
    real space projection operators read in
  non local Contribution for L=           2  read in
    real space projection operators read in
  non local Contribution for L=           0  read in
    real space projection operators read in
  non local Contribution for L=           0  read in
    real space projection operators read in
  non local Contribution for L=           1  read in
    real space projection operators read in
  non local Contribution for L=           1  read in
    real space projection operators read in
    PAW grid and wavefunctions read in
 
   number of l-projection  operators is LMAX  =           6
   number of lm-projection operators is LMMAX =          18
 
 -----------------------------------------------------------------------------
|                                                                             |
|               ----> ADVICE to this user running VASP <----                  |
|                                                                             |
|     You have a (more or less) 'large supercell' and for larger cells it     |
|     might be more efficient to use real-space projection operators.         |
|     Therefore, try LREAL= Auto in the INCAR file.                           |
|     Mind: If you want to do very accurate calculations, keep the            |
|     reciprocal projection scheme (i.e. LREAL=.FALSE.).                      |
|                                                                             |
 -----------------------------------------------------------------------------

 PAW_PBE Te 08Apr2002                   :
 energy of atom  1       EATOM= -223.2721
 kinetic energy error for atom=    0.0006 (will be added to EATOM!!)
 PAW_PBE Mo 08Apr2002                   :
 energy of atom  2       EATOM= -217.5180
 kinetic energy error for atom=    0.0009 (will be added to EATOM!!)
 
 
 POSCAR: Te Mo
  positions in cartesian coordinates
  No initial velocities read in
 exchange correlation table for  LEXCH =        8
   RHO(1)=    0.500       N(1)  =     2000
   RHO(2)=  100.500       N(2)  =     4000
 


--------------------------------------------------------------------------------------------------------


 ion  position               nearest neighbor table
   1  0.111  0.222  0.320-  38 2.77  41 2.78  37 2.80   2 3.52   3 3.52   5 3.54   9 3.55   4 3.58
                             7 3.59
   2  0.111  0.556  0.321-  39 2.75  42 2.77  38 2.80   3 3.51   1 3.52   6 3.54   7 3.55   8 3.58
                             5 3.59
   3  0.111  0.889  0.321-  37 2.76  40 2.76  39 2.79   2 3.51   1 3.52   8 3.53   4 3.54   6 3.58
                             9 3.59
   4  0.444  0.222  0.321-  41 2.75  44 2.76  40 2.80   6 3.51   5 3.52   3 3.54   8 3.55   7 3.58
                             1 3.58
   5  0.445  0.556  0.321-  42 2.75  45 2.76  41 2.80   6 3.52   4 3.52   9 3.53   1 3.54   8 3.59
                             2 3.59
   6  0.444  0.889  0.321-  40 2.75  43 2.77  42 2.80   4 3.51   5 3.52   7 3.53   2 3.54   3 3.58
                             9 3.58
   7  0.777  0.222  0.321-  44 2.77  38 2.77  43 2.79   9 3.51   8 3.53   6 3.53   2 3.55   4 3.58
                             1 3.59
   8  0.779  0.556  0.321-  45 2.75  39 2.76  44 2.80   9 3.52   7 3.53   3 3.53   4 3.55   2 3.58
                             5 3.59
   9  0.777  0.889  0.321-  43 2.75  37 2.77  45 2.79   7 3.51   8 3.52   5 3.53   1 3.55   6 3.58
                             3 3.59
  10  0.000  0.056  0.558-  52 2.76  46 2.76  54 2.80  12 3.52  11 3.52  18 3.54  14 3.54  16 3.58
                            13 3.59
  11  1.000  0.389  0.558-  53 2.75  47 2.77  52 2.80  12 3.52  10 3.52  15 3.54  16 3.54  17 3.58
                            14 3.59
  12  1.000  0.722  0.558-  54 2.75  48 2.77  53 2.79  11 3.52  10 3.52  17 3.54  13 3.54  18 3.58
                            15 3.59
  13  0.334  0.056  0.559-  46 2.76  49 2.77  48 2.80  14 3.52  15 3.52  17 3.54  12 3.54  16 3.58
                            10 3.59
  14  0.333  0.389  0.558-  47 2.76  50 2.76  46 2.79  15 3.52  13 3.52  10 3.54  18 3.54  17 3.58
                            11 3.59
  15  0.334  0.722  0.558-  48 2.76  51 2.76  47 2.80  14 3.52  13 3.52  16 3.54  11 3.54  18 3.58
                            12 3.59
  16  0.667  0.055  0.559-  49 2.75  52 2.76  51 2.80  18 3.52  17 3.52  15 3.54  11 3.54  13 3.58
                            10 3.58
  17  0.667  0.389  0.558-  50 2.75  53 2.76  49 2.79  18 3.52  16 3.52  13 3.54  12 3.54  11 3.58
                            14 3.58
  18  0.667  0.722  0.558-  51 2.76  54 2.76  50 2.80  17 3.52  16 3.52  10 3.54  14 3.54  12 3.58
                            15 3.58
  19  0.112  0.223  0.442-  37 2.72  38 2.79  41 2.80  20 3.51  21 3.52  23 3.54  27 3.55  22 3.58
                            25 3.58
  20  0.111  0.556  0.442-  38 2.71  39 2.79  42 2.80  19 3.51  21 3.52  24 3.54  25 3.54  23 3.59
                            26 3.59
  21  0.111  0.889  0.441-  39 2.72  37 2.79  40 2.80  19 3.52  20 3.52  22 3.54  26 3.55  24 3.58
                            27 3.59
  22  0.444  0.223  0.441-  40 2.72  41 2.78  44 2.80  23 3.52  24 3.52  26 3.53  21 3.54  19 3.58
                            25 3.59
  23  0.445  0.556  0.441-  41 2.72  42 2.79  45 2.80  24 3.51  22 3.52  27 3.53  19 3.54  26 3.58
                            20 3.59
  24  0.444  0.889  0.442-  42 2.72  40 2.79  43 2.81  23 3.51  22 3.52  20 3.54  25 3.54  27 3.58
                            21 3.58
  25  0.778  0.222  0.441-  43 2.71  38 2.80  44 2.80  26 3.51  27 3.52  20 3.54  24 3.54  19 3.58
                            22 3.59
  26  0.777  0.555  0.441-  44 2.70  45 2.79  39 2.81  25 3.51  27 3.52  22 3.53  21 3.55  23 3.58
                            20 3.59
  27  0.777  0.889  0.441-  45 2.72  43 2.79  37 2.80  25 3.52  26 3.52  23 3.53  19 3.55  24 3.58
                            21 3.59
  28  0.000  0.055  0.679-  54 2.72  52 2.79  46 2.80  30 3.51  29 3.52  32 3.54  36 3.55  34 3.58
                            31 3.58
  29  1.000  0.389  0.679-  52 2.72  53 2.80  47 2.81  28 3.52  30 3.52  34 3.54  33 3.54  35 3.58
                            32 3.59
  30  0.000  0.723  0.679-  53 2.73  54 2.79  48 2.80  28 3.51  29 3.52  31 3.53  35 3.54  33 3.59
                            36 3.59
  31  0.333  0.055  0.679-  48 2.70  46 2.79  49 2.81  33 3.51  32 3.52  30 3.53  35 3.55  28 3.58
                            34 3.59
  32  0.334  0.389  0.679-  46 2.71  47 2.79  50 2.79  33 3.52  31 3.52  36 3.53  28 3.54  35 3.59
                            29 3.59
  33  0.334  0.722  0.679-  47 2.72  48 2.79  51 2.80  31 3.51  32 3.52  34 3.54  29 3.54  36 3.57
                            30 3.59
  34  0.667  0.055  0.679-  51 2.71  49 2.79  52 2.80  36 3.51  35 3.52  29 3.54  33 3.54  28 3.58
                            31 3.59
  35  0.667  0.389  0.679-  49 2.72  50 2.79  53 2.80  36 3.52  34 3.52  30 3.54  31 3.55  29 3.58
                            32 3.59
  36  0.666  0.722  0.679-  50 2.72  51 2.79  54 2.81  34 3.51  35 3.52  32 3.53  28 3.55  33 3.57
                            30 3.59
  37  0.000  0.000  0.381-  19 2.72   3 2.76   9 2.77  21 2.79   1 2.80  27 2.80
  38  1.000  0.333  0.381-  20 2.71   1 2.77   7 2.77  19 2.79  25 2.80   2 2.80
  39  0.000  0.667  0.381-  21 2.72   2 2.75   8 2.76   3 2.79  20 2.79  26 2.81
  40  0.333  1.000  0.381-  22 2.72   6 2.75   3 2.76  24 2.79   4 2.80  21 2.80
  41  0.334  0.333  0.381-  23 2.72   4 2.75   1 2.78  22 2.78   5 2.80  19 2.80
  42  0.334  0.667  0.381-  24 2.72   5 2.75   2 2.77  23 2.79   6 2.80  20 2.80
  43  0.667  0.000  0.381-  25 2.71   9 2.75   6 2.77  27 2.79   7 2.79  24 2.81
  44  0.666  0.334  0.381-  26 2.70   4 2.76   7 2.77   8 2.80  25 2.80  22 2.80
  45  0.667  0.667  0.381-  27 2.72   8 2.75   5 2.76   9 2.79  26 2.79  23 2.80
  46  0.222  0.167  0.619-  32 2.71  13 2.76  10 2.76  31 2.79  14 2.79  28 2.80
  47  0.222  0.500  0.619-  33 2.72  14 2.76  11 2.77  32 2.79  15 2.80  29 2.81
  48  0.222  0.833  0.619-  31 2.70  15 2.76  12 2.77  33 2.79  13 2.80  30 2.80
  49  0.556  0.167  0.619-  35 2.72  16 2.75  13 2.77  34 2.79  17 2.79  31 2.81
  50  0.555  0.499  0.619-  36 2.72  17 2.75  14 2.76  35 2.79  32 2.79  18 2.80
  51  0.555  0.833  0.619-  34 2.71  18 2.76  15 2.76  36 2.79  33 2.80  16 2.80
  52  0.889  0.167  0.619-  29 2.72  10 2.76  16 2.76  28 2.79  34 2.80  11 2.80
  53  0.889  0.500  0.619-  30 2.73  11 2.75  17 2.76  12 2.79  35 2.80  29 2.80
  54  0.889  0.833  0.619-  28 2.72  12 2.75  18 2.76  30 2.79  10 2.80  36 2.81
 

IMPORTANT INFORMATION: All symmetrisations will be switched off!
NOSYMM: (Re-)initialisation of all symmetry stuff for point group C_1.


----------------------------------------------------------------------------------------

                                     Primitive cell                                     

  volume of cell :    3028.5767

  direct lattice vectors                    reciprocal lattice vectors
    10.751606322  0.000000000  0.000000000     0.093009358  0.054126038  0.001563812
    -5.308722779  9.122428200  0.000000000     0.000000000  0.109619937  0.003132058
    -0.005751335 -0.882256882 30.878398457     0.000000000  0.000000000  0.032385099

  length of vectors
    10.751606322 10.554678290 30.891000333     0.107623483  0.109664672  0.032385099

  position of ions in fractional coordinates (direct lattice)
     0.111138262  0.222353356  0.320374123
     0.111144600  0.555830593  0.320623313
     0.110915327  0.888521052  0.320801626
     0.444445179  0.222223267  0.320666980
     0.444891161  0.556002394  0.320823550
     0.444377199  0.889230966  0.320675265
     0.777260744  0.221573123  0.320570382
     0.778694706  0.556315375  0.320680681
     0.777318896  0.888710000  0.320873221
     0.000010718  0.055553662  0.558497022
     0.999857851  0.389009240  0.558346950
     0.999999859  0.722289214  0.558442180
     0.333643776  0.055683155  0.558532403
     0.333256020  0.388812008  0.558450115
     0.333532374  0.722029358  0.558327568
     0.666598251  0.055489294  0.558517172
     0.666680441  0.389135265  0.558482000
     0.666997719  0.722417808  0.558458543
     0.111813027  0.223031182  0.441553427
     0.111232328  0.555565611  0.441514821
     0.111280640  0.889357368  0.441490072
     0.444208513  0.222515312  0.441445180
     0.445165128  0.556187095  0.441434816
     0.444322365  0.888789053  0.441672486
     0.777940807  0.222130827  0.441454699
     0.777146842  0.554670186  0.441358285
     0.777060711  0.888562706  0.441424303
     0.000053813  0.055151245  0.679216512
     0.999752823  0.388775917  0.679436301
     0.000056442  0.722783189  0.679376239
     0.333157400  0.055026681  0.679070137
     0.333582017  0.388874815  0.679147637
     0.333579454  0.722275124  0.679244837
     0.666959773  0.055234061  0.679177841
     0.667407633  0.389435578  0.679255932
     0.665717574  0.722046301  0.679317876
     0.000383983  0.000395324  0.381293178
     0.999591960  0.333474073  0.381238867
     0.000408039  0.667002930  0.381109798
     0.333417213  0.999814991  0.381087455
     0.333732657  0.333346967  0.381209981
     0.333929713  0.666725799  0.381225239
     0.666860199  0.000048690  0.381111497
     0.666349632  0.334054988  0.381135341
     0.667051863  0.666599746  0.380910122
     0.222220869  0.166703576  0.618893274
     0.222148519  0.499943576  0.618895726
     0.222354209  0.833389519  0.619014539
     0.556437646  0.167081819  0.618883763
     0.555164850  0.499056992  0.618912026
     0.555163129  0.832996786  0.618938447
     0.888856539  0.166709752  0.618909155
     0.888549595  0.500019052  0.618680502
     0.888885269  0.832647493  0.618825316

  ion indices of the primitive-cell ions
   primitive index   ion index
                 1           1
                 2           2
                 3           3
                 4           4
                 5           5
                 6           6
                 7           7
                 8           8
                 9           9
                10          10
                11          11
                12          12
                13          13
                14          14
                15          15
                16          16
                17          17
                18          18
                19          19
                20          20
                21          21
                22          22
                23          23
                24          24
                25          25
                26          26
                27          27
                28          28
                29          29
                30          30
                31          31
                32          32
                33          33
                34          34
                35          35
                36          36
                37          37
                38          38
                39          39
                40          40
                41          41
                42          42
                43          43
                44          44
                45          45
                46          46
                47          47
                48          48
                49          49
                50          50
                51          51
                52          52
                53          53
                54          54

----------------------------------------------------------------------------------------

 
 

Automatic generation of k-mesh.
 generate k-points for:    3    3    1
Space group operators:
 irot       det(A)        alpha          n_x          n_y          n_z        tau_x        tau_y        tau_z
    1     1.000000     0.000000     1.000000     0.000000     0.000000     0.000000     0.000000     0.000000
 
 Subroutine IBZKPT returns following result:
 ===========================================
 
 Found      5 irreducible k-points:
 
 Following reciprocal coordinates:
            Coordinates               Weight
  0.000000  0.000000  0.000000      1.000000
  0.333333 -0.000000 -0.000000      2.000000
  0.000000  0.333333  0.000000      2.000000
  0.333333  0.333333  0.000000      2.000000
 -0.333333  0.333333  0.000000      2.000000
 
 Following cartesian coordinates:
            Coordinates               Weight
  0.000000  0.000000  0.000000      1.000000
  0.031003  0.018042  0.000521      2.000000
  0.000000  0.036540  0.001044      2.000000
  0.031003  0.054582  0.001565      2.000000
 -0.031003  0.018498  0.000523      2.000000
 


--------------------------------------------------------------------------------------------------------




 Dimension of arrays:
   k-points           NKPTS =      5   k-points in BZ     NKDIM =      5   number of bands    NBANDS=    200
   number of dos      NEDOS =    301   number of ions     NIONS =     54
   non local maximal  LDIM  =      6   non local SUM 2l+1 LMDIM =     18
   total plane-waves  NPLWV = ******
   max r-space proj   IRMAX =      1   max aug-charges    IRDMAX=  36095
   dimension x,y,z NGX =    84 NGY =   84 NGZ =  240
   dimension x,y,z NGXF=   168 NGYF=  168 NGZF=  480
   support grid    NGXF=   168 NGYF=  168 NGZF=  480
   ions per type =              36  18
   NGX,Y,Z   is equivalent  to a cutoff of  12.99, 13.23, 12.92 a.u.
   NGXF,Y,Z  is equivalent  to a cutoff of  25.98, 26.46, 25.83 a.u.

 SYSTEM =  dpgen_md                                
 POSCAR =  Te Mo                                   

 Startparameter for this run:
   NWRITE =      2    write-flag & timer
   PREC   = a         normal or accurate (medium, high low for compatibility)
   ISTART =      0    job   : 0-new  1-cont  2-samecut
   ICHARG =      2    charge: 1-file 2-atom 10-const
   ISPIN  =      1    spin polarized calculation?
   LNONCOLLINEAR =      F non collinear calculations
   LSORBIT =      F    spin-orbit coupling
   INIWAV =      1    electr: 0-lowe 1-rand  2-diag
   LASPH  =      F    aspherical Exc in radial PAW
   METAGGA=      F    non-selfconsistent MetaGGA calc.

 Electronic Relaxation 1
   ENCUT  =  550.0 eV  40.42 Ry    6.36 a.u.  20.56 20.18 59.07*2*pi/ulx,y,z
   ENINI  =  550.0     initial cutoff
   ENAUG  =  368.8 eV  augmentation charge cutoff
   NELM   =    100;   NELMIN=  6; NELMDL= -5     # of ELM steps 
   EDIFF  = 0.1E-05   stopping-criterion for ELM
   LREAL  =      F    real-space projection
   NLSPLINE    = F    spline interpolate recip. space projectors
   LCOMPAT=      F    compatible to vasp.4.4
   GGA_COMPAT  = T    GGA compatible to vasp.4.4-vasp.4.6
   LMAXPAW     = -100 max onsite density
   LMAXMIX     =    2 max onsite mixed and CHGCAR
   VOSKOWN=      0    Vosko Wilk Nusair interpolation
   ROPT   =    0.00000   0.00000
 Ionic relaxation
   EDIFFG = 0.1E-04   stopping-criterion for IOM
   NSW    =     10    number of steps for IOM
   NBLOCK =      1;   KBLOCK =      1    inner block; outer block 
   IBRION =      0    ionic relax: 0-MD 1-quasi-New 2-CG
   NFREE  =      0    steps in history (QN), initial steepest desc. (CG)
   ISIF   =      2    stress and relaxation
   IWAVPR =     11    prediction:  0-non 1-charg 2-wave 3-comb
   ISYM   =      0    0-nonsym 1-usesym 2-fastsym
   LCORR  =      T    Harris-Foulkes like correction to forces

   POTIM  = 2.0000    time-step for ionic-motion
   TEIN   =  100.0    initial temperature
   TEBEG  =  100.0;   TEEND  = 100.0 temperature during run
   SMASS  =   0.04    Nose mass-parameter (am)
   estimated Nose-frequenzy (Omega)   =  0.79E+14 period in steps = 0.40E+02 mass=   0.327E-28a.u.
   SCALEE = 1.0000    scale energy and forces
   NPACO  =    256;   APACO  = 16.0  distance and # of slots for P.C.
   PSTRESS=    0.0 pullay stress

  Mass of Ions in am
   POMASS = 127.60 95.94
  Ionic Valenz
   ZVAL   =   6.00  6.00
  Atomic Wigner-Seitz radii
   RWIGS  =  -1.00 -1.00
  virtual crystal weights 
   VCA    =   1.00  1.00
   NELECT =     324.0000    total number of electrons
   NUPDOWN=      -1.0000    fix difference up-down

 DOS related values:
   EMIN   =  10.00;   EMAX   =-10.00  energy-range for DOS
   EFERMI =   0.00
   ISMEAR =     0;   SIGMA  =   0.10  broadening in eV -4-tet -1-fermi 0-gaus

 Electronic relaxation 2 (details)
   IALGO  =     68    algorithm
   LDIAG  =      T    sub-space diagonalisation (order eigenvalues)
   LSUBROT=      F    optimize rotation matrix (better conditioning)
   TURBO    =      0    0=normal 1=particle mesh
   IRESTART =      0    0=no restart 2=restart with 2 vectors
   NREBOOT  =      0    no. of reboots
   NMIN     =      0    reboot dimension
   EREF     =   0.00    reference energy to select bands
   IMIX   =      4    mixing-type and parameters
     AMIX     =   0.40;   BMIX     =  1.00
     AMIX_MAG =   1.60;   BMIX_MAG =  1.00
     AMIN     =   0.10
     WC   =   100.;   INIMIX=   1;  MIXPRE=   1;  MAXMIX= -45

 Intra band minimization:
   WEIMIN = 0.0010     energy-eigenvalue tresh-hold
   EBREAK =  0.13E-08  absolut break condition
   DEPER  =   0.30     relativ break condition  

   TIME   =   0.40     timestep for ELM

  volume/ion in A,a.u.               =      56.08       378.48
  Fermi-wavevector in a.u.,A,eV,Ry     =   0.777160  1.468619  8.217610  0.603977
  Thomas-Fermi vector in A             =   1.879789
 
 Write flags
   LWAVE        =      F    write WAVECAR
   LDOWNSAMPLE  =      F    k-point downsampling of WAVECAR
   LCHARG       =      F    write CHGCAR
   LVTOT        =      F    write LOCPOT, total local potential
   LVHAR        =      F    write LOCPOT, Hartree potential only
   LELF         =      F    write electronic localiz. function (ELF)
   LORBIT       =      0    0 simple, 1 ext, 2 COOP (PROOUT), +10 PAW based schemes


 Dipole corrections
   LMONO  =      F    monopole corrections only (constant potential shift)
   LDIPOL =      F    correct potential (dipole corrections)
   IDIPOL =      0    1-x, 2-y, 3-z, 4-all directions 
   EPSILON=  1.0000000 bulk dielectric constant

 Exchange correlation treatment:
   GGA     =    --    GGA type
   LEXCH   =     8    internal setting for exchange type
   VOSKOWN=      0    Vosko Wilk Nusair interpolation
   LHFCALC =     F    Hartree Fock is set to
   LHFONE  =     F    Hartree Fock one center treatment
   AEXX    =    0.0000 exact exchange contribution

 Linear response parameters
   LEPSILON=     F    determine dielectric tensor
   LRPA    =     F    only Hartree local field effects (RPA)
   LNABLA  =     F    use nabla operator in PAW spheres
   LVEL    =     F    velocity operator in full k-point grid
   LINTERFAST=   F  fast interpolation
   KINTER  =     0    interpolate to denser k-point grid
   CSHIFT  =0.1000    complex shift for real part using Kramers Kronig
   OMEGAMAX=  -1.0    maximum frequency
   DEG_THRESHOLD= 0.2000000E-02 threshold for treating states as degnerate
   RTIME   =   -0.100 relaxation time in fs
  (WPLASMAI=    0.000 imaginary part of plasma frequency in eV, 0.658/RTIME)
   DFIELD  = 0.0000000 0.0000000 0.0000000 field for delta impulse in time
 
 Orbital magnetization related:
   ORBITALMAG=     F  switch on orbital magnetization
   LCHIMAG   =     F  perturbation theory with respect to B field
   DQ        =  0.001000  dq finite difference perturbation B field
   LLRAUG    =     F  two centre corrections for induced B field



--------------------------------------------------------------------------------------------------------


 molecular dynamics for ions
   using nose mass (canonical ensemble)
 charge density and potential will be updated during run
 non-spin polarized calculation
 RMM-DIIS sequential band-by-band and
  variant of blocked Davidson during initial phase
 perform sub-space diagonalisation
    before iterative eigenvector-optimisation
 modified Broyden-mixing scheme, WC =      100.0
 initial mixing is a Kerker type mixing with AMIX =  0.4000 and BMIX =      1.0000
 Hartree-type preconditioning will be used
 using additional bands           38
 reciprocal scheme for non local part
 use partial core corrections
 calculate Harris-corrections to forces 
   (improved forces if not selfconsistent)
 use gradient corrections 
 use of overlap-Matrix (Vanderbilt PP)
 Gauss-broadening in eV      SIGMA  =   0.10


--------------------------------------------------------------------------------------------------------


  energy-cutoff  :      550.00
  volume of cell :     3028.58
      direct lattice vectors                 reciprocal lattice vectors
    10.751606322  0.000000000  0.000000000     0.093009358  0.054126038  0.001563812
    -5.308722779  9.122428200  0.000000000     0.000000000  0.109619937  0.003132058
    -0.005751335 -0.882256882 30.878398457     0.000000000  0.000000000  0.032385099

  length of vectors
    10.751606322 10.554678290 30.891000333     0.107623483  0.109664672  0.032385099


 
 k-points in units of 2pi/SCALE and weight: read from INCAR                         
   0.00000000  0.00000000  0.00000000       0.111
   0.03100312  0.01804201  0.00052127       0.222
   0.00000000  0.03653998  0.00104402       0.222
   0.03100312  0.05458199  0.00156529       0.222
  -0.03100312  0.01849797  0.00052275       0.222
 
 k-points in reciprocal lattice and weights: read from INCAR                         
   0.00000000  0.00000000  0.00000000       0.111
   0.33333333 -0.00000000 -0.00000000       0.222
   0.00000000  0.33333333  0.00000000       0.222
   0.33333333  0.33333333  0.00000000       0.222
  -0.33333333  0.33333333  0.00000000       0.222
 
 position of ions in fractional coordinates (direct lattice) 
   0.11113826  0.22235336  0.32037412
   0.11114460  0.55583059  0.32062331
   0.11091533  0.88852105  0.32080163
   0.44444518  0.22222327  0.32066698
   0.44489116  0.55600239  0.32082355
   0.44437720  0.88923097  0.32067526
   0.77726074  0.22157312  0.32057038
   0.77869471  0.55631537  0.32068068
   0.77731890  0.88871000  0.32087322
   0.00001072  0.05555366  0.55849702
   0.99985785  0.38900924  0.55834695
   0.99999986  0.72228921  0.55844218
   0.33364378  0.05568315  0.55853240
   0.33325602  0.38881201  0.55845012
   0.33353237  0.72202936  0.55832757
   0.66659825  0.05548929  0.55851717
   0.66668044  0.38913527  0.55848200
   0.66699772  0.72241781  0.55845854
   0.11181303  0.22303118  0.44155343
   0.11123233  0.55556561  0.44151482
   0.11128064  0.88935737  0.44149007
   0.44420851  0.22251531  0.44144518
   0.44516513  0.55618710  0.44143482
   0.44432236  0.88878905  0.44167249
   0.77794081  0.22213083  0.44145470
   0.77714684  0.55467019  0.44135828
   0.77706071  0.88856271  0.44142430
   0.00005381  0.05515124  0.67921651
   0.99975282  0.38877592  0.67943630
   0.00005644  0.72278319  0.67937624
   0.33315740  0.05502668  0.67907014
   0.33358202  0.38887481  0.67914764
   0.33357945  0.72227512  0.67924484
   0.66695977  0.05523406  0.67917784
   0.66740763  0.38943558  0.67925593
   0.66571757  0.72204630  0.67931788
   0.00038398  0.00039532  0.38129318
   0.99959196  0.33347407  0.38123887
   0.00040804  0.66700293  0.38110980
   0.33341721  0.99981499  0.38108745
   0.33373266  0.33334697  0.38120998
   0.33392971  0.66672580  0.38122524
   0.66686020  0.00004869  0.38111150
   0.66634963  0.33405499  0.38113534
   0.66705186  0.66659975  0.38091012
   0.22222087  0.16670358  0.61889327
   0.22214852  0.49994358  0.61889573
   0.22235421  0.83338952  0.61901454
   0.55643765  0.16708182  0.61888376
   0.55516485  0.49905699  0.61891203
   0.55516313  0.83299679  0.61893845
   0.88885654  0.16670975  0.61890916
   0.88854960  0.50001905  0.61868050
   0.88888527  0.83264749  0.61882532
 
 position of ions in cartesian coordinates  (Angst):
   0.01265994  1.74575025  9.89263984
  -1.75761156  4.78765255  9.90033442
  -3.52623905  7.82244006  9.90584044
   3.59693361  1.74430515  9.90168277
   1.82978688  4.78904314  9.90651741
   0.05524370  7.82902769  9.90193860
   7.17868753  1.73845948  9.89869998
   5.41705047  4.79202433  9.90210585
   3.63766629  7.82410056  9.90805118
  -0.29801586  0.01404645 17.24549357
   8.68172454  3.05610342 17.24085960
   6.91395981  6.09634204 17.24380015
   3.28838779  0.01519653 17.24658609
   1.51573054  3.05421317 17.24404517
  -0.25025605  6.09407264 17.24026113
   6.86921247  0.01344148 17.24611579
   5.09886238  3.05713393 17.24502971
   3.33296914  6.09750069 17.24430542
   0.01561941  1.64502240 13.63446266
  -1.75595691  4.67857791 13.63327058
  -3.52744524  7.72359108 13.63250635
   3.59214405  1.64041191 13.63112017
   1.83105826  4.68431794 13.63080015
   0.05630425  7.71824573 13.63813901
   7.18234336  1.63689607 13.63141409
   5.40844824  4.67054757 13.62843698
   3.63497900  7.71639985 13.63047553
  -0.29611050 -0.09613017 20.97311809
   8.68113754  2.94714303 20.97990482
  -3.84035606  5.99415338 20.97805022
   3.28595025 -0.09713736 20.96859827
   1.51820792  2.94829990 20.97099134
  -0.25175000  5.98963452 20.97399273
   6.87376041 -0.09534057 20.97192399
   5.10439198  2.95331988 20.97433532
   3.32048265  5.98748266 20.97624804
  -0.00016318 -0.33279222 11.77372268
   8.97470520  2.70574268 11.77204564
  -3.53873846  5.74844959 11.76806019
  -1.72516177  8.78452344 11.76737027
   1.81632304  2.70460864 11.77115369
   0.04862582  5.74581964 11.77162484
   7.16736795 -0.33579407 11.76811265
   5.38873155  2.71113337 11.76884892
   3.63089503  5.74494775 11.76189454
   1.50068876  0.97471855 19.11043312
  -0.26916790  4.01467436 19.11050882
  -2.03712916  7.05640621 19.11417760
   5.09204805  0.97817744 19.11013942
   3.31599912  4.00657218 19.11101214
   1.54318667  7.05289067 19.11182799
   8.66806017  0.97476088 19.11092351
   6.89531468  4.01555277 19.10386306
   5.13309069  7.04980408 19.10833469
 


--------------------------------------------------------------------------------------------------------


 k-point   1 :   0.0000 0.0000 0.0000  plane waves:   88769
 k-point   2 :   0.3333-0.0000-0.0000  plane waves:   88664
 k-point   3 :   0.0000 0.3333 0.0000  plane waves:   88728
 k-point   4 :   0.3333 0.3333 0.0000  plane waves:   88702
 k-point   5 :  -0.3333 0.3333 0.0000  plane waves:   88706

 maximum and minimum number of plane-waves per node :     88769    88664

 maximum number of plane-waves:     88769
 maximum index in each direction: 
   IXMAX=   20   IYMAX=   20   IZMAX=   59
   IXMIN=  -20   IYMIN=  -20   IZMIN=  -59


 serial   3D FFT for wavefunctions
 parallel 3D FFT for charge:
    minimum data exchange during FFTs selected (reduces bandwidth)


 total amount of memory used by VASP MPI-rank0   381713. kBytes
=======================================================================

   base      :      30000. kBytes
   nonl-proj :     204595. kBytes
   fftplans  :      19943. kBytes
   grid      :      90496. kBytes
   one-center:        839. kBytes
   wavefun   :      35840. kBytes
 
     INWAV:  cpu time    0.0000: real time    0.0000
 Broyden mixing: mesh for mixing (old mesh)
   NGX = 41   NGY = 41   NGZ =119
  (NGX  =168   NGY  =168   NGZ  =480)
  gives a total of 200039 points

 initial charge density was supplied:
 charge density of overlapping atoms calculated
 number of electron     324.0000000 magnetization 
 keeping initial charge density in first step


--------------------------------------------------------------------------------------------------------


 Maximum index for augmentation-charges         2200 (set IRDMAX)


--------------------------------------------------------------------------------------------------------


 First call to EWALD:  gamma=   0.123
 Maximum number of real-space cells 4x 4x 2
 Maximum number of reciprocal cells 2x 2x 5

    FEWALD:  cpu time    0.0021: real time    0.0022


--------------------------------------- Iteration      1(   1)  ---------------------------------------


    POTLOK:  cpu time    0.3506: real time    0.3521
    SETDIJ:  cpu time    0.0123: real time    0.0124
     EDDAV:  cpu time   51.2699: real time   51.3898
       DOS:  cpu time    0.0010: real time    0.0011
    --------------------------------------------
      LOOP:  cpu time   51.6337: real time   51.7554

 eigenvalue-minimisations  :  2000
 total energy-change (2. order) : 0.2083669E+04  (-0.1139688E+05)
 number of electron     324.0000000 magnetization 
 augmentation part      324.0000000 magnetization 

 Free energy of the ion-electron system (eV)
  ---------------------------------------------------
  alpha Z        PSCENC =       236.96483628
  Ewald energy   TEWEN  =     63896.26167972
  -Hartree energ DENC   =    -75541.28862902
  -exchange      EXHF   =         0.00000000
  -V(xc)+E(xc)   XCENC  =     -2104.98042933
  PAW double counting   =      7476.04436201    -4809.59211051
  entropy T*S    EENTRO =        -0.14173920
  eigenvalues    EBANDS =       977.31814842
  atomic energy  EATOM  =     11953.08265402
  Solvation  Ediel_sol  =         0.00000000
  ---------------------------------------------------
  free energy    TOTEN  =      2083.66877241 eV

  energy without entropy =     2083.81051161  energy(sigma->0) =     2083.73964201


--------------------------------------------------------------------------------------------------------




--------------------------------------- Iteration      1(   2)  ---------------------------------------


     EDDAV:  cpu time   70.9756: real time   71.1868
       DOS:  cpu time    0.0006: real time    0.0006
    --------------------------------------------
      LOOP:  cpu time   70.9763: real time   71.1874

 eigenvalue-minimisations  :  3000
 total energy-change (2. order) :-0.2172158E+04  (-0.2096772E+04)
 number of electron     324.0000000 magnetization 
 augmentation part      324.0000000 magnetization 

 Free energy of the ion-electron system (eV)
  ---------------------------------------------------
  alpha Z        PSCENC =       236.96483628
  Ewald energy   TEWEN  =     63896.26167972
  -Hartree energ DENC   =    -75541.28862902
  -exchange      EXHF   =         0.00000000
  -V(xc)+E(xc)   XCENC  =     -2104.98042933
  PAW double counting   =      7476.04436201    -4809.59211051
  entropy T*S    EENTRO =        -0.04195863
  eigenvalues    EBANDS =     -1194.94005555
  atomic energy  EATOM  =     11953.08265402
  Solvation  Ediel_sol  =         0.00000000
  ---------------------------------------------------
  free energy    TOTEN  =       -88.48965099 eV

  energy without entropy =      -88.44769236  energy(sigma->0) =      -88.46867167


--------------------------------------------------------------------------------------------------------




--------------------------------------- Iteration      1(   3)  ---------------------------------------


     EDDAV:  cpu time   60.6560: real time   60.8486
       DOS:  cpu time    0.0004: real time    0.0004
    --------------------------------------------
      LOOP:  cpu time   60.6564: real time   60.8489

 eigenvalue-minimisations  :  2480
 total energy-change (2. order) :-0.2353909E+03  (-0.2311569E+03)
 number of electron     324.0000000 magnetization 
 augmentation part      324.0000000 magnetization 

 Free energy of the ion-electron system (eV)
  ---------------------------------------------------
  alpha Z        PSCENC =       236.96483628
  Ewald energy   TEWEN  =     63896.26167972
  -Hartree energ DENC   =    -75541.28862902
  -exchange      EXHF   =         0.00000000
  -V(xc)+E(xc)   XCENC  =     -2104.98042933
  PAW double counting   =      7476.04436201    -4809.59211051
  entropy T*S    EENTRO =        -0.00000000
  eigenvalues    EBANDS =     -1430.37288027
  atomic energy  EATOM  =     11953.08265402
  Solvation  Ediel_sol  =         0.00000000
  ---------------------------------------------------
  free energy    TOTEN  =      -323.88051708 eV

  energy without entropy =     -323.88051708  energy(sigma->0) =     -323.88051708


--------------------------------------------------------------------------------------------------------




--------------------------------------- Iteration      1(   4)  ---------------------------------------


     EDDAV:  cpu time   74.9012: real time   75.1163
       DOS:  cpu time    0.0004: real time    0.0004
    --------------------------------------------
      LOOP:  cpu time   74.9016: real time   75.1167

 eigenvalue-minimisations  :  3200
 total energy-change (2. order) :-0.1269065E+02  (-0.1260885E+02)
 number of electron     324.0000000 magnetization 
 augmentation part      324.0000000 magnetization 

 Free energy of the ion-electron system (eV)
  ---------------------------------------------------
  alpha Z        PSCENC =       236.96483628
  Ewald energy   TEWEN  =     63896.26167972
  -Hartree energ DENC   =    -75541.28862902
  -exchange      EXHF   =         0.00000000
  -V(xc)+E(xc)   XCENC  =     -2104.98042933
  PAW double counting   =      7476.04436201    -4809.59211051
  entropy T*S    EENTRO =        -0.00000000
  eigenvalues    EBANDS =     -1443.06353307
  atomic energy  EATOM  =     11953.08265402
  Solvation  Ediel_sol  =         0.00000000
  ---------------------------------------------------
  free energy    TOTEN  =      -336.57116988 eV

  energy without entropy =     -336.57116988  energy(sigma->0) =     -336.57116988


--------------------------------------------------------------------------------------------------------




--------------------------------------- Iteration      1(   5)  ---------------------------------------


     EDDAV:  cpu time   69.4476: real time   69.6233
       DOS:  cpu time    0.0004: real time    0.0004
    CHARGE:  cpu time    1.1724: real time    1.1737
    MIXING:  cpu time    0.0077: real time    0.0079
    --------------------------------------------
      LOOP:  cpu time   70.6280: real time   70.8052

 eigenvalue-minimisations  :  2920
 total energy-change (2. order) :-0.3314005E+00  (-0.3304988E+00)
 number of electron     323.9999997 magnetization 
 augmentation part      -26.0878363 magnetization 

 Broyden mixing:
  rms(total) = 0.19968E+01    rms(broyden)= 0.19968E+01
  rms(prec ) = 0.21130E+01
  weight for this iteration     100.00

 Free energy of the ion-electron system (eV)
  ---------------------------------------------------
  alpha Z        PSCENC =       236.96483628
  Ewald energy   TEWEN  =     63896.26167972
  -Hartree energ DENC   =    -75541.28862902
  -exchange      EXHF   =         0.00000000
  -V(xc)+E(xc)   XCENC  =     -2104.98042933
  PAW double counting   =      7476.04436201    -4809.59211051
  entropy T*S    EENTRO =        -0.00000000
  eigenvalues    EBANDS =     -1443.39493357
  atomic energy  EATOM  =     11953.08265402
  Solvation  Ediel_sol  =         0.00000000
  ---------------------------------------------------
  free energy    TOTEN  =      -336.90257038 eV

  energy without entropy =     -336.90257038  energy(sigma->0) =     -336.90257038


--------------------------------------------------------------------------------------------------------




--------------------------------------- Iteration      1(   6)  ---------------------------------------


    POTLOK:  cpu time    0.3031: real time    0.3033
    SETDIJ:  cpu time    0.0172: real time    0.0172
    EDDIAG:  cpu time    2.5978: real time    2.6051
  RMM-DIIS:  cpu time   43.7756: real time   43.8856
    ORTHCH:  cpu time    0.2204: real time    0.2207
       DOS:  cpu time    0.0005: real time    0.0005
    CHARGE:  cpu time    1.1684: real time    1.1696
    MIXING:  cpu time    0.0074: real time    0.0075
    --------------------------------------------
      LOOP:  cpu time   48.0903: real time   48.2094

 eigenvalue-minimisations  :  2148
 total energy-change (2. order) : 0.9163154E+01  (-0.7257668E+01)
 number of electron     323.9999998 magnetization 
 augmentation part      -19.4065017 magnetization 

 Broyden mixing:
  rms(total) = 0.75367E+00    rms(broyden)= 0.75366E+00
  rms(prec ) = 0.88977E+00
  weight for this iteration     100.00

 eigenvalues of (default mixing * dielectric matrix)
  average eigenvalue GAMMA=   0.9533
  0.9533

 Free energy of the ion-electron system (eV)
  ---------------------------------------------------
  alpha Z        PSCENC =       236.96483628
  Ewald energy   TEWEN  =     63896.26167972
  -Hartree energ DENC   =    -75504.29627880
  -exchange      EXHF   =         0.00000000
  -V(xc)+E(xc)   XCENC  =     -2098.46593294
  PAW double counting   =      7594.21115240    -4938.23079631
  entropy T*S    EENTRO =        -0.00000000
  eigenvalues    EBANDS =     -1467.26673118
  atomic energy  EATOM  =     11953.08265402
  Solvation  Ediel_sol  =         0.00000000
  ---------------------------------------------------
  free energy    TOTEN  =      -327.73941680 eV

  energy without entropy =     -327.73941680  energy(sigma->0) =     -327.73941680


--------------------------------------------------------------------------------------------------------




--------------------------------------- Iteration      1(   7)  ---------------------------------------


    POTLOK:  cpu time    0.3132: real time    0.3136
    SETDIJ:  cpu time    0.0146: real time    0.0146
    EDDIAG:  cpu time    2.6161: real time    2.6189
  RMM-DIIS:  cpu time   41.6034: real time   41.7076
    ORTHCH:  cpu time    0.2190: real time    0.2193
       DOS:  cpu time    0.0004: real time    0.0004
    CHARGE:  cpu time    1.1729: real time    1.1781
    MIXING:  cpu time    0.0110: real time    0.0110
    --------------------------------------------
      LOOP:  cpu time   45.9507: real time   46.0635

 eigenvalue-minimisations  :  2028
 total energy-change (2. order) : 0.4023016E+01  (-0.1311862E+01)
 number of electron     323.9999997 magnetization 
 augmentation part      -21.8242838 magnetization 

 Broyden mixing:
  rms(total) = 0.49354E+00    rms(broyden)= 0.49354E+00
  rms(prec ) = 0.52330E+00
  weight for this iteration     100.00

 eigenvalues of (default mixing * dielectric matrix)
  average eigenvalue GAMMA=   1.4463
  0.6980  2.1945

 Free energy of the ion-electron system (eV)
  ---------------------------------------------------
  alpha Z        PSCENC =       236.96483628
  Ewald energy   TEWEN  =     63896.26167972
  -Hartree energ DENC   =    -75594.68261405
  -exchange      EXHF   =         0.00000000
  -V(xc)+E(xc)   XCENC  =     -2097.84699960
  PAW double counting   =      7840.89039555    -5188.72905051
  entropy T*S    EENTRO =        -0.00000000
  eigenvalues    EBANDS =     -1369.65730204
  atomic energy  EATOM  =     11953.08265402
  Solvation  Ediel_sol  =         0.00000000
  ---------------------------------------------------
  free energy    TOTEN  =      -323.71640062 eV

  energy without entropy =     -323.71640062  energy(sigma->0) =     -323.71640062


--------------------------------------------------------------------------------------------------------




--------------------------------------- Iteration      1(   8)  ---------------------------------------


    POTLOK:  cpu time    0.3094: real time    0.3138
    SETDIJ:  cpu time    0.0121: real time    0.0122
    EDDIAG:  cpu time    2.5830: real time    2.5923
  RMM-DIIS:  cpu time   41.2361: real time   41.3819
    ORTHCH:  cpu time    0.2270: real time    0.2272
       DOS:  cpu time    0.0004: real time    0.0004
    CHARGE:  cpu time    1.1721: real time    1.1772
    MIXING:  cpu time    0.0075: real time    0.0075
    --------------------------------------------
      LOOP:  cpu time   45.5476: real time   45.7124

 eigenvalue-minimisations  :  2028
 total energy-change (2. order) : 0.4597535E+00  (-0.9799577E+00)
 number of electron     323.9999997 magnetization 
 augmentation part      -21.7815532 magnetization 

 Broyden mixing:
  rms(total) = 0.16297E+00    rms(broyden)= 0.16297E+00
  rms(prec ) = 0.18993E+00
  weight for this iteration     100.00

 eigenvalues of (default mixing * dielectric matrix)
  average eigenvalue GAMMA=   1.2331
  2.1073  0.7960  0.7960

 Free energy of the ion-electron system (eV)
  ---------------------------------------------------
  alpha Z        PSCENC =       236.96483628
  Ewald energy   TEWEN  =     63896.26167972
  -Hartree energ DENC   =    -75658.28069923
  -exchange      EXHF   =         0.00000000
  -V(xc)+E(xc)   XCENC  =     -2094.06847677
  PAW double counting   =      8114.95515090    -5468.73111909
  entropy T*S    EENTRO =        -0.00000000
  eigenvalues    EBANDS =     -1303.44067294
  atomic energy  EATOM  =     11953.08265402
  Solvation  Ediel_sol  =         0.00000000
  ---------------------------------------------------
  free energy    TOTEN  =      -323.25664709 eV

  energy without entropy =     -323.25664709  energy(sigma->0) =     -323.25664709


--------------------------------------------------------------------------------------------------------




--------------------------------------- Iteration      1(   9)  ---------------------------------------


    POTLOK:  cpu time    0.3040: real time    0.3043
    SETDIJ:  cpu time    0.0117: real time    0.0117
    EDDIAG:  cpu time    2.6328: real time    2.6398
  RMM-DIIS:  cpu time   46.3655: real time   46.5151
    ORTHCH:  cpu time    0.2217: real time    0.2230
       DOS:  cpu time    0.0004: real time    0.0004
    CHARGE:  cpu time    1.1881: real time    1.1893
    MIXING:  cpu time    0.0154: real time    0.0154
    --------------------------------------------
      LOOP:  cpu time   50.7396: real time   50.8991

 eigenvalue-minimisations  :  2223
 total energy-change (2. order) : 0.7572841E-03  (-0.1715884E+00)
 number of electron     323.9999997 magnetization 
 augmentation part      -21.2447078 magnetization 

 Broyden mixing:
  rms(total) = 0.10689E+00    rms(broyden)= 0.10689E+00
  rms(prec ) = 0.11836E+00
  weight for this iteration     100.00

 eigenvalues of (default mixing * dielectric matrix)
  average eigenvalue GAMMA=   1.0910
  2.0176  1.1807  0.7190  0.4465

 Free energy of the ion-electron system (eV)
  ---------------------------------------------------
  alpha Z        PSCENC =       236.96483628
  Ewald energy   TEWEN  =     63896.26167972
  -Hartree energ DENC   =    -75652.18197507
  -exchange      EXHF   =         0.00000000
  -V(xc)+E(xc)   XCENC  =     -2093.74923987
  PAW double counting   =      8106.60968905    -5460.47246093
  entropy T*S    EENTRO =        -0.00000000
  eigenvalues    EBANDS =     -1309.77107301
  atomic energy  EATOM  =     11953.08265402
  Solvation  Ediel_sol  =         0.00000000
  ---------------------------------------------------
  free energy    TOTEN  =      -323.25588981 eV

  energy without entropy =     -323.25588981  energy(sigma->0) =     -323.25588981


--------------------------------------------------------------------------------------------------------




--------------------------------------- Iteration      1(  10)  ---------------------------------------


    POTLOK:  cpu time    0.3165: real time    0.3168
    SETDIJ:  cpu time    0.0118: real time    0.0118
    EDDIAG:  cpu time    2.6039: real time    2.6108
  RMM-DIIS:  cpu time   50.1773: real time   50.3067
    ORTHCH:  cpu time    0.2285: real time    0.2288
       DOS:  cpu time    0.0004: real time    0.0004
    CHARGE:  cpu time    1.1765: real time    1.1778
    MIXING:  cpu time    0.0076: real time    0.0076
    --------------------------------------------
      LOOP:  cpu time   54.5225: real time   54.6607

 eigenvalue-minimisations  :  2440
 total energy-change (2. order) :-0.1179071E-01  (-0.5143661E-01)
 number of electron     323.9999997 magnetization 
 augmentation part      -21.0398706 magnetization 

 Broyden mixing:
  rms(total) = 0.81085E-01    rms(broyden)= 0.81085E-01
  rms(prec ) = 0.89360E-01
  weight for this iteration     100.00

 eigenvalues of (default mixing * dielectric matrix)
  average eigenvalue GAMMA=   1.2471
  2.3218  1.6986  0.9779  0.8640  0.3732

 Free energy of the ion-electron system (eV)
  ---------------------------------------------------
  alpha Z        PSCENC =       236.96483628
  Ewald energy   TEWEN  =     63896.26167972
  -Hartree energ DENC   =    -75653.59142788
  -exchange      EXHF   =         0.00000000
  -V(xc)+E(xc)   XCENC  =     -2093.58575825
  PAW double counting   =      8116.27723095    -5470.14162930
  entropy T*S    EENTRO =        -0.00000000
  eigenvalues    EBANDS =     -1308.53526607
  atomic energy  EATOM  =     11953.08265402
  Solvation  Ediel_sol  =         0.00000000
  ---------------------------------------------------
  free energy    TOTEN  =      -323.26768052 eV

  energy without entropy =     -323.26768052  energy(sigma->0) =     -323.26768052


--------------------------------------------------------------------------------------------------------




--------------------------------------- Iteration      1(  11)  ---------------------------------------


    POTLOK:  cpu time    0.3042: real time    0.3045
    SETDIJ:  cpu time    0.0120: real time    0.0121
    EDDIAG:  cpu time    2.6236: real time    2.6303
  RMM-DIIS:  cpu time   43.9290: real time   44.0410
    ORTHCH:  cpu time    0.2152: real time    0.2154
       DOS:  cpu time    0.0005: real time    0.0005
    CHARGE:  cpu time    1.1911: real time    1.1921
    MIXING:  cpu time    0.0076: real time    0.0076
    --------------------------------------------
      LOOP:  cpu time   48.2833: real time   48.4035

 eigenvalue-minimisations  :  2146
 total energy-change (2. order) : 0.1053088E-01  (-0.2392949E-01)
 number of electron     323.9999997 magnetization 
 augmentation part      -21.3905861 magnetization 

 Broyden mixing:
  rms(total) = 0.47065E-01    rms(broyden)= 0.47065E-01
  rms(prec ) = 0.53233E-01
  weight for this iteration     100.00

 eigenvalues of (default mixing * dielectric matrix)
  average eigenvalue GAMMA=   1.2040
  2.5336  1.5208  1.4068  0.6982  0.6982  0.3664

 Free energy of the ion-electron system (eV)
  ---------------------------------------------------
  alpha Z        PSCENC =       236.96483628
  Ewald energy   TEWEN  =     63896.26167972
  -Hartree energ DENC   =    -75673.63607308
  -exchange      EXHF   =         0.00000000
  -V(xc)+E(xc)   XCENC  =     -2093.29625120
  PAW double counting   =      8169.88121559    -5523.94890550
  entropy T*S    EENTRO =        -0.00000000
  eigenvalues    EBANDS =     -1288.56630547
  atomic energy  EATOM  =     11953.08265402
  Solvation  Ediel_sol  =         0.00000000
  ---------------------------------------------------
  free energy    TOTEN  =      -323.25714964 eV

  energy without entropy =     -323.25714964  energy(sigma->0) =     -323.25714964


--------------------------------------------------------------------------------------------------------




--------------------------------------- Iteration      1(  12)  ---------------------------------------


    POTLOK:  cpu time    0.3132: real time    0.3135
    SETDIJ:  cpu time    0.0201: real time    0.0202
    EDDIAG:  cpu time    2.6142: real time    2.6171
  RMM-DIIS:  cpu time   49.5367: real time   49.6518
    ORTHCH:  cpu time    0.2192: real time    0.2195
       DOS:  cpu time    0.0004: real time    0.0004
    CHARGE:  cpu time    1.1992: real time    1.2003
    MIXING:  cpu time    0.0078: real time    0.0078
    --------------------------------------------
      LOOP:  cpu time   53.9109: real time   54.0305

 eigenvalue-minimisations  :  2360
 total energy-change (2. order) : 0.2448598E-02  (-0.5179208E-02)
 number of electron     323.9999997 magnetization 
 augmentation part      -21.3577915 magnetization 

 Broyden mixing:
  rms(total) = 0.33951E-01    rms(broyden)= 0.33951E-01
  rms(prec ) = 0.38743E-01
  weight for this iteration     100.00

 eigenvalues of (default mixing * dielectric matrix)
  average eigenvalue GAMMA=   1.1617
  2.5413  1.6386  1.6386  0.7847  0.7847  0.3868  0.3569

 Free energy of the ion-electron system (eV)
  ---------------------------------------------------
  alpha Z        PSCENC =       236.96483628
  Ewald energy   TEWEN  =     63896.26167972
  -Hartree energ DENC   =    -75677.63859339
  -exchange      EXHF   =         0.00000000
  -V(xc)+E(xc)   XCENC  =     -2093.15578142
  PAW double counting   =      8174.40890637    -5528.52767488
  entropy T*S    EENTRO =        -0.00000000
  eigenvalues    EBANDS =     -1284.65072775
  atomic energy  EATOM  =     11953.08265402
  Solvation  Ediel_sol  =         0.00000000
  ---------------------------------------------------
  free energy    TOTEN  =      -323.25470104 eV

  energy without entropy =     -323.25470104  energy(sigma->0) =     -323.25470104


--------------------------------------------------------------------------------------------------------




--------------------------------------- Iteration      1(  13)  ---------------------------------------


    POTLOK:  cpu time    0.3095: real time    0.3097
    SETDIJ:  cpu time    0.0124: real time    0.0124
    EDDIAG:  cpu time    2.5901: real time    2.6052
  RMM-DIIS:  cpu time   49.5425: real time   49.7065
    ORTHCH:  cpu time    0.2200: real time    0.2202
       DOS:  cpu time    0.0004: real time    0.0004
    CHARGE:  cpu time    1.1890: real time    1.1903
    MIXING:  cpu time    0.0079: real time    0.0079
    --------------------------------------------
      LOOP:  cpu time   53.8718: real time   54.0526

 eigenvalue-minimisations  :  2417
 total energy-change (2. order) : 0.2868564E-02  (-0.2931784E-02)
 number of electron     323.9999997 magnetization 
 augmentation part      -21.2481882 magnetization 

 Broyden mixing:
  rms(total) = 0.89869E-02    rms(broyden)= 0.89868E-02
  rms(prec ) = 0.12282E-01
  weight for this iteration     100.00

 eigenvalues of (default mixing * dielectric matrix)
  average eigenvalue GAMMA=   1.1856
  2.4725  1.9022  1.9022  0.8749  0.7942  0.7942  0.3577  0.3870

 Free energy of the ion-electron system (eV)
  ---------------------------------------------------
  alpha Z        PSCENC =       236.96483628
  Ewald energy   TEWEN  =     63896.26167972
  -Hartree energ DENC   =    -75679.32102371
  -exchange      EXHF   =         0.00000000
  -V(xc)+E(xc)   XCENC  =     -2093.07279287
  PAW double counting   =      8170.45289328    -5524.57426482
  entropy T*S    EENTRO =        -0.00000000
  eigenvalues    EBANDS =     -1283.04581438
  atomic energy  EATOM  =     11953.08265402
  Solvation  Ediel_sol  =         0.00000000
  ---------------------------------------------------
  free energy    TOTEN  =      -323.25183248 eV

  energy without entropy =     -323.25183248  energy(sigma->0) =     -323.25183248


--------------------------------------------------------------------------------------------------------




--------------------------------------- Iteration      1(  14)  ---------------------------------------


    POTLOK:  cpu time    0.3173: real time    0.3217
    SETDIJ:  cpu time    0.0119: real time    0.0120
    EDDIAG:  cpu time    2.6063: real time    2.6173
  RMM-DIIS:  cpu time   56.4160: real time   56.6013
    ORTHCH:  cpu time    0.2233: real time    0.2235
       DOS:  cpu time    0.0005: real time    0.0004
    CHARGE:  cpu time    1.1888: real time    1.1899
    MIXING:  cpu time    0.0080: real time    0.0080
    --------------------------------------------
      LOOP:  cpu time   60.7721: real time   60.9741

 eigenvalue-minimisations  :  2712
 total energy-change (2. order) :-0.1078666E-02  (-0.1122330E-02)
 number of electron     323.9999997 magnetization 
 augmentation part      -21.2198137 magnetization 

 Broyden mixing:
  rms(total) = 0.99804E-02    rms(broyden)= 0.99804E-02
  rms(prec ) = 0.12522E-01
  weight for this iteration     100.00

 eigenvalues of (default mixing * dielectric matrix)
  average eigenvalue GAMMA=   1.2835
  3.1022  2.5940  1.4937  1.4937  0.7863  0.7863  0.5515  0.3873  0.3570

 Free energy of the ion-electron system (eV)
  ---------------------------------------------------
  alpha Z        PSCENC =       236.96483628
  Ewald energy   TEWEN  =     63896.26167972
  -Hartree energ DENC   =    -75684.93237661
  -exchange      EXHF   =         0.00000000
  -V(xc)+E(xc)   XCENC  =     -2093.03519412
  PAW double counting   =      8167.59253428    -5521.66299313
  entropy T*S    EENTRO =        -0.00000000
  eigenvalues    EBANDS =     -1277.52405159
  atomic energy  EATOM  =     11953.08265402
  Solvation  Ediel_sol  =         0.00000000
  ---------------------------------------------------
  free energy    TOTEN  =      -323.25291114 eV

  energy without entropy =     -323.25291114  energy(sigma->0) =     -323.25291114


--------------------------------------------------------------------------------------------------------




--------------------------------------- Iteration      1(  15)  ---------------------------------------


    POTLOK:  cpu time    0.3173: real time    0.3176
    SETDIJ:  cpu time    0.0149: real time    0.0149
    EDDIAG:  cpu time    2.5943: real time    2.6010
  RMM-DIIS:  cpu time   43.8496: real time   43.9462
    ORTHCH:  cpu time    0.2183: real time    0.2185
       DOS:  cpu time    0.0004: real time    0.0004
    CHARGE:  cpu time    1.1925: real time    1.1938
    MIXING:  cpu time    0.0081: real time    0.0081
    --------------------------------------------
      LOOP:  cpu time   48.1954: real time   48.3006

 eigenvalue-minimisations  :  2150
 total energy-change (2. order) :-0.1394947E-03  (-0.2281331E-03)
 number of electron     323.9999997 magnetization 
 augmentation part      -21.2439334 magnetization 

 Broyden mixing:
  rms(total) = 0.53670E-02    rms(broyden)= 0.53670E-02
  rms(prec ) = 0.67577E-02
  weight for this iteration     100.00

 eigenvalues of (default mixing * dielectric matrix)
  average eigenvalue GAMMA=   1.2588
  3.4784  2.5285  1.5705  1.5705  0.7800  0.7800  0.6776  0.3559  0.3847  0.4622

 Free energy of the ion-electron system (eV)
  ---------------------------------------------------
  alpha Z        PSCENC =       236.96483628
  Ewald energy   TEWEN  =     63896.26167972
  -Hartree energ DENC   =    -75692.33801358
  -exchange      EXHF   =         0.00000000
  -V(xc)+E(xc)   XCENC  =     -2093.00243775
  PAW double counting   =      8166.82051505    -5520.83033866
  entropy T*S    EENTRO =        -0.00000000
  eigenvalues    EBANDS =     -1270.21194572
  atomic energy  EATOM  =     11953.08265402
  Solvation  Ediel_sol  =         0.00000000
  ---------------------------------------------------
  free energy    TOTEN  =      -323.25305064 eV

  energy without entropy =     -323.25305064  energy(sigma->0) =     -323.25305064


--------------------------------------------------------------------------------------------------------




--------------------------------------- Iteration      1(  16)  ---------------------------------------


    POTLOK:  cpu time    0.3050: real time    0.3054
    SETDIJ:  cpu time    0.0124: real time    0.0124
    EDDIAG:  cpu time    2.6159: real time    2.6233
  RMM-DIIS:  cpu time   52.3638: real time   52.4955
    ORTHCH:  cpu time    0.2326: real time    0.2328
       DOS:  cpu time    0.0005: real time    0.0005
    CHARGE:  cpu time    1.1738: real time    1.1748
    MIXING:  cpu time    0.0084: real time    0.0084
    --------------------------------------------
      LOOP:  cpu time   56.7123: real time   56.8529

 eigenvalue-minimisations  :  2503
 total energy-change (2. order) :-0.6234359E-03  (-0.9963866E-04)
 number of electron     323.9999997 magnetization 
 augmentation part      -21.2511187 magnetization 

 Broyden mixing:
  rms(total) = 0.45055E-02    rms(broyden)= 0.45055E-02
  rms(prec ) = 0.55134E-02
  weight for this iteration     100.00

 eigenvalues of (default mixing * dielectric matrix)
  average eigenvalue GAMMA=   1.2730
  3.5545  2.4551  1.8721  1.8721  0.9931  0.7962  0.7962  0.5432  0.3561  0.3896
  0.3749

 Free energy of the ion-electron system (eV)
  ---------------------------------------------------
  alpha Z        PSCENC =       236.96483628
  Ewald energy   TEWEN  =     63896.26167972
  -Hartree energ DENC   =    -75694.13453935
  -exchange      EXHF   =         0.00000000
  -V(xc)+E(xc)   XCENC  =     -2092.99309136
  PAW double counting   =      8166.80244555    -5520.80970124
  entropy T*S    EENTRO =        -0.00000000
  eigenvalues    EBANDS =     -1268.42795770
  atomic energy  EATOM  =     11953.08265402
  Solvation  Ediel_sol  =         0.00000000
  ---------------------------------------------------
  free energy    TOTEN  =      -323.25367407 eV

  energy without entropy =     -323.25367407  energy(sigma->0) =     -323.25367407


--------------------------------------------------------------------------------------------------------




--------------------------------------- Iteration      1(  17)  ---------------------------------------


    POTLOK:  cpu time    0.3140: real time    0.3142
    SETDIJ:  cpu time    0.0119: real time    0.0119
    EDDIAG:  cpu time    2.5954: real time    2.5982
  RMM-DIIS:  cpu time   44.1113: real time   44.2449
    ORTHCH:  cpu time    0.2279: real time    0.2282
       DOS:  cpu time    0.0004: real time    0.0004
    CHARGE:  cpu time    1.1736: real time    1.1746
    MIXING:  cpu time    0.0084: real time    0.0084
    --------------------------------------------
      LOOP:  cpu time   48.4429: real time   48.5809

 eigenvalue-minimisations  :  2165
 total energy-change (2. order) :-0.1308200E-02  (-0.2775087E-04)
 number of electron     323.9999997 magnetization 
 augmentation part      -21.2477028 magnetization 

 Broyden mixing:
  rms(total) = 0.24236E-02    rms(broyden)= 0.24236E-02
  rms(prec ) = 0.33000E-02
  weight for this iteration     100.00

 eigenvalues of (default mixing * dielectric matrix)
  average eigenvalue GAMMA=   1.3423
  4.2653  2.5403  2.2476  1.4763  1.4302  0.9057  0.7957  0.7957  0.5375  0.3861
  0.3566  0.3707

 Free energy of the ion-electron system (eV)
  ---------------------------------------------------
  alpha Z        PSCENC =       236.96483628
  Ewald energy   TEWEN  =     63896.26167972
  -Hartree energ DENC   =    -75696.41671139
  -exchange      EXHF   =         0.00000000
  -V(xc)+E(xc)   XCENC  =     -2092.97864610
  PAW double counting   =      8166.30453641    -5520.32420381
  entropy T*S    EENTRO =        -0.00000000
  eigenvalues    EBANDS =     -1266.14912742
  atomic energy  EATOM  =     11953.08265402
  Solvation  Ediel_sol  =         0.00000000
  ---------------------------------------------------
  free energy    TOTEN  =      -323.25498227 eV

  energy without entropy =     -323.25498227  energy(sigma->0) =     -323.25498227


--------------------------------------------------------------------------------------------------------




--------------------------------------- Iteration      1(  18)  ---------------------------------------


    POTLOK:  cpu time    0.3140: real time    0.3143
    SETDIJ:  cpu time    0.0120: real time    0.0120
    EDDIAG:  cpu time    2.6100: real time    2.6127
  RMM-DIIS:  cpu time   43.1795: real time   43.2925
    ORTHCH:  cpu time    0.2154: real time    0.2156
       DOS:  cpu time    0.0004: real time    0.0004
    CHARGE:  cpu time    1.1815: real time    1.1825
    MIXING:  cpu time    0.0088: real time    0.0088
    --------------------------------------------
      LOOP:  cpu time   47.5215: real time   47.6389

 eigenvalue-minimisations  :  2099
 total energy-change (2. order) :-0.1412161E-02  (-0.4818247E-04)
 number of electron     323.9999997 magnetization 
 augmentation part      -21.2486279 magnetization 

 Broyden mixing:
  rms(total) = 0.21552E-02    rms(broyden)= 0.21552E-02
  rms(prec ) = 0.26147E-02
  weight for this iteration     100.00

 eigenvalues of (default mixing * dielectric matrix)
  average eigenvalue GAMMA=   1.3729
  5.0408  2.7477  2.3426  1.5584  1.5584  0.9497  0.8003  0.8003  0.5261  0.4187
  0.3858  0.3570  0.3624

 Free energy of the ion-electron system (eV)
  ---------------------------------------------------
  alpha Z        PSCENC =       236.96483628
  Ewald energy   TEWEN  =     63896.26167972
  -Hartree energ DENC   =    -75699.45172873
  -exchange      EXHF   =         0.00000000
  -V(xc)+E(xc)   XCENC  =     -2092.96560343
  PAW double counting   =      8165.40845742    -5519.43196761
  entropy T*S    EENTRO =        -0.00000000
  eigenvalues    EBANDS =     -1263.12472211
  atomic energy  EATOM  =     11953.08265402
  Solvation  Ediel_sol  =         0.00000000
  ---------------------------------------------------
  free energy    TOTEN  =      -323.25639443 eV

  energy without entropy =     -323.25639443  energy(sigma->0) =     -323.25639443


--------------------------------------------------------------------------------------------------------




--------------------------------------- Iteration      1(  19)  ---------------------------------------


    POTLOK:  cpu time    0.3166: real time    0.3180
    SETDIJ:  cpu time    0.0131: real time    0.0131
    EDDIAG:  cpu time    2.6126: real time    2.6153
  RMM-DIIS:  cpu time   43.9381: real time   44.0887
    ORTHCH:  cpu time    0.2120: real time    0.2122
       DOS:  cpu time    0.0004: real time    0.0004
    CHARGE:  cpu time    1.1704: real time    1.1797
    MIXING:  cpu time    0.0087: real time    0.0087
    --------------------------------------------
      LOOP:  cpu time   48.2721: real time   48.4363

 eigenvalue-minimisations  :  2144
 total energy-change (2. order) :-0.6127045E-03  (-0.1497147E-04)
 number of electron     323.9999997 magnetization 
 augmentation part      -21.2484023 magnetization 

 Broyden mixing:
  rms(total) = 0.14657E-02    rms(broyden)= 0.14657E-02
  rms(prec ) = 0.18287E-02
  weight for this iteration     100.00

 eigenvalues of (default mixing * dielectric matrix)
  average eigenvalue GAMMA=   1.4814
  6.0286  3.0234  2.3668  1.8671  1.8671  0.9815  0.9815  0.7914  0.7914  0.5497
  0.3903  0.3875  0.3570  0.3570

 Free energy of the ion-electron system (eV)
  ---------------------------------------------------
  alpha Z        PSCENC =       236.96483628
  Ewald energy   TEWEN  =     63896.26167972
  -Hartree energ DENC   =    -75700.58899579
  -exchange      EXHF   =         0.00000000
  -V(xc)+E(xc)   XCENC  =     -2092.96180925
  PAW double counting   =      8165.22236477    -5519.24568873
  entropy T*S    EENTRO =        -0.00000000
  eigenvalues    EBANDS =     -1261.99204817
  atomic energy  EATOM  =     11953.08265402
  Solvation  Ediel_sol  =         0.00000000
  ---------------------------------------------------
  free energy    TOTEN  =      -323.25700714 eV

  energy without entropy =     -323.25700714  energy(sigma->0) =     -323.25700714


--------------------------------------------------------------------------------------------------------




--------------------------------------- Iteration      1(  20)  ---------------------------------------


    POTLOK:  cpu time    0.3135: real time    0.3139
    SETDIJ:  cpu time    0.0118: real time    0.0118
    EDDIAG:  cpu time    2.6124: real time    2.6193
  RMM-DIIS:  cpu time   43.7482: real time   43.8729
    ORTHCH:  cpu time    0.2111: real time    0.2113
       DOS:  cpu time    0.0005: real time    0.0005
    CHARGE:  cpu time    1.1796: real time    1.1808
    MIXING:  cpu time    0.0104: real time    0.0104
    --------------------------------------------
      LOOP:  cpu time   48.0875: real time   48.2208

 eigenvalue-minimisations  :  2130
 total energy-change (2. order) :-0.7456017E-03  (-0.1438673E-04)
 number of electron     323.9999997 magnetization 
 augmentation part      -21.2434572 magnetization 

 Broyden mixing:
  rms(total) = 0.94353E-03    rms(broyden)= 0.94352E-03
  rms(prec ) = 0.10750E-02
  weight for this iteration     100.00

 eigenvalues of (default mixing * dielectric matrix)
  average eigenvalue GAMMA=   1.5423
  6.8190  3.2642  2.5183  1.7435  1.7435  1.2250  1.2250  0.9747  0.7884  0.7884
  0.5524  0.3925  0.3866  0.3573  0.3564

 Free energy of the ion-electron system (eV)
  ---------------------------------------------------
  alpha Z        PSCENC =       236.96483628
  Ewald energy   TEWEN  =     63896.26167972
  -Hartree energ DENC   =    -75701.21190291
  -exchange      EXHF   =         0.00000000
  -V(xc)+E(xc)   XCENC  =     -2092.96235662
  PAW double counting   =      8165.82714829    -5519.84827100
  entropy T*S    EENTRO =        -0.00000000
  eigenvalues    EBANDS =     -1261.37154053
  atomic energy  EATOM  =     11953.08265402
  Solvation  Ediel_sol  =         0.00000000
  ---------------------------------------------------
  free energy    TOTEN  =      -323.25775274 eV

  energy without entropy =     -323.25775274  energy(sigma->0) =     -323.25775274


--------------------------------------------------------------------------------------------------------




--------------------------------------- Iteration      1(  21)  ---------------------------------------


    POTLOK:  cpu time    0.3193: real time    0.3196
    SETDIJ:  cpu time    0.0124: real time    0.0124
    EDDIAG:  cpu time    2.6151: real time    2.6179
  RMM-DIIS:  cpu time   43.9487: real time   44.0722
    ORTHCH:  cpu time    0.2271: real time    0.2273
       DOS:  cpu time    0.0004: real time    0.0004
    CHARGE:  cpu time    1.2004: real time    1.2056
    MIXING:  cpu time    0.0134: real time    0.0134
    --------------------------------------------
      LOOP:  cpu time   48.3368: real time   48.4689

 eigenvalue-minimisations  :  2137
 total energy-change (2. order) :-0.2370353E-03  (-0.3441955E-05)
 number of electron     323.9999997 magnetization 
 augmentation part      -21.2460221 magnetization 

 Broyden mixing:
  rms(total) = 0.41942E-03    rms(broyden)= 0.41942E-03
  rms(prec ) = 0.50046E-03
  weight for this iteration     100.00

 eigenvalues of (default mixing * dielectric matrix)
  average eigenvalue GAMMA=   1.5266
  7.1562  3.3650  2.5378  1.7365  1.7365  1.7612  1.0132  1.0132  0.7887  0.7887
  0.5513  0.4838  0.3954  0.3853  0.3565  0.3570

 Free energy of the ion-electron system (eV)
  ---------------------------------------------------
  alpha Z        PSCENC =       236.96483628
  Ewald energy   TEWEN  =     63896.26167972
  -Hartree energ DENC   =    -75701.50061564
  -exchange      EXHF   =         0.00000000
  -V(xc)+E(xc)   XCENC  =     -2092.96421023
  PAW double counting   =      8166.10354345    -5520.12608624
  entropy T*S    EENTRO =        -0.00000000
  eigenvalues    EBANDS =     -1261.07979115
  atomic energy  EATOM  =     11953.08265402
  Solvation  Ediel_sol  =         0.00000000
  ---------------------------------------------------
  free energy    TOTEN  =      -323.25798978 eV

  energy without entropy =     -323.25798978  energy(sigma->0) =     -323.25798978


--------------------------------------------------------------------------------------------------------




--------------------------------------- Iteration      1(  22)  ---------------------------------------


    POTLOK:  cpu time    0.3188: real time    0.3191
    SETDIJ:  cpu time    0.0120: real time    0.0120
    EDDIAG:  cpu time    2.6070: real time    2.6098
  RMM-DIIS:  cpu time   46.5960: real time   46.7299
    ORTHCH:  cpu time    0.2363: real time    0.2367
       DOS:  cpu time    0.0045: real time    0.0045
    CHARGE:  cpu time    1.1966: real time    1.2017
    MIXING:  cpu time    0.0092: real time    0.0092
    --------------------------------------------
      LOOP:  cpu time   50.9804: real time   51.1229

 eigenvalue-minimisations  :  2148
 total energy-change (2. order) :-0.8455753E-04  (-0.1619600E-05)
 number of electron     323.9999997 magnetization 
 augmentation part      -21.2471208 magnetization 

 Broyden mixing:
  rms(total) = 0.39632E-03    rms(broyden)= 0.39632E-03
  rms(prec ) = 0.45253E-03
  weight for this iteration     100.00

 eigenvalues of (default mixing * dielectric matrix)
  average eigenvalue GAMMA=   1.5807
  7.6330  3.5247  2.5131  2.5131  1.8021  1.8021  1.0353  1.0353  1.0196  0.7874
  0.7874  0.5527  0.3932  0.3859  0.3560  0.3577  0.3730

 Free energy of the ion-electron system (eV)
  ---------------------------------------------------
  alpha Z        PSCENC =       236.96483628
  Ewald energy   TEWEN  =     63896.26167972
  -Hartree energ DENC   =    -75701.57880124
  -exchange      EXHF   =         0.00000000
  -V(xc)+E(xc)   XCENC  =     -2092.96489734
[...]
 -0.000  -0.000   0.001  -0.000   0.000   0.011   0.000  -0.000
  0.000  -0.000  -0.000   0.001   0.000   0.000   0.011  -0.000
  0.000   0.000   0.000   0.000   0.000  -0.000  -0.000   0.011
 -0.000  -0.000  -0.001  -0.000  -0.000   0.000   0.000  -0.000
  0.000   0.000   0.012   0.001  -0.000   0.000  -0.000   0.000
 -0.009  -0.000  -0.000   0.017   0.000  -0.000   0.000  -0.000
  0.000  -0.000  -0.000  -0.001   0.013   0.000   0.000   0.000
 -0.000   0.000  -0.001   0.000  -0.001  -0.000  -0.000   0.000
 total augmentation occupancy for first ion, spin component:           1
  1.939   0.169   0.003  -0.200  -0.002  -0.000  -0.029   0.005   0.000   0.001   0.006  -0.001   0.002
  0.169   1.259  -0.003   0.899  -0.007  -0.011  -0.344   0.008  -0.003  -0.002  -0.022  -0.001  -0.002
  0.003  -0.003   1.321   0.006  -0.002  -0.442   0.000   0.003  -0.001   0.108   0.001  -0.002   0.042
 -0.200   0.899   0.006   1.480  -0.009  -0.001  -0.517   0.006  -0.002   0.002   0.037  -0.003   0.004
 -0.002  -0.007  -0.002  -0.009   1.334   0.003   0.006  -0.457   0.040  -0.002  -0.001   0.113  -0.001
 -0.000  -0.011  -0.442  -0.001   0.003   0.274  -0.001  -0.003   0.001  -0.033   0.001  -0.000  -0.005
 -0.029  -0.344   0.000  -0.517   0.006  -0.001   0.261  -0.002   0.000  -0.001  -0.040   0.002  -0.000
  0.005   0.008   0.003   0.006  -0.457  -0.003  -0.002   0.273  -0.009  -0.000  -0.001  -0.035   0.001
  0.000  -0.003  -0.001  -0.002   0.040   0.001   0.000  -0.009   0.018  -0.000   0.001  -0.000   0.000
  0.001  -0.002   0.108   0.002  -0.002  -0.033  -0.001  -0.000  -0.000   0.016   0.000  -0.000  -0.000
  0.006  -0.022   0.001   0.037  -0.001   0.001  -0.040  -0.001   0.001   0.000   0.017  -0.000  -0.000
 -0.001  -0.001  -0.002  -0.003   0.113  -0.000   0.002  -0.035  -0.000  -0.000  -0.000   0.016  -0.000
  0.002  -0.002   0.042   0.004  -0.001  -0.005  -0.000   0.001   0.000  -0.000  -0.000  -0.000   0.018


------------------------ aborting loop because EDIFF is reached ----------------------------------------


    CHARGE:  cpu time    1.1786: real time    1.1839
    FORLOC:  cpu time    0.0868: real time    0.0869
    FORNL :  cpu time   14.1132: real time   14.1506
    STRESS:  cpu time   74.8897: real time   75.0681
    FORCOR:  cpu time    0.3581: real time    0.3584
    FORHAR:  cpu time    0.1552: real time    0.1553
    MIXING:  cpu time    0.0121: real time    0.0121
    OFIELD:  cpu time    0.0000: real time    0.0000

  Number of pair interactions contributing to vdW energy:  261885
  Edisp (eV):  -19.04096
    FORVDW:  cpu time    0.0290: real time    0.0290

  FORCE on cell =-STRESS in cart. coord.  units (eV):
  Direction    XX          YY          ZZ          XY          YZ          ZX
  --------------------------------------------------------------------------------------
  Alpha Z   236.96484   236.96484   236.96484
  Ewald   73181.76555 73273.02085-82285.06994    -4.96360    45.34036     1.99373
  Hartree 75572.03494 75597.01592-75199.84355    -0.72449     3.07078     0.42179
  E(xc)   -1345.56117 -1346.74121 -1363.83951     0.24118    -2.23305    -0.03360
  Local  ************************152444.58822     5.60368   -48.97532    -2.38816
  n-local  3529.65194  3529.89043  3706.40014     0.26940    15.98143     0.22557
  augment  -761.51570  -760.01437  -799.55162    -0.27088    -2.80290    -0.01817
  Kinetic  3266.50587  3281.45765  3225.59581    -2.80845     7.34955     0.30297
  Fock        0.00000     0.00000     0.00000     0.00000     0.00000     0.00000
  vdW       -11.97236   -11.71451    -9.63105     0.09850    -1.30303     0.01714
  -------------------------------------------------------------------------------------
  Total     -32.61664   -13.00540   -44.38667    -2.55466    16.42783     0.52128
  in kB     -17.25485    -6.88011   -23.48143    -1.35147     8.69065     0.27577
  external pressure =      -15.87 kB  Pullay stress =        0.00 kB

  kinetic pressure (ideal gas correction) =      0.27 kB
  total pressure  =    -15.61 kB
  Total+kin.   -17.131      -6.662     -23.022      -1.367       8.644       0.285

 VOLUME and BASIS-vectors are now :
 -----------------------------------------------------------------------------
  energy-cutoff  :      550.00
  volume of cell :     3028.58
      direct lattice vectors                 reciprocal lattice vectors
    10.751606322  0.000000000  0.000000000     0.093009358  0.054126038  0.001563812
    -5.308722779  9.122428200  0.000000000     0.000000000  0.109619937  0.003132058
    -0.005751335 -0.882256882 30.878398457     0.000000000  0.000000000  0.032385099

  length of vectors
    10.751606322 10.554678290 30.891000333     0.107623483  0.109664672  0.032385099


 FORCES acting on ions
    electron-ion (+dipol)            ewald-force                    non-local-force                 convergence-correction
 -----------------------------------------------------------------------------------------------
   -.554E+00 0.188E+01 0.830E+03   0.498E+00 -.191E+01 -.835E+03   0.261E+00 -.251E+00 0.590E+01   -.991E-04 -.104E-03 0.253E-03
   0.887E+00 0.124E+01 0.830E+03   -.902E+00 -.118E+01 -.836E+03   -.114E+00 -.312E+00 0.593E+01   0.567E-04 0.198E-04 0.308E-03
   0.885E+00 -.106E+01 0.831E+03   -.948E+00 0.113E+01 -.836E+03   0.766E-01 -.185E+00 0.582E+01   0.376E-04 0.733E-04 0.390E-03
   -.395E+00 -.157E-01 0.831E+03   0.404E+00 0.671E-01 -.836E+03   0.421E-01 -.180E+00 0.574E+01   0.519E-04 -.159E-03 0.259E-03
   0.819E+00 -.123E+01 0.831E+03   -.817E+00 0.121E+01 -.836E+03   -.204E-01 0.453E-01 0.598E+01   -.503E-04 0.118E-03 0.305E-03
   -.115E+01 -.991E+00 0.830E+03   0.114E+01 0.102E+01 -.835E+03   0.629E-01 -.136E+00 0.560E+01   -.589E-04 -.236E-04 0.413E-03
   -.688E+00 -.525E+00 0.830E+03   0.662E+00 0.579E+00 -.835E+03   0.425E-01 -.226E+00 0.601E+01   0.501E-04 -.253E-04 0.266E-03
   -.199E+01 0.156E+01 0.831E+03   0.198E+01 -.154E+01 -.836E+03   0.114E+00 -.365E+00 0.578E+01   0.106E-04 0.120E-04 0.232E-03
   -.172E+01 -.298E+01 0.829E+03   0.170E+01 0.305E+01 -.834E+03   0.240E+00 -.455E-01 0.579E+01   0.257E-04 0.292E-04 0.357E-03
   0.192E+01 0.320E+01 -.110E+03   -.195E+01 -.314E+01 0.105E+03   -.141E-01 -.519E+00 0.579E+01   0.219E-03 0.544E-04 0.301E-03
   -.151E+01 0.243E+01 -.108E+03   0.157E+01 -.240E+01 0.103E+03   0.782E-02 -.540E+00 0.576E+01   -.207E-03 0.554E-04 0.280E-03
   -.268E+00 -.182E+01 -.109E+03   0.249E+00 0.196E+01 0.104E+03   0.871E-01 -.339E+00 0.567E+01   -.488E-04 -.126E-03 0.313E-03
   -.112E+01 -.306E+00 -.112E+03   0.113E+01 0.349E+00 0.107E+03   -.358E-01 -.851E-01 0.582E+01   -.738E-04 0.227E-03 0.487E-03
   0.791E+00 -.525E+00 -.108E+03   -.767E+00 0.511E+00 0.103E+03   -.226E+00 -.222E+00 0.581E+01   0.743E-04 -.288E-03 0.371E-03
   -.723E-01 -.228E+00 -.110E+03   0.844E-01 0.258E+00 0.105E+03   -.193E+00 -.297E+00 0.575E+01   0.334E-03 0.254E-03 0.328E-03
   -.167E+01 0.176E+01 -.111E+03   0.168E+01 -.170E+01 0.105E+03   0.678E-01 -.349E+00 0.577E+01   -.159E-03 -.294E-03 0.464E-03
   0.108E+01 0.184E+01 -.111E+03   -.112E+01 -.190E+01 0.106E+03   -.130E+00 -.393E+00 0.556E+01   0.146E-03 -.109E-03 0.531E-03
   0.801E-01 -.380E+01 -.112E+03   -.523E-01 0.391E+01 0.107E+03   -.683E-01 -.140E+00 0.580E+01   -.282E-03 0.211E-03 0.401E-03
   0.669E+00 -.234E+01 0.113E+03   -.722E+00 0.222E+01 -.108E+03   0.901E-01 0.677E+00 -.566E+01   -.614E-04 -.959E-04 -.243E-03
   -.121E+01 -.393E+01 0.113E+03   0.118E+01 0.385E+01 -.108E+03   0.862E-01 0.743E+00 -.567E+01   0.154E-03 0.101E-03 -.338E-03
   -.219E+01 -.825E+00 0.110E+03   0.219E+01 0.720E+00 -.105E+03   0.196E+00 0.349E+00 -.596E+01   0.635E-04 0.990E-04 -.329E-03
   -.804E-01 0.519E+00 0.109E+03   0.533E-01 -.634E+00 -.104E+03   0.449E-01 0.434E+00 -.591E+01   0.176E-04 -.186E-03 -.217E-03
   0.152E+01 -.506E+01 0.110E+03   -.153E+01 0.496E+01 -.105E+03   -.280E-01 0.761E+00 -.586E+01   -.111E-03 0.212E-03 -.263E-03
   -.142E+01 -.293E+01 0.108E+03   0.139E+01 0.280E+01 -.103E+03   0.127E+00 0.643E+00 -.586E+01   -.148E-04 -.863E-04 -.355E-03
   -.170E+01 0.153E+01 0.110E+03   0.170E+01 -.165E+01 -.105E+03   0.106E+00 0.257E+00 -.609E+01   0.450E-04 -.126E-03 -.254E-03
   -.126E+01 -.354E+01 0.111E+03   0.121E+01 0.350E+01 -.106E+03   0.135E+00 0.497E+00 -.567E+01   -.434E-04 0.802E-04 -.244E-03
   0.153E+01 -.317E+01 0.112E+03   -.163E+01 0.309E+01 -.106E+03   0.102E+00 0.501E+00 -.583E+01   -.547E-04 0.379E-04 -.291E-03
   0.873E+00 -.267E+00 -.831E+03   -.836E+00 0.173E+00 0.836E+03   -.122E+00 0.455E+00 -.567E+01   0.204E-03 0.180E-04 -.173E-03
   0.265E+01 -.293E+01 -.833E+03   -.268E+01 0.284E+01 0.838E+03   -.195E+00 0.472E+00 -.565E+01   -.309E-03 0.184E-03 -.338E-04
   -.142E+01 0.956E+00 -.833E+03   0.142E+01 -.110E+01 0.838E+03   0.165E+00 0.224E+00 -.588E+01   -.526E-04 -.282E-03 -.918E-04
   0.137E+00 -.173E+01 -.829E+03   -.137E+00 0.160E+01 0.835E+03   -.187E+00 0.663E+00 -.581E+01   -.157E-05 0.201E-03 -.328E-03
   -.987E+00 -.191E+01 -.833E+03   0.103E+01 0.172E+01 0.838E+03   -.967E-01 0.463E+00 -.568E+01   0.123E-03 -.175E-03 -.230E-03
   -.304E+00 -.304E+01 -.830E+03   0.317E+00 0.295E+01 0.835E+03   -.121E+00 0.395E+00 -.609E+01   0.263E-03 0.217E-03 -.139E-03
   -.321E+00 0.999E+00 -.830E+03   0.356E+00 -.114E+01 0.835E+03   -.109E+00 0.356E+00 -.592E+01   -.183E-03 -.237E-03 -.307E-03
   -.194E+01 -.440E+01 -.833E+03   0.196E+01 0.423E+01 0.838E+03   0.824E-01 0.768E+00 -.563E+01   0.178E-03 0.191E-04 -.249E-03
   0.310E+00 -.362E+01 -.829E+03   -.341E+00 0.353E+01 0.834E+03   0.466E-01 0.472E+00 -.598E+01   -.207E-03 0.105E-03 -.162E-03
   0.189E+01 0.167E+01 0.473E+03   -.195E+01 -.178E+01 -.473E+03   -.194E+00 -.224E+00 -.114E+00   -.542E-04 -.201E-04 -.243E-03
   0.253E+01 0.344E+01 0.473E+03   -.262E+01 -.356E+01 -.473E+03   -.138E+00 -.933E-01 -.462E-01   0.410E-05 -.478E-04 -.260E-03
   -.541E+00 0.105E+01 0.471E+03   0.542E+00 -.107E+01 -.471E+03   -.221E-01 -.871E-01 0.533E-01   0.924E-04 0.119E-03 -.258E-03
   0.140E+01 0.204E+01 0.474E+03   -.143E+01 -.210E+01 -.473E+03   -.153E+00 -.123E+00 0.530E+00   0.658E-05 -.118E-03 -.170E-03
   0.235E+01 0.292E+01 0.471E+03   -.234E+01 -.303E+01 -.471E+03   -.255E+00 -.413E+00 -.111E-01   -.621E-04 -.616E-04 -.225E-03
   -.159E+01 0.354E+01 0.467E+03   0.162E+01 -.364E+01 -.467E+03   0.206E+00 -.506E+00 -.622E-02   0.182E-04 0.521E-04 -.136E-03
   0.199E+00 -.676E+00 0.470E+03   -.247E+00 0.693E+00 -.470E+03   -.161E+00 0.204E-01 0.349E+00   0.120E-04 -.575E-04 -.163E-03
   -.200E+01 0.358E+01 0.469E+03   0.198E+01 -.367E+01 -.469E+03   0.124E+00 -.603E-01 -.212E+00   0.150E-04 -.733E-04 -.355E-03
   0.321E+01 0.728E+00 0.471E+03   -.329E+01 -.845E+00 -.471E+03   -.271E+00 -.669E-01 0.129E+00   -.101E-03 0.141E-03 -.216E-03
   -.157E+01 0.320E+01 -.471E+03   0.162E+01 -.321E+01 0.471E+03   0.338E+00 -.289E+00 0.347E-01   0.245E-03 -.464E-04 0.359E-03
   -.925E+00 -.171E+01 -.472E+03   0.972E+00 0.167E+01 0.472E+03   0.307E+00 0.176E+00 -.133E+00   0.143E-03 0.924E-04 0.420E-03
   -.178E+01 0.314E+01 -.469E+03   0.179E+01 -.328E+01 0.470E+03   0.201E+00 -.283E+00 0.231E+00   0.143E-03 0.189E-03 0.505E-03
   0.422E+00 0.483E+01 -.472E+03   -.438E+00 -.494E+01 0.471E+03   0.747E-01 -.375E+00 -.948E-01   -.174E-04 -.735E-04 0.397E-03
   0.823E+00 -.360E+00 -.473E+03   -.849E+00 0.246E+00 0.473E+03   0.125E+00 0.143E+00 0.493E-01   0.599E-04 -.507E-04 0.490E-03
   -.758E+00 0.853E+00 -.463E+03   0.785E+00 -.818E+00 0.463E+03   0.151E+00 -.945E-01 0.657E+00   0.144E-04 0.115E-03 0.523E-03
   0.170E+01 0.377E+01 -.472E+03   -.170E+01 -.376E+01 0.472E+03   -.301E-01 -.731E-01 -.211E+00   -.161E-03 -.137E-03 0.345E-03
   -.104E+00 0.502E+00 -.473E+03   0.168E+00 -.460E+00 0.473E+03   -.790E-01 0.887E-01 0.390E+00   -.174E-03 -.948E-04 0.567E-03
   0.408E+01 0.357E+00 -.472E+03   -.411E+01 -.354E+00 0.472E+03   -.254E+00 0.380E-01 -.107E+00   -.117E-03 0.269E-04 0.402E-03
 -----------------------------------------------------------------------------------------------
   -.492E+00 -.237E+01 -.937E+00   0.266E-13 -.199E-13 -.352E-11   0.488E+00 0.237E+01 0.933E+00   0.104E-03 -.342E-04 0.400E-02
 
 
 POSITION                                       TOTAL-FORCE (eV/Angst)
 -----------------------------------------------------------------------------------
      0.00383      1.75808      9.91494         0.200764     -0.265485      0.671400
     -1.73336      4.79679      9.90905        -0.120815     -0.238754      0.738213
     -3.52648      7.81410      9.91252         0.014512     -0.109206      0.611728
      3.59900      1.74274      9.92217         0.049851     -0.116913      0.558477
      1.82926      4.76972      9.90292        -0.017430      0.028919      0.819185
      0.06173      7.81628      9.92758         0.058422     -0.099826      0.420670
      7.17651      1.73966      9.90432         0.014812     -0.160712      0.841235
      5.41467      4.78518      9.91984         0.103622     -0.332343      0.600561
      3.63138      7.79164      9.92618         0.213812      0.024923      0.555311
     -0.30354      0.03314     17.26016        -0.052006     -0.451600      0.452850
     -2.06822      3.07859     17.24387         0.063948     -0.505230      0.503803
      6.90608      6.08908     17.25258         0.067958     -0.208447      0.371832
      3.27958      0.00460     17.27020        -0.017108     -0.049856      0.411559
      1.52529      3.05136     17.24152        -0.194327     -0.242988      0.549293
     -0.25187      6.08321     17.24949        -0.178070     -0.278259      0.418073
      6.86031      0.03673     17.26030         0.069148     -0.285710      0.385205
      5.11957      3.07630     17.27579        -0.160442     -0.444290      0.226244
      3.34841      6.05419     17.26614        -0.031149     -0.046907      0.368861
      0.02006      1.63523     13.60864         0.037983      0.554634     -0.388951
     -1.76552      4.65422     13.61157         0.056087      0.663511     -0.390438
     -3.54168      7.73810     13.64252         0.192817      0.256586     -0.742938
      3.59268      1.63848     13.64356         0.016220      0.326307     -0.675976
      1.83625      4.66854     13.64293        -0.035642      0.662164     -0.641768
      0.04111      7.72195     13.65079         0.095146      0.527605     -0.702719
      7.17222      1.65702     13.65574         0.099597      0.153172     -0.847088
      5.40740      4.67763     13.61941         0.085290      0.466217     -0.384402
      3.64685      7.71583     13.61877         0.008172      0.415312     -0.535927
     -0.28553     -0.09615     20.94351        -0.076806      0.348960     -0.431623
     -2.04490      2.94647     20.95980        -0.214555      0.369091     -0.496611
      6.90184      6.00781     20.97026         0.162014      0.073904     -0.708761
      3.29920     -0.10262     20.94296        -0.179787      0.513497     -0.552604
      1.50919      2.95588     20.96136        -0.050610      0.264598     -0.511748
     -0.24290      6.00177     20.97015        -0.105461      0.302371     -0.926772
      6.87945     -0.08947     20.95232        -0.070634      0.207383     -0.704509
      5.09449      2.93355     20.95252         0.096367      0.581880     -0.426707
      3.31221      5.98054     20.95062         0.012182      0.374642     -0.746992
      0.01476     -0.32378     11.77435        -0.250497     -0.338233     -0.261457
     -1.76547      2.70765     11.76744        -0.223502     -0.209254     -0.136247
     -3.53944      5.74876     11.76791        -0.021195     -0.102634      0.055515
      3.58878     -0.32663     11.74178        -0.191018     -0.167732      0.573623
      1.83168      2.73441     11.77214        -0.262118     -0.534799     -0.078190
      0.03299      5.77963     11.77944         0.240507     -0.631603     -0.023244
      1.86340      8.78196     11.75832        -0.198028      0.044886      0.410296
      5.38826      2.70202     11.79206         0.119240     -0.157662     -0.323103
      3.64619      5.73814     11.76324        -0.350248     -0.161087      0.132472
      1.47120      0.99616     19.09915         0.390916     -0.334940      0.049152
     -0.28988      4.00027     19.11354         0.354316      0.164266     -0.140971
     -2.05933      7.06101     19.08850         0.212530     -0.408528      0.240632
      5.08155      0.99765     19.11136         0.054258     -0.516779     -0.181694
      3.29861      3.98624     19.10611         0.097293      0.063027      0.095559
      1.53024      7.05685     19.04970         0.177740     -0.067016      0.733259
      8.66792      0.97688     19.11695        -0.034854     -0.089447     -0.260119
      6.91004      4.01121     19.08643        -0.030048      0.124918      0.577097
      5.14669      7.03842     19.11275        -0.302560      0.043711     -0.150115
 -----------------------------------------------------------------------------------
    total drift:                               -0.003388      0.000245      0.000433


--------------------------------------------------------------------------------------------------------



  FREE ENERGIE OF THE ION-ELECTRON SYSTEM (eV)
  ---------------------------------------------------
  free  energy   TOTEN  =      -342.39653217 eV

  energy  without entropy=     -342.39653217  energy(sigma->0) =     -342.39653217
 
 d Force = 0.1643999E-01[ 0.137E-01, 0.191E-01]  d Energy = 0.1653042E-01-0.904E-04
 d Force =-0.4103174E+02[-0.410E+02,-0.410E+02]  d Ewald  =-0.4103175E+02 0.601E-05


--------------------------------------------------------------------------------------------------------


    POTLOK:  cpu time    0.3276: real time    0.3280


--------------------------------------------------------------------------------------------------------


           RANDOM_SEED =         236406231              324                0
   IONSTEP:  cpu time    0.0001: real time    0.0001

  ENERGY OF THE ELECTRON-ION-THERMOSTAT SYSTEM (eV)
  ---------------------------------------------------
% ion-electron   TOTEN  =      -342.396532  see above
  kinetic energy EKIN   =         0.760365
  kin. lattice  EKIN_LAT=         0.000000  (temperature  110.99 K)
  nose potential ES     =         0.023070
  nose kinetic   EPS    =         0.001896
  ---------------------------------------------------
  total energy   ETOTAL =      -341.611202 eV

  maximum distance moved by ions :      0.55E-03


 mean value of Nose-termostat <S>:     1.024 mean value of <T> :   110.989
 mean temperature <T/S>/<1/S>  :   110.989

    WAVPRE:  cpu time    0.1074: real time    0.1119
    FEWALD:  cpu time    0.0035: real time    0.0035
    ORTHCH:  cpu time    8.3454: real time    8.3716
    POTLOK:  cpu time    0.3309: real time    0.3353
    EDDIAG:  cpu time    2.6383: real time    2.6452
     LOOP+:  cpu time  560.0602: real time  561.6090
    4ORBIT:  cpu time    0.0000: real time    0.0000

 total amount of memory used by VASP MPI-rank0   381713. kBytes
=======================================================================

   base      :      30000. kBytes
   nonl-proj :     204595. kBytes
   fftplans  :      19943. kBytes
   grid      :      90496. kBytes
   one-center:        839. kBytes
   wavefun   :      35840. kBytes
 
  
  
 General timing and accounting informations for this job:
 ========================================================
  
                  Total CPU time used (sec):     6182.139
                            User time (sec):     6168.675
                          System time (sec):       13.464
                         Elapsed time (sec):     6199.817
  
                   Maximum memory used (kb):      848784.
                   Average memory used (kb):           0.
  
                          Minor page faults:       399469
                          Major page faults:            0
                 Voluntary context switches:          931
