 vasp.6.1.1 19Jun20 (build Dec 21 2021 08:45:49) complex                        
  
 executed on             LinuxIFC date 2023.10.05  07:36:23
 running on   40 total cores
 distrk:  each k-point on   40 cores,    1 groups
 distr:  one band on NCORE=   1 cores,   40 groups


--------------------------------------------------------------------------------------------------------


 INCAR:
 POTCAR:   PAW_PBE Te 08Apr2002                   
 POTCAR:   PAW_PBE Mo 08Apr2002                   
 -----------------------------------------------------------------------------
|                                                                             |
|           W    W    AA    RRRRR   N    N  II  N    N   GGGG   !!!           |
|           W    W   A  A   R    R  NN   N  II  NN   N  G    G  !!!           |
|           W    W  A    A  R    R  N N  N  II  N N  N  G       !!!           |
|           W WW W  AAAAAA  RRRRR   N  N N  II  N  N N  G  GGG   !            |
|           WW  WW  A    A  R   R   N   NN  II  N   NN  G    G                |
|           W    W  A    A  R    R  N    N  II  N    N   GGGG   !!!           |
|                                                                             |
|     For optimal performance we recommend to set                             |
|       NCORE = 4 - approx SQRT(number of cores).                             |
|     NCORE specifies how many cores store one orbital (NPAR=cpu/NCORE).      |
|     This setting can greatly improve the performance of VASP for DFT.       |
|     The default, NCORE=1 might be grossly inefficient on modern             |
|     multi-core architectures or massively parallel machines. Do your        |
|     own testing!!!!                                                         |
|     Unfortunately you need to use the default for GW and RPA                |
|     calculations (for HF NCORE is supported but not extensively tested      |
|     yet).                                                                   |
|                                                                             |
 -----------------------------------------------------------------------------

 POTCAR:   PAW_PBE Te 08Apr2002                   
   VRHFIN =Te: s2p4                                                                                 
   LEXCH  = PE                                                                                      
   EATOM  =   223.2721 eV,   16.4100 Ry                                                             
                                                                                                    
   TITEL  = PAW_PBE Te 08Apr2002                                                                    
   LULTRA =        F    use ultrasoft PP ?                                                          
   IUNSCR =        1    unscreen: 0-lin 1-nonlin 2-no                                               
   RPACOR =    2.200    partial core radius                                                         
   POMASS =  127.600; ZVAL   =    6.000    mass and valenz                                          
   RCORE  =    2.300    outmost cutoff radius                                                       
   RWIGS  =    2.900; RWIGS  =    1.535    wigner-seitz radius (au A)                               
   ENMAX  =  174.982; ENMIN  =  131.236 eV                                                          
   ICORE  =        3    local potential                                                             
   LCOR   =        T    correct aug charges                                                         
   LPAW   =        T    paw PP                                                                      
   EAUG   =  368.792                                                                                
   DEXC   =    -.169                                                                                
   RMAX   =    3.486    core radius for proj-oper                                                   
   RAUG   =    1.300    factor for augmentation sphere                                              
   RDEP   =    2.397    radius for radial grids                                                     
   QCUT   =   -3.586; QGAM   =    7.172    optimization parameters                                  
                                                                                                    
   Description                                                                                      
     l     E      TYP  RCUT    TYP  RCUT                                                            
     0   .000     23  2.300                                                                         
     0   .000     23  2.300                                                                         
     1   .000     23  2.300                                                                         
     1   .000     23  2.300                                                                         
     2   .000     23  2.300                                                                         
     3  -.100     23  2.300                                                                         
  local pseudopotential read in
  partial core-charges read in
  atomic valenz-charges read in
  non local Contribution for L=           0  read in
    real space projection operators read in
  non local Contribution for L=           0  read in
    real space projection operators read in
  non local Contribution for L=           1  read in
    real space projection operators read in
  non local Contribution for L=           1  read in
    real space projection operators read in
  non local Contribution for L=           2  read in
    real space projection operators read in
    PAW grid and wavefunctions read in
 
   number of l-projection  operators is LMAX  =           5
   number of lm-projection operators is LMMAX =          13
 
 POTCAR:   PAW_PBE Mo 08Apr2002                   
   VRHFIN =Mo: 4p5s4d                                                                               
   LEXCH  = PE                                                                                      
   EATOM  =   217.5180 eV,   15.9871 Ry                                                             
                                                                                                    
   TITEL  = PAW_PBE Mo 08Apr2002                                                                    
   LULTRA =        F    use ultrasoft PP ?                                                          
   IUNSCR =        1    unscreen: 0-lin 1-nonlin 2-no                                               
   RPACOR =    2.200    partial core radius                                                         
   POMASS =   95.940; ZVAL   =    6.000    mass and valenz                                          
   RCORE  =    2.750    outmost cutoff radius                                                       
   RWIGS  =    2.750; RWIGS  =    1.455    wigner-seitz radius (au A)                               
   ENMAX  =  224.584; ENMIN  =  168.438 eV                                                          
   RCLOC  =    2.111    cutoff for local pot                                                        
   LCOR   =        T    correct aug charges                                                         
   LPAW   =        T    paw PP                                                                      
   EAUG   =  345.278                                                                                
   DEXC   =    -.088                                                                                
   RMAX   =    3.077    core radius for proj-oper                                                   
   RAUG   =    1.300    factor for augmentation sphere                                              
   RDEP   =    2.815    radius for radial grids                                                     
   QCUT   =   -4.063; QGAM   =    8.126    optimization parameters                                  
                                                                                                    
   Description                                                                                      
     l     E      TYP  RCUT    TYP  RCUT                                                            
     2   .000     23  2.500                                                                         
     2   .000     23  2.500                                                                         
     0   .000     23  2.600                                                                         
     0  1.000     23  2.600                                                                         
     1   .400     23  2.750                                                                         
     1  2.000     23  2.750                                                                         
     3   .000      7   .000                                                                         
  local pseudopotential read in
  partial core-charges read in
  atomic valenz-charges read in
  non local Contribution for L=           2  read in
    real space projection operators read in
  non local Contribution for L=           2  read in
    real space projection operators read in
  non local Contribution for L=           0  read in
    real space projection operators read in
  non local Contribution for L=           0  read in
    real space projection operators read in
  non local Contribution for L=           1  read in
    real space projection operators read in
  non local Contribution for L=           1  read in
    real space projection operators read in
    PAW grid and wavefunctions read in
 
   number of l-projection  operators is LMAX  =           6
   number of lm-projection operators is LMMAX =          18
 
 -----------------------------------------------------------------------------
|                                                                             |
|               ----> ADVICE to this user running VASP <----                  |
|                                                                             |
|     You have a (more or less) 'large supercell' and for larger cells it     |
|     might be more efficient to use real-space projection operators.         |
|     Therefore, try LREAL= Auto in the INCAR file.                           |
|     Mind: If you want to do very accurate calculations, keep the            |
|     reciprocal projection scheme (i.e. LREAL=.FALSE.).                      |
|                                                                             |
 -----------------------------------------------------------------------------

 PAW_PBE Te 08Apr2002                   :
 energy of atom  1       EATOM= -223.2721
 kinetic energy error for atom=    0.0006 (will be added to EATOM!!)
 PAW_PBE Mo 08Apr2002                   :
 energy of atom  2       EATOM= -217.5180
 kinetic energy error for atom=    0.0009 (will be added to EATOM!!)
 
 
 POSCAR: Te Mo
  positions in cartesian coordinates
  No initial velocities read in
 exchange correlation table for  LEXCH =        8
   RHO(1)=    0.500       N(1)  =     2000
   RHO(2)=  100.500       N(2)  =     4000
 


--------------------------------------------------------------------------------------------------------


 ion  position               nearest neighbor table
   1  0.223  0.112  0.683-  37 2.74  41 2.76  40 2.78   5 3.46   9 3.47   4 3.55   7 3.57   2 3.57
                             3 3.58
   2  0.222  0.444  0.683-  38 2.74  42 2.76  41 2.77   7 3.46   6 3.47   8 3.55   5 3.56   3 3.57
                             1 3.57
   3  0.223  0.778  0.683-  39 2.74  40 2.75  42 2.77   4 3.46   8 3.46   6 3.55   9 3.57   2 3.57
                             1 3.58
   4  0.555  0.111  0.683-  40 2.73  44 2.76  43 2.78   3 3.46   8 3.47   1 3.55   7 3.55   6 3.57
                             5 3.58
   5  0.555  0.445  0.683-  41 2.73  45 2.75  44 2.77   1 3.46   9 3.46   2 3.56   8 3.56   6 3.57
                             4 3.58
   6  0.556  0.778  0.683-  42 2.73  43 2.75  45 2.78   7 3.46   2 3.47   3 3.55   9 3.56   4 3.57
                             5 3.57
   7  0.888  0.111  0.683-  43 2.72  38 2.76  37 2.78   6 3.46   2 3.46   4 3.55   1 3.57   9 3.57
                             8 3.58
   8  0.889  0.445  0.683-  44 2.74  39 2.76  38 2.77   3 3.46   4 3.47   2 3.55   5 3.56   9 3.57
                             7 3.58
   9  0.889  0.778  0.683-  45 2.73  37 2.76  39 2.78   5 3.46   1 3.47   6 3.56   3 3.57   7 3.57
                             8 3.57
  10  0.000  0.223  0.438-  52 2.74  47 2.76  46 2.79  14 3.46  18 3.47  13 3.55  16 3.56  11 3.57
                            12 3.57
  11  0.999  0.555  0.438-  53 2.74  48 2.77  47 2.78  16 3.46  15 3.47  17 3.56  14 3.56  10 3.57
                            12 3.58
  12  0.999  0.889  0.438-  54 2.73  46 2.76  48 2.78  13 3.46  17 3.47  18 3.55  15 3.56  10 3.57
                            11 3.58
  13  0.333  0.222  0.438-  46 2.73  50 2.75  49 2.77  12 3.46  17 3.47  10 3.55  16 3.56  15 3.57
                            14 3.57
  14  0.333  0.555  0.438-  47 2.73  51 2.76  50 2.78  10 3.46  18 3.46  17 3.55  11 3.56  13 3.57
                            15 3.58
  15  0.333  0.889  0.438-  48 2.73  49 2.75  51 2.78  11 3.47  16 3.47  12 3.56  18 3.56  13 3.57
                            14 3.58
  16  0.667  0.222  0.438-  49 2.73  53 2.76  52 2.78  11 3.46  15 3.47  10 3.56  13 3.56  17 3.57
                            18 3.57
  17  0.666  0.555  0.438-  50 2.73  54 2.76  53 2.77  12 3.47  13 3.47  14 3.55  11 3.56  16 3.57
                            18 3.58
  18  0.667  0.889  0.438-  51 2.73  52 2.76  54 2.78  14 3.46  10 3.47  12 3.55  15 3.56  16 3.57
                            17 3.58
  19  0.222  0.111  0.562-  41 2.73  37 2.74  40 2.79  27 3.46  23 3.47  25 3.56  22 3.56  21 3.57
                            20 3.58
  20  0.222  0.445  0.562-  42 2.74  38 2.74  41 2.80  25 3.47  24 3.47  26 3.55  23 3.56  21 3.57
                            19 3.58
  21  0.222  0.778  0.562-  40 2.73  39 2.74  42 2.80  26 3.46  22 3.47  27 3.56  24 3.56  20 3.57
                            19 3.57
  22  0.556  0.111  0.562-  44 2.73  40 2.74  43 2.79  26 3.46  21 3.47  25 3.55  19 3.56  24 3.57
                            23 3.58
  23  0.556  0.445  0.562-  45 2.73  41 2.75  44 2.79  27 3.46  19 3.47  26 3.56  20 3.56  24 3.57
                            22 3.58
  24  0.556  0.778  0.562-  43 2.74  42 2.74  45 2.79  25 3.46  20 3.47  21 3.56  27 3.56  23 3.57
                            22 3.57
  25  0.889  0.111  0.562-  38 2.73  43 2.74  37 2.79  24 3.46  20 3.47  22 3.55  19 3.56  27 3.57
                            26 3.58
  26  0.889  0.444  0.562-  39 2.74  44 2.74  38 2.78  22 3.46  21 3.46  20 3.55  23 3.56  27 3.57
                            25 3.58
  27  0.889  0.778  0.562-  37 2.73  45 2.74  39 2.79  19 3.46  23 3.46  21 3.56  24 3.56  25 3.57
                            26 3.57
  28  0.000  0.222  0.317-  47 2.73  52 2.74  46 2.78  32 3.46  36 3.47  31 3.55  34 3.56  30 3.57
                            29 3.58
  29  1.000  0.556  0.317-  48 2.73  53 2.74  47 2.79  33 3.46  34 3.46  35 3.55  32 3.56  30 3.57
                            28 3.58
  30  1.000  0.889  0.317-  46 2.72  54 2.74  48 2.79  35 3.46  31 3.47  36 3.56  33 3.56  28 3.57
                            29 3.57
  31  0.333  0.222  0.317-  50 2.73  46 2.74  49 2.79  30 3.47  35 3.47  28 3.55  34 3.56  32 3.57
                            33 3.58
  32  0.333  0.555  0.317-  47 2.74  51 2.74  50 2.80  28 3.46  36 3.47  29 3.56  35 3.56  33 3.57
                            31 3.57
  33  0.333  0.888  0.317-  48 2.74  49 2.75  51 2.80  29 3.46  34 3.47  36 3.55  30 3.56  32 3.57
                            31 3.58
  34  0.667  0.222  0.317-  53 2.73  49 2.75  52 2.79  29 3.46  33 3.47  31 3.56  28 3.56  35 3.57
                            36 3.57
  35  0.667  0.556  0.317-  54 2.73  50 2.75  53 2.78  30 3.46  31 3.47  29 3.55  32 3.56  34 3.57
                            36 3.57
  36  0.667  0.889  0.317-  52 2.73  51 2.74  54 2.79  28 3.47  32 3.47  33 3.55  30 3.56  34 3.57
                            35 3.57
  37  0.000  1.000  0.622-  27 2.73  19 2.74   1 2.74   9 2.76   7 2.78  25 2.79  45 3.46  41 3.46

  38  0.999  0.334  0.622-  25 2.73   2 2.74  20 2.74   7 2.76   8 2.77  26 2.78  43 3.45  42 3.47

  39  0.000  0.667  0.622-  26 2.74   3 2.74  21 2.74   8 2.76   9 2.78  27 2.79  40 3.46  44 3.47

  40  0.333  0.999  0.622-  21 2.73   4 2.73  22 2.74   3 2.75   1 2.78  19 2.79  39 3.46  44 3.47

  41  0.333  0.333  0.622-   5 2.73  19 2.73  23 2.75   1 2.76   2 2.77  20 2.80  37 3.46  45 3.48

  42  0.334  0.667  0.622-   6 2.73  20 2.74  24 2.74   2 2.76   3 2.77  21 2.80  43 3.47  38 3.47

  43  0.668  0.000  0.622-   7 2.72  24 2.74  25 2.74   6 2.75   4 2.78  22 2.79  38 3.45  42 3.47

  44  0.666  0.333  0.622-  22 2.73   8 2.74  26 2.74   4 2.76   5 2.77  23 2.79  40 3.47  39 3.47

  45  0.667  0.667  0.622-   9 2.73  23 2.73  27 2.74   5 2.75   6 2.78  24 2.79  37 3.46  41 3.48

  46  0.111  0.111  0.377-  30 2.72  13 2.73  31 2.74  12 2.76  28 2.78  10 2.79  50 3.46  54 3.46

  47  0.111  0.445  0.378-  28 2.73  14 2.73  32 2.74  10 2.76  11 2.78  29 2.79  51 3.46  52 3.47

  48  0.111  0.778  0.378-  29 2.73  15 2.73  33 2.74  11 2.77  12 2.78  30 2.79  49 3.46  53 3.47

  49  0.444  0.111  0.378-  16 2.73  33 2.75  34 2.75  15 2.75  13 2.77  31 2.79  48 3.46  53 3.47

  50  0.444  0.444  0.378-  31 2.73  17 2.73  35 2.75  13 2.75  14 2.78  32 2.80  46 3.46  54 3.47

  51  0.445  0.778  0.378-  18 2.73  36 2.74  32 2.74  14 2.76  15 2.78  33 2.80  52 3.46  47 3.46

  52  0.778  0.111  0.378-  36 2.73  28 2.74  10 2.74  18 2.76  16 2.78  34 2.79  51 3.46  47 3.47

  53  0.777  0.445  0.378-  34 2.73  11 2.74  29 2.74  16 2.76  17 2.77  35 2.78  48 3.47  49 3.47

  54  0.778  0.778  0.378-  12 2.73  35 2.73  30 2.74  17 2.76  18 2.78  36 2.79  46 3.46  50 3.47

 

IMPORTANT INFORMATION: All symmetrisations will be switched off!
NOSYMM: (Re-)initialisation of all symmetry stuff for point group C_1.


----------------------------------------------------------------------------------------

                                     Primitive cell                                     

  volume of cell :    2979.6904

  direct lattice vectors                    reciprocal lattice vectors
    10.672732200  0.000000000  0.000000000     0.093696720  0.058258038  0.000374376
    -5.660831746  9.104346511  0.000000000     0.000000000  0.109837647  0.000975085
     0.046739138 -0.272231194 30.665267403     0.000000000  0.000000000  0.032610184

  length of vectors
    10.672732200 10.720734184 30.666511365     0.110332291  0.109841975  0.032610184

  position of ions in fractional coordinates (direct lattice)
     0.222872354  0.111568408  0.683000559
     0.221574211  0.444008895  0.682715745
     0.222821979  0.777686028  0.682850157
     0.555469567  0.110985690  0.682807880
     0.555480659  0.444886611  0.682513344
     0.555743071  0.778141259  0.682695885
     0.888335191  0.110762735  0.682746197
     0.889263506  0.444893412  0.682798407
     0.888880856  0.777915620  0.682827769
     0.000181248  0.222747168  0.438232607
     0.999304903  0.554950441  0.438272750
     0.999234756  0.888830056  0.437997942
     0.332516337  0.221647582  0.437938217
     0.333336853  0.555455039  0.438123769
     0.332727595  0.888785106  0.438063745
     0.666699062  0.222240314  0.438121685
     0.666113284  0.555010794  0.438071919
     0.666678281  0.888890128  0.438110243
     0.222087422  0.110790688  0.561905345
     0.221723520  0.444637876  0.561672580
     0.222259550  0.777761474  0.561911935
     0.555962467  0.110967558  0.561989429
     0.555650112  0.444996048  0.561909023
     0.555593951  0.777793227  0.561856688
     0.888719953  0.110807948  0.561825932
     0.888850107  0.444477506  0.561861356
     0.889281214  0.778041275  0.561860234
     0.000447081  0.222006890  0.317418150
     0.999696373  0.555555254  0.317368734
     0.999692112  0.888866332  0.317287784
     0.333323442  0.222103209  0.317215412
     0.332852127  0.555233068  0.317037618
     0.333119425  0.888106559  0.317014658
     0.666682295  0.222262933  0.317208581
     0.666925583  0.555657295  0.317247947
     0.666513966  0.888816839  0.317300876
     0.000069000  0.999899787  0.622313385
     0.999356807  0.333510956  0.622192922
     0.000092946  0.666974393  0.622336153
     0.333220462  0.999296905  0.622318652
     0.332675927  0.333070302  0.622379678
     0.333900865  0.666675098  0.622457134
     0.667614412  0.000400588  0.622371999
     0.666412316  0.333241101  0.622363810
     0.667327647  0.667363111  0.622376606
     0.111413119  0.110800371  0.377449694
     0.111392726  0.444851891  0.377608450
     0.111389544  0.777998027  0.377553598
     0.443975206  0.111188757  0.377786437
     0.443836823  0.444026415  0.377650813
     0.444823758  0.777743693  0.377758785
     0.777554264  0.111039074  0.377532116
     0.777447020  0.444863304  0.377593509
     0.777856319  0.777907802  0.377658329

  ion indices of the primitive-cell ions
   primitive index   ion index
                 1           1
                 2           2
                 3           3
                 4           4
                 5           5
                 6           6
                 7           7
                 8           8
                 9           9
                10          10
                11          11
                12          12
                13          13
                14          14
                15          15
                16          16
                17          17
                18          18
                19          19
                20          20
                21          21
                22          22
                23          23
                24          24
                25          25
                26          26
                27          27
                28          28
                29          29
                30          30
                31          31
                32          32
                33          33
                34          34
                35          35
                36          36
                37          37
                38          38
                39          39
                40          40
                41          41
                42          42
                43          43
                44          44
                45          45
                46          46
                47          47
                48          48
                49          49
                50          50
                51          51
                52          52
                53          53
                54          54

----------------------------------------------------------------------------------------

 
 

Automatic generation of k-mesh.
 generate k-points for:    3    3    1
Space group operators:
 irot       det(A)        alpha          n_x          n_y          n_z        tau_x        tau_y        tau_z
    1     1.000000     0.000001     1.000000     0.000000     0.000000     0.000000     0.000000     0.000000
 
 Subroutine IBZKPT returns following result:
 ===========================================
 
 Found      5 irreducible k-points:
 
 Following reciprocal coordinates:
            Coordinates               Weight
  0.000000  0.000000  0.000000      1.000000
  0.333333  0.000000  0.000000      2.000000
  0.000000  0.333333  0.000000      2.000000
  0.333333  0.333333 -0.000000      2.000000
 -0.333333  0.333333 -0.000000      2.000000
 
 Following cartesian coordinates:
            Coordinates               Weight
  0.000000  0.000000  0.000000      1.000000
  0.031232  0.019419  0.000125      2.000000
  0.000000  0.036613  0.000325      2.000000
  0.031232  0.056032  0.000450      2.000000
 -0.031232  0.017193  0.000200      2.000000
 


--------------------------------------------------------------------------------------------------------




 Dimension of arrays:
   k-points           NKPTS =      5   k-points in BZ     NKDIM =      5   number of bands    NBANDS=    200
   number of dos      NEDOS =    301   number of ions     NIONS =     54
   non local maximal  LDIM  =      6   non local SUM 2l+1 LMDIM =     18
   total plane-waves  NPLWV = ******
   max r-space proj   IRMAX =      1   max aug-charges    IRDMAX=  36684
   dimension x,y,z NGX =    84 NGY =   84 NGZ =  240
   dimension x,y,z NGXF=   168 NGYF=  168 NGZF=  480
   support grid    NGXF=   168 NGYF=  168 NGZF=  480
   ions per type =              36  18
   NGX,Y,Z   is equivalent  to a cutoff of  13.08, 13.03, 13.01 a.u.
   NGXF,Y,Z  is equivalent  to a cutoff of  26.17, 26.05, 26.02 a.u.

 SYSTEM =  dpgen_md                                
 POSCAR =  Te Mo                                   

 Startparameter for this run:
   NWRITE =      2    write-flag & timer
   PREC   = a         normal or accurate (medium, high low for compatibility)
   ISTART =      0    job   : 0-new  1-cont  2-samecut
   ICHARG =      2    charge: 1-file 2-atom 10-const
   ISPIN  =      1    spin polarized calculation?
   LNONCOLLINEAR =      F non collinear calculations
   LSORBIT =      F    spin-orbit coupling
   INIWAV =      1    electr: 0-lowe 1-rand  2-diag
   LASPH  =      F    aspherical Exc in radial PAW
   METAGGA=      F    non-selfconsistent MetaGGA calc.

 Electronic Relaxation 1
   ENCUT  =  550.0 eV  40.42 Ry    6.36 a.u.  20.41 20.50 58.64*2*pi/ulx,y,z
   ENINI  =  550.0     initial cutoff
   ENAUG  =  368.8 eV  augmentation charge cutoff
   NELM   =    100;   NELMIN=  6; NELMDL= -5     # of ELM steps 
   EDIFF  = 0.1E-05   stopping-criterion for ELM
   LREAL  =      F    real-space projection
   NLSPLINE    = F    spline interpolate recip. space projectors
   LCOMPAT=      F    compatible to vasp.4.4
   GGA_COMPAT  = T    GGA compatible to vasp.4.4-vasp.4.6
   LMAXPAW     = -100 max onsite density
   LMAXMIX     =    2 max onsite mixed and CHGCAR
   VOSKOWN=      0    Vosko Wilk Nusair interpolation
   ROPT   =    0.00000   0.00000
 Ionic relaxation
   EDIFFG = 0.1E-04   stopping-criterion for IOM
   NSW    =     10    number of steps for IOM
   NBLOCK =      1;   KBLOCK =      1    inner block; outer block 
   IBRION =      0    ionic relax: 0-MD 1-quasi-New 2-CG
   NFREE  =      0    steps in history (QN), initial steepest desc. (CG)
   ISIF   =      2    stress and relaxation
   IWAVPR =     11    prediction:  0-non 1-charg 2-wave 3-comb
   ISYM   =      0    0-nonsym 1-usesym 2-fastsym
   LCORR  =      T    Harris-Foulkes like correction to forces

   POTIM  = 2.0000    time-step for ionic-motion
   TEIN   =  100.0    initial temperature
   TEBEG  =  100.0;   TEEND  = 100.0 temperature during run
   SMASS  =   0.04    Nose mass-parameter (am)
   estimated Nose-frequenzy (Omega)   =  0.79E+14 period in steps = 0.40E+02 mass=   0.327E-28a.u.
   SCALEE = 1.0000    scale energy and forces
   NPACO  =    256;   APACO  = 16.0  distance and # of slots for P.C.
   PSTRESS=    0.0 pullay stress

  Mass of Ions in am
   POMASS = 127.60 95.94
  Ionic Valenz
   ZVAL   =   6.00  6.00
  Atomic Wigner-Seitz radii
   RWIGS  =  -1.00 -1.00
  virtual crystal weights 
   VCA    =   1.00  1.00
   NELECT =     324.0000    total number of electrons
   NUPDOWN=      -1.0000    fix difference up-down

 DOS related values:
   EMIN   =  10.00;   EMAX   =-10.00  energy-range for DOS
   EFERMI =   0.00
   ISMEAR =     0;   SIGMA  =   0.10  broadening in eV -4-tet -1-fermi 0-gaus

 Electronic relaxation 2 (details)
   IALGO  =     68    algorithm
   LDIAG  =      T    sub-space diagonalisation (order eigenvalues)
   LSUBROT=      F    optimize rotation matrix (better conditioning)
   TURBO    =      0    0=normal 1=particle mesh
   IRESTART =      0    0=no restart 2=restart with 2 vectors
   NREBOOT  =      0    no. of reboots
   NMIN     =      0    reboot dimension
   EREF     =   0.00    reference energy to select bands
   IMIX   =      4    mixing-type and parameters
     AMIX     =   0.40;   BMIX     =  1.00
     AMIX_MAG =   1.60;   BMIX_MAG =  1.00
     AMIN     =   0.10
     WC   =   100.;   INIMIX=   1;  MIXPRE=   1;  MAXMIX= -45

 Intra band minimization:
   WEIMIN = 0.0010     energy-eigenvalue tresh-hold
   EBREAK =  0.13E-08  absolut break condition
   DEPER  =   0.30     relativ break condition  

   TIME   =   0.40     timestep for ELM

  volume/ion in A,a.u.               =      55.18       372.37
  Fermi-wavevector in a.u.,A,eV,Ry     =   0.781387  1.476607  8.307248  0.610565
  Thomas-Fermi vector in A             =   1.884894
 
 Write flags
   LWAVE        =      F    write WAVECAR
   LDOWNSAMPLE  =      F    k-point downsampling of WAVECAR
   LCHARG       =      F    write CHGCAR
   LVTOT        =      F    write LOCPOT, total local potential
   LVHAR        =      F    write LOCPOT, Hartree potential only
   LELF         =      F    write electronic localiz. function (ELF)
   LORBIT       =      0    0 simple, 1 ext, 2 COOP (PROOUT), +10 PAW based schemes


 Dipole corrections
   LMONO  =      F    monopole corrections only (constant potential shift)
   LDIPOL =      F    correct potential (dipole corrections)
   IDIPOL =      0    1-x, 2-y, 3-z, 4-all directions 
   EPSILON=  1.0000000 bulk dielectric constant

 Exchange correlation treatment:
   GGA     =    --    GGA type
   LEXCH   =     8    internal setting for exchange type
   VOSKOWN=      0    Vosko Wilk Nusair interpolation
   LHFCALC =     F    Hartree Fock is set to
   LHFONE  =     F    Hartree Fock one center treatment
   AEXX    =    0.0000 exact exchange contribution

 Linear response parameters
   LEPSILON=     F    determine dielectric tensor
   LRPA    =     F    only Hartree local field effects (RPA)
   LNABLA  =     F    use nabla operator in PAW spheres
   LVEL    =     F    velocity operator in full k-point grid
   LINTERFAST=   F  fast interpolation
   KINTER  =     0    interpolate to denser k-point grid
   CSHIFT  =0.1000    complex shift for real part using Kramers Kronig
   OMEGAMAX=  -1.0    maximum frequency
   DEG_THRESHOLD= 0.2000000E-02 threshold for treating states as degnerate
   RTIME   =   -0.100 relaxation time in fs
  (WPLASMAI=    0.000 imaginary part of plasma frequency in eV, 0.658/RTIME)
   DFIELD  = 0.0000000 0.0000000 0.0000000 field for delta impulse in time
 
 Orbital magnetization related:
   ORBITALMAG=     F  switch on orbital magnetization
   LCHIMAG   =     F  perturbation theory with respect to B field
   DQ        =  0.001000  dq finite difference perturbation B field
   LLRAUG    =     F  two centre corrections for induced B field



--------------------------------------------------------------------------------------------------------


 molecular dynamics for ions
   using nose mass (canonical ensemble)
 charge density and potential will be updated during run
 non-spin polarized calculation
 RMM-DIIS sequential band-by-band and
  variant of blocked Davidson during initial phase
 perform sub-space diagonalisation
    before iterative eigenvector-optimisation
 modified Broyden-mixing scheme, WC =      100.0
 initial mixing is a Kerker type mixing with AMIX =  0.4000 and BMIX =      1.0000
 Hartree-type preconditioning will be used
 using additional bands           38
 reciprocal scheme for non local part
 use partial core corrections
 calculate Harris-corrections to forces 
   (improved forces if not selfconsistent)
 use gradient corrections 
 use of overlap-Matrix (Vanderbilt PP)
 Gauss-broadening in eV      SIGMA  =   0.10


--------------------------------------------------------------------------------------------------------


  energy-cutoff  :      550.00
  volume of cell :     2979.69
      direct lattice vectors                 reciprocal lattice vectors
    10.672732200  0.000000000  0.000000000     0.093696720  0.058258038  0.000374376
    -5.660831746  9.104346511  0.000000000     0.000000000  0.109837647  0.000975085
     0.046739138 -0.272231194 30.665267403     0.000000000  0.000000000  0.032610184

  length of vectors
    10.672732200 10.720734184 30.666511365     0.110332291  0.109841975  0.032610184


 
 k-points in units of 2pi/SCALE and weight: read from INCAR                         
   0.00000000  0.00000000  0.00000000       0.111
   0.03123224  0.01941935  0.00012479       0.222
   0.00000000  0.03661255  0.00032503       0.222
   0.03123224  0.05603190  0.00044982       0.222
  -0.03123224  0.01719320  0.00020024       0.222
 
 k-points in reciprocal lattice and weights: read from INCAR                         
   0.00000000  0.00000000  0.00000000       0.111
   0.33333333  0.00000000  0.00000000       0.222
   0.00000000  0.33333333  0.00000000       0.222
   0.33333333  0.33333333 -0.00000000       0.222
  -0.33333333  0.33333333 -0.00000000       0.222
 
 position of ions in fractional coordinates (direct lattice) 
   0.22287235  0.11156841  0.68300056
   0.22157421  0.44400889  0.68271574
   0.22282198  0.77768603  0.68285016
   0.55546957  0.11098569  0.68280788
   0.55548066  0.44488661  0.68251334
   0.55574307  0.77814126  0.68269589
   0.88833519  0.11076274  0.68274620
   0.88926351  0.44489341  0.68279841
   0.88888086  0.77791562  0.68282777
   0.00018125  0.22274717  0.43823261
   0.99930490  0.55495044  0.43827275
   0.99923476  0.88883006  0.43799794
   0.33251634  0.22164758  0.43793822
   0.33333685  0.55545504  0.43812377
   0.33272760  0.88878511  0.43806375
   0.66669906  0.22224031  0.43812168
   0.66611328  0.55501079  0.43807192
   0.66667828  0.88889013  0.43811024
   0.22208742  0.11079069  0.56190534
   0.22172352  0.44463788  0.56167258
   0.22225955  0.77776147  0.56191194
   0.55596247  0.11096756  0.56198943
   0.55565011  0.44499605  0.56190902
   0.55559395  0.77779323  0.56185669
   0.88871995  0.11080795  0.56182593
   0.88885011  0.44447751  0.56186136
   0.88928121  0.77804127  0.56186023
   0.00044708  0.22200689  0.31741815
   0.99969637  0.55555525  0.31736873
   0.99969211  0.88886633  0.31728778
   0.33332344  0.22210321  0.31721541
   0.33285213  0.55523307  0.31703762
   0.33311943  0.88810656  0.31701466
   0.66668230  0.22226293  0.31720858
   0.66692558  0.55565729  0.31724795
   0.66651397  0.88881684  0.31730088
   0.00006900  0.99989979  0.62231338
   0.99935681  0.33351096  0.62219292
   0.00009295  0.66697439  0.62233615
   0.33322046  0.99929691  0.62231865
   0.33267593  0.33307030  0.62237968
   0.33390087  0.66667510  0.62245713
   0.66761441  0.00040059  0.62237200
   0.66641232  0.33324110  0.62236381
   0.66732765  0.66736311  0.62237661
   0.11141312  0.11080037  0.37744969
   0.11139273  0.44485189  0.37760845
   0.11138954  0.77799803  0.37755360
   0.44397521  0.11118876  0.37778644
   0.44383682  0.44402642  0.37765081
   0.44482376  0.77774369  0.37775878
   0.77755426  0.11103907  0.37753212
   0.77744702  0.44486330  0.37759351
   0.77785632  0.77790780  0.37765833
 
 position of ions in cartesian coordinates  (Angst):
   1.77900982  0.82982339 20.94439476
  -0.11674789  3.85655431 20.93566088
  -1.99231462  6.89442996 20.93978266
   5.33202047  0.82457057 20.93848623
   3.44196815  3.86460045 20.92945421
   1.55827885  6.89861654 20.93505188
   8.88586536  0.82255751 20.93659471
   7.00431792  3.86458476 20.93819573
   5.11505268  6.89652634 20.93909612
  -1.23851721  1.90866682 13.43852007
   7.54431703  4.93314960 13.43975108
   5.65351921  7.97298011 13.43132401
   2.31461700  1.89873595 13.42949254
   0.43375497  4.93778419 13.43518255
  -1.45967570  7.97255296 13.43334189
   5.87791295  1.90408244 13.43511861
   3.98790107  4.93375375 13.43359255
   2.10389820  7.97349646 13.43476776
   1.76937511  0.85570865 17.23097766
  -0.12437236  3.89523250 17.22383986
  -2.00439691  6.92804001 17.23117975
   5.33173675  0.85729605 17.23355613
   3.43752024  3.89842905 17.23109043
   1.55300956  6.92834413 17.22948559
   8.88406417  0.85588741 17.22854243
   6.99660769  3.89372105 17.22962874
   5.11296036  6.93060148 17.22959432
  -1.23713622  1.93481653  9.73371246
   7.53942039  4.97156987  9.73219710
   5.65255320  8.00617145  9.72971475
   2.31500931  1.93574865  9.72749542
   0.42417870  4.96872671  9.72204333
  -1.45731039  7.99932857  9.72133927
   5.87195459  1.93720469  9.72728597
   3.98726359  4.97253177  9.72849313
   2.09691285  8.00571729  9.73011621
  -5.63044165  8.93402102 19.08340635
   8.80699893  2.86701898 19.07971234
  -3.74555037  5.90294667 19.08410454
  -2.07139225  8.92853074 19.08356787
   1.69419563  2.86295628 19.08543926
  -0.18120793  5.90018885 19.08781445
   7.15209130 -0.16578198 19.08520379
   5.25510713  2.86451561 19.08495264
   3.37346833  5.90647469 19.08534504
   0.57950180  0.90601139 11.57459581
  -1.31171788  3.94728896 11.57946410
  -3.19763863  6.98038176 11.57778204
   4.12666505  0.90945572 11.58492212
   2.24104379  3.93976201 11.58076316
   0.36246477  6.97801035 11.58407415
   7.68770045  0.90816218 11.57712330
   5.79683592  3.94739694 11.57900591
   3.91589843  6.97953180 11.58099363
 


--------------------------------------------------------------------------------------------------------


 k-point   1 :   0.0000 0.0000 0.0000  plane waves:   87333
 k-point   2 :   0.3333 0.0000 0.0000  plane waves:   87305
 k-point   3 :   0.0000 0.3333 0.0000  plane waves:   87306
 k-point   4 :   0.3333 0.3333-0.0000  plane waves:   87271
 k-point   5 :  -0.3333 0.3333-0.0000  plane waves:   87247

 maximum and minimum number of plane-waves per node :     87333    87247

 maximum number of plane-waves:     87333
 maximum index in each direction: 
   IXMAX=   20   IYMAX=   20   IZMAX=   58
   IXMIN=  -20   IYMIN=  -20   IZMIN=  -58


 serial   3D FFT for wavefunctions
 parallel 3D FFT for charge:
    minimum data exchange during FFTs selected (reduces bandwidth)


 total amount of memory used by VASP MPI-rank0   377819. kBytes
=======================================================================

   base      :      30000. kBytes
   nonl-proj :     201277. kBytes
   fftplans  :      19943. kBytes
   grid      :      90496. kBytes
   one-center:        839. kBytes
   wavefun   :      35264. kBytes
 
     INWAV:  cpu time    0.0000: real time    0.0000
 Broyden mixing: mesh for mixing (old mesh)
   NGX = 41   NGY = 41   NGZ =117
  (NGX  =168   NGY  =168   NGZ  =480)
  gives a total of 196677 points

 initial charge density was supplied:
 charge density of overlapping atoms calculated
 number of electron     324.0000000 magnetization 
 keeping initial charge density in first step


--------------------------------------------------------------------------------------------------------


 Maximum index for augmentation-charges         2194 (set IRDMAX)


--------------------------------------------------------------------------------------------------------


 First call to EWALD:  gamma=   0.123
 Maximum number of real-space cells 4x 4x 2
 Maximum number of reciprocal cells 2x 2x 5

    FEWALD:  cpu time    0.0021: real time    0.0023


--------------------------------------- Iteration      1(   1)  ---------------------------------------


    POTLOK:  cpu time    0.3571: real time    0.3578
    SETDIJ:  cpu time    0.0129: real time    0.0131
     EDDAV:  cpu time   50.3223: real time   50.4482
       DOS:  cpu time    0.0009: real time    0.0010
    --------------------------------------------
      LOOP:  cpu time   50.6932: real time   50.8201

 eigenvalue-minimisations  :  2000
 total energy-change (2. order) : 0.2089224E+04  (-0.1145336E+05)
 number of electron     324.0000000 magnetization 
 augmentation part      324.0000000 magnetization 

 Free energy of the ion-electron system (eV)
  ---------------------------------------------------
  alpha Z        PSCENC =       240.85259664
  Ewald energy   TEWEN  =     61312.58192053
  -Hartree energ DENC   =    -72974.94438670
  -exchange      EXHF   =         0.00000000
  -V(xc)+E(xc)   XCENC  =     -2103.60149441
  PAW double counting   =      7476.04436201    -4809.59211051
  entropy T*S    EENTRO =        -0.13676425
  eigenvalues    EBANDS =       994.93707012
  atomic energy  EATOM  =     11953.08265402
  Solvation  Ediel_sol  =         0.00000000
  ---------------------------------------------------
  free energy    TOTEN  =      2089.22384745 eV

  energy without entropy =     2089.36061170  energy(sigma->0) =     2089.29222957


--------------------------------------------------------------------------------------------------------




--------------------------------------- Iteration      1(   2)  ---------------------------------------


     EDDAV:  cpu time   71.3161: real time   71.4786
       DOS:  cpu time    0.0006: real time    0.0005
    --------------------------------------------
      LOOP:  cpu time   71.3167: real time   71.4791

 eigenvalue-minimisations  :  3080
 total energy-change (2. order) :-0.2189315E+04  (-0.2124052E+04)
 number of electron     324.0000000 magnetization 
 augmentation part      324.0000000 magnetization 

 Free energy of the ion-electron system (eV)
  ---------------------------------------------------
  alpha Z        PSCENC =       240.85259664
  Ewald energy   TEWEN  =     61312.58192053
  -Hartree energ DENC   =    -72974.94438670
  -exchange      EXHF   =         0.00000000
  -V(xc)+E(xc)   XCENC  =     -2103.60149441
  PAW double counting   =      7476.04436201    -4809.59211051
  entropy T*S    EENTRO =        -0.00028158
  eigenvalues    EBANDS =     -1194.51460943
  atomic energy  EATOM  =     11953.08265402
  Solvation  Ediel_sol  =         0.00000000
  ---------------------------------------------------
  free energy    TOTEN  =      -100.09134942 eV

  energy without entropy =     -100.09106785  energy(sigma->0) =     -100.09120863


--------------------------------------------------------------------------------------------------------




--------------------------------------- Iteration      1(   3)  ---------------------------------------


     EDDAV:  cpu time   60.3634: real time   60.5259
       DOS:  cpu time    0.0004: real time    0.0004
    --------------------------------------------
      LOOP:  cpu time   60.3637: real time   60.5262

 eigenvalue-minimisations  :  2520
 total energy-change (2. order) :-0.2250335E+03  (-0.2219725E+03)
 number of electron     324.0000000 magnetization 
 augmentation part      324.0000000 magnetization 

 Free energy of the ion-electron system (eV)
  ---------------------------------------------------
  alpha Z        PSCENC =       240.85259664
  Ewald energy   TEWEN  =     61312.58192053
  -Hartree energ DENC   =    -72974.94438670
  -exchange      EXHF   =         0.00000000
  -V(xc)+E(xc)   XCENC  =     -2103.60149441
  PAW double counting   =      7476.04436201    -4809.59211051
  entropy T*S    EENTRO =        -0.00000000
  eigenvalues    EBANDS =     -1419.54837446
  atomic energy  EATOM  =     11953.08265402
  Solvation  Ediel_sol  =         0.00000000
  ---------------------------------------------------
  free energy    TOTEN  =      -325.12483287 eV

  energy without entropy =     -325.12483287  energy(sigma->0) =     -325.12483287


--------------------------------------------------------------------------------------------------------




--------------------------------------- Iteration      1(   4)  ---------------------------------------


     EDDAV:  cpu time   72.7324: real time   72.9321
       DOS:  cpu time    0.0004: real time    0.0004
    --------------------------------------------
      LOOP:  cpu time   72.7328: real time   72.9325

 eigenvalue-minimisations  :  3160
 total energy-change (2. order) :-0.1143656E+02  (-0.1136277E+02)
 number of electron     324.0000000 magnetization 
 augmentation part      324.0000000 magnetization 

 Free energy of the ion-electron system (eV)
  ---------------------------------------------------
  alpha Z        PSCENC =       240.85259664
  Ewald energy   TEWEN  =     61312.58192053
  -Hartree energ DENC   =    -72974.94438670
  -exchange      EXHF   =         0.00000000
  -V(xc)+E(xc)   XCENC  =     -2103.60149441
  PAW double counting   =      7476.04436201    -4809.59211051
  entropy T*S    EENTRO =        -0.00000000
  eigenvalues    EBANDS =     -1430.98493684
  atomic energy  EATOM  =     11953.08265402
  Solvation  Ediel_sol  =         0.00000000
  ---------------------------------------------------
  free energy    TOTEN  =      -336.56139526 eV

  energy without entropy =     -336.56139526  energy(sigma->0) =     -336.56139526


--------------------------------------------------------------------------------------------------------




--------------------------------------- Iteration      1(   5)  ---------------------------------------


     EDDAV:  cpu time   70.4534: real time   70.6616
       DOS:  cpu time    0.0004: real time    0.0004
    CHARGE:  cpu time    1.1776: real time    1.1871
    MIXING:  cpu time    0.0076: real time    0.0079
    --------------------------------------------
      LOOP:  cpu time   71.6390: real time   71.8570

 eigenvalue-minimisations  :  3040
 total energy-change (2. order) :-0.2974911E+00  (-0.2968683E+00)
 number of electron     323.9999998 magnetization 
 augmentation part      -25.8608846 magnetization 

 Broyden mixing:
  rms(total) = 0.19594E+01    rms(broyden)= 0.19594E+01
  rms(prec ) = 0.20727E+01
  weight for this iteration     100.00

 Free energy of the ion-electron system (eV)
  ---------------------------------------------------
  alpha Z        PSCENC =       240.85259664
  Ewald energy   TEWEN  =     61312.58192053
  -Hartree energ DENC   =    -72974.94438670
  -exchange      EXHF   =         0.00000000
  -V(xc)+E(xc)   XCENC  =     -2103.60149441
  PAW double counting   =      7476.04436201    -4809.59211051
  entropy T*S    EENTRO =        -0.00000000
  eigenvalues    EBANDS =     -1431.28242796
  atomic energy  EATOM  =     11953.08265402
  Solvation  Ediel_sol  =         0.00000000
  ---------------------------------------------------
  free energy    TOTEN  =      -336.85888638 eV

  energy without entropy =     -336.85888638  energy(sigma->0) =     -336.85888638


--------------------------------------------------------------------------------------------------------




--------------------------------------- Iteration      1(   6)  ---------------------------------------


    POTLOK:  cpu time    0.3035: real time    0.3039
    SETDIJ:  cpu time    0.0120: real time    0.0120
    EDDIAG:  cpu time    2.5818: real time    2.5932
  RMM-DIIS:  cpu time   43.1629: real time   43.3107
    ORTHCH:  cpu time    0.2190: real time    0.2192
       DOS:  cpu time    0.0005: real time    0.0005
    CHARGE:  cpu time    1.1846: real time    1.1898
    MIXING:  cpu time    0.0073: real time    0.0074
    --------------------------------------------
      LOOP:  cpu time   47.4715: real time   47.6366

 eigenvalue-minimisations  :  2150
 total energy-change (2. order) : 0.9115515E+01  (-0.6452178E+01)
 number of electron     323.9999998 magnetization 
 augmentation part      -19.6294872 magnetization 

 Broyden mixing:
  rms(total) = 0.73298E+00    rms(broyden)= 0.73297E+00
  rms(prec ) = 0.86200E+00
  weight for this iteration     100.00

 eigenvalues of (default mixing * dielectric matrix)
  average eigenvalue GAMMA=   0.9874
  0.9874

 Free energy of the ion-electron system (eV)
  ---------------------------------------------------
  alpha Z        PSCENC =       240.85259664
  Ewald energy   TEWEN  =     61312.58192053
  -Hartree energ DENC   =    -72945.15622097
  -exchange      EXHF   =         0.00000000
  -V(xc)+E(xc)   XCENC  =     -2097.09895204
  PAW double counting   =      7625.82532717    -4970.13875149
  entropy T*S    EENTRO =        -0.00000000
  eigenvalues    EBANDS =     -1447.69194562
  atomic energy  EATOM  =     11953.08265402
  Solvation  Ediel_sol  =         0.00000000
  ---------------------------------------------------
  free energy    TOTEN  =      -327.74337176 eV

  energy without entropy =     -327.74337175  energy(sigma->0) =     -327.74337176


--------------------------------------------------------------------------------------------------------




--------------------------------------- Iteration      1(   7)  ---------------------------------------


    POTLOK:  cpu time    0.3049: real time    0.3052
    SETDIJ:  cpu time    0.0122: real time    0.0122
    EDDIAG:  cpu time    2.5896: real time    2.5927
  RMM-DIIS:  cpu time   40.7010: real time   40.8105
    ORTHCH:  cpu time    0.2230: real time    0.2232
       DOS:  cpu time    0.0004: real time    0.0004
    CHARGE:  cpu time    1.1806: real time    1.1819
    MIXING:  cpu time    0.0090: real time    0.0090
    --------------------------------------------
      LOOP:  cpu time   45.0207: real time   45.1352

 eigenvalue-minimisations  :  2027
 total energy-change (2. order) : 0.3734822E+01  (-0.1226639E+01)
 number of electron     323.9999998 magnetization 
 augmentation part      -21.8542397 magnetization 

 Broyden mixing:
  rms(total) = 0.49023E+00    rms(broyden)= 0.49022E+00
  rms(prec ) = 0.51971E+00
  weight for this iteration     100.00

 eigenvalues of (default mixing * dielectric matrix)
  average eigenvalue GAMMA=   1.4505
  0.7057  2.1954

 Free energy of the ion-electron system (eV)
  ---------------------------------------------------
  alpha Z        PSCENC =       240.85259664
  Ewald energy   TEWEN  =     61312.58192053
  -Hartree energ DENC   =    -73033.78296353
  -exchange      EXHF   =         0.00000000
  -V(xc)+E(xc)   XCENC  =     -2096.23758804
  PAW double counting   =      7886.22758218    -5234.75939524
  entropy T*S    EENTRO =        -0.00000000
  eigenvalues    EBANDS =     -1351.97335616
  atomic energy  EATOM  =     11953.08265402
  Solvation  Ediel_sol  =         0.00000000
  ---------------------------------------------------
  free energy    TOTEN  =      -324.00854960 eV

  energy without entropy =     -324.00854960  energy(sigma->0) =     -324.00854960


--------------------------------------------------------------------------------------------------------




--------------------------------------- Iteration      1(   8)  ---------------------------------------


    POTLOK:  cpu time    0.3021: real time    0.3060
    SETDIJ:  cpu time    0.0115: real time    0.0115
    EDDIAG:  cpu time    2.5844: real time    2.5913
  RMM-DIIS:  cpu time   40.0844: real time   40.1856
    ORTHCH:  cpu time    0.2216: real time    0.2218
       DOS:  cpu time    0.0004: real time    0.0004
    CHARGE:  cpu time    1.1879: real time    1.1890
    MIXING:  cpu time    0.0074: real time    0.0074
    --------------------------------------------
      LOOP:  cpu time   44.3996: real time   44.5130

 eigenvalue-minimisations  :  2012
 total energy-change (2. order) : 0.5095677E+00  (-0.8835373E+00)
 number of electron     323.9999998 magnetization 
 augmentation part      -21.6928924 magnetization 

 Broyden mixing:
  rms(total) = 0.14788E+00    rms(broyden)= 0.14788E+00
  rms(prec ) = 0.17153E+00
  weight for this iteration     100.00

 eigenvalues of (default mixing * dielectric matrix)
  average eigenvalue GAMMA=   1.2459
  2.1147  0.8116  0.8116

 Free energy of the ion-electron system (eV)
  ---------------------------------------------------
  alpha Z        PSCENC =       240.85259664
  Ewald energy   TEWEN  =     61312.58192053
  -Hartree energ DENC   =    -73095.46435325
  -exchange      EXHF   =         0.00000000
  -V(xc)+E(xc)   XCENC  =     -2092.37221218
  PAW double counting   =      8169.42885094    -5524.04507076
  entropy T*S    EENTRO =        -0.00000000
  eigenvalues    EBANDS =     -1287.56336784
  atomic energy  EATOM  =     11953.08265402
  Solvation  Ediel_sol  =         0.00000000
  ---------------------------------------------------
  free energy    TOTEN  =      -323.49898190 eV

  energy without entropy =     -323.49898190  energy(sigma->0) =     -323.49898190


--------------------------------------------------------------------------------------------------------




--------------------------------------- Iteration      1(   9)  ---------------------------------------


    POTLOK:  cpu time    0.3036: real time    0.3040
    SETDIJ:  cpu time    0.0126: real time    0.0127
    EDDIAG:  cpu time    2.6013: real time    2.6085
  RMM-DIIS:  cpu time   45.1122: real time   45.2214
    ORTHCH:  cpu time    0.2099: real time    0.2105
       DOS:  cpu time    0.0004: real time    0.0004
    CHARGE:  cpu time    1.1827: real time    1.1839
    MIXING:  cpu time    0.0099: real time    0.0099
    --------------------------------------------
      LOOP:  cpu time   49.4326: real time   49.5513

 eigenvalue-minimisations  :  2199
 total energy-change (2. order) :-0.2114875E-01  (-0.1513120E+00)
 number of electron     323.9999998 magnetization 
 augmentation part      -21.2324938 magnetization 

 Broyden mixing:
  rms(total) = 0.10434E+00    rms(broyden)= 0.10434E+00
  rms(prec ) = 0.11577E+00
  weight for this iteration     100.00

 eigenvalues of (default mixing * dielectric matrix)
  average eigenvalue GAMMA=   1.1231
  1.9935  1.3375  0.7186  0.4429

 Free energy of the ion-electron system (eV)
  ---------------------------------------------------
  alpha Z        PSCENC =       240.85259664
  Ewald energy   TEWEN  =     61312.58192053
  -Hartree energ DENC   =    -73091.42525891
  -exchange      EXHF   =         0.00000000
  -V(xc)+E(xc)   XCENC  =     -2092.03868508
  PAW double counting   =      8164.09952101    -5518.82118233
  entropy T*S    EENTRO =        -0.00000000
  eigenvalues    EBANDS =     -1291.85169654
  atomic energy  EATOM  =     11953.08265402
  Solvation  Ediel_sol  =         0.00000000
  ---------------------------------------------------
  free energy    TOTEN  =      -323.52013065 eV

  energy without entropy =     -323.52013065  energy(sigma->0) =     -323.52013065


--------------------------------------------------------------------------------------------------------




--------------------------------------- Iteration      1(  10)  ---------------------------------------


    POTLOK:  cpu time    0.3053: real time    0.3057
    SETDIJ:  cpu time    0.0119: real time    0.0119
    EDDIAG:  cpu time    2.5750: real time    2.5816
  RMM-DIIS:  cpu time   48.6029: real time   48.7441
    ORTHCH:  cpu time    0.2187: real time    0.2189
       DOS:  cpu time    0.0004: real time    0.0004
    CHARGE:  cpu time    1.1858: real time    1.1910
    MIXING:  cpu time    0.0109: real time    0.0109
    --------------------------------------------
      LOOP:  cpu time   52.9109: real time   53.0645

 eigenvalue-minimisations  :  2369
 total energy-change (2. order) :-0.8615542E-02  (-0.4579503E-01)
 number of electron     323.9999998 magnetization 
 augmentation part      -21.0259277 magnetization 

 Broyden mixing:
  rms(total) = 0.78121E-01    rms(broyden)= 0.78121E-01
  rms(prec ) = 0.86918E-01
  weight for this iteration     100.00

 eigenvalues of (default mixing * dielectric matrix)
  average eigenvalue GAMMA=   1.2695
  2.3296  1.7912  0.9905  0.8526  0.3836

 Free energy of the ion-electron system (eV)
  ---------------------------------------------------
  alpha Z        PSCENC =       240.85259664
  Ewald energy   TEWEN  =     61312.58192053
  -Hartree energ DENC   =    -73093.55945092
  -exchange      EXHF   =         0.00000000
  -V(xc)+E(xc)   XCENC  =     -2091.83947376
  PAW double counting   =      8174.62649154    -5529.35412520
  entropy T*S    EENTRO =        -0.00000000
  eigenvalues    EBANDS =     -1289.91935906
  atomic energy  EATOM  =     11953.08265402
  Solvation  Ediel_sol  =         0.00000000
  ---------------------------------------------------
  free energy    TOTEN  =      -323.52874619 eV

  energy without entropy =     -323.52874619  energy(sigma->0) =     -323.52874619


--------------------------------------------------------------------------------------------------------




--------------------------------------- Iteration      1(  11)  ---------------------------------------


    POTLOK:  cpu time    0.3027: real time    0.3030
    SETDIJ:  cpu time    0.0120: real time    0.0120
    EDDIAG:  cpu time    2.6016: real time    2.6044
  RMM-DIIS:  cpu time   43.2507: real time   43.3596
    ORTHCH:  cpu time    0.2139: real time    0.2141
       DOS:  cpu time    0.0004: real time    0.0004
    CHARGE:  cpu time    1.1844: real time    1.1857
    MIXING:  cpu time    0.0077: real time    0.0077
    --------------------------------------------
      LOOP:  cpu time   47.5733: real time   47.6869

 eigenvalue-minimisations  :  2138
 total energy-change (2. order) : 0.1196284E-01  (-0.2137823E-01)
 number of electron     323.9999998 magnetization 
 augmentation part      -21.3574638 magnetization 

 Broyden mixing:
  rms(total) = 0.42325E-01    rms(broyden)= 0.42325E-01
  rms(prec ) = 0.48037E-01
  weight for this iteration     100.00

 eigenvalues of (default mixing * dielectric matrix)
  average eigenvalue GAMMA=   1.2096
  2.5302  1.6461  1.3353  0.6845  0.6845  0.3770

 Free energy of the ion-electron system (eV)
  ---------------------------------------------------
  alpha Z        PSCENC =       240.85259664
  Ewald energy   TEWEN  =     61312.58192053
  -Hartree energ DENC   =    -73113.42049803
  -exchange      EXHF   =         0.00000000
  -V(xc)+E(xc)   XCENC  =     -2091.54204926
  PAW double counting   =      8226.16490261    -5581.10391449
  entropy T*S    EENTRO =        -0.00000000
  eigenvalues    EBANDS =     -1270.13239537
  atomic energy  EATOM  =     11953.08265402
  Solvation  Ediel_sol  =         0.00000000
  ---------------------------------------------------
  free energy    TOTEN  =      -323.51678335 eV

  energy without entropy =     -323.51678335  energy(sigma->0) =     -323.51678335


--------------------------------------------------------------------------------------------------------




--------------------------------------- Iteration      1(  12)  ---------------------------------------


    POTLOK:  cpu time    0.3036: real time    0.3039
    SETDIJ:  cpu time    0.0120: real time    0.0120
    EDDIAG:  cpu time    2.5870: real time    2.5943
  RMM-DIIS:  cpu time   49.5507: real time   49.7057
    ORTHCH:  cpu time    0.2139: real time    0.2141
       DOS:  cpu time    0.0004: real time    0.0004
    CHARGE:  cpu time    1.1745: real time    1.1797
    MIXING:  cpu time    0.0077: real time    0.0077
    --------------------------------------------
      LOOP:  cpu time   53.8498: real time   54.0178

 eigenvalue-minimisations  :  2426
 total energy-change (2. order) : 0.9752578E-03  (-0.4702567E-02)
 number of electron     323.9999998 magnetization 
 augmentation part      -21.3433462 magnetization 

 Broyden mixing:
  rms(total) = 0.31363E-01    rms(broyden)= 0.31363E-01
  rms(prec ) = 0.35899E-01
  weight for this iteration     100.00

 eigenvalues of (default mixing * dielectric matrix)
  average eigenvalue GAMMA=   1.1799
  2.5319  1.6903  1.6903  0.7950  0.7950  0.3939  0.3628

 Free energy of the ion-electron system (eV)
  ---------------------------------------------------
  alpha Z        PSCENC =       240.85259664
  Ewald energy   TEWEN  =     61312.58192053
  -Hartree energ DENC   =    -73117.21403111
  -exchange      EXHF   =         0.00000000
  -V(xc)+E(xc)   XCENC  =     -2091.41888706
  PAW double counting   =      8230.42384600    -5585.40127394
  entropy T*S    EENTRO =        -0.00000000
  eigenvalues    EBANDS =     -1266.42263317
  atomic energy  EATOM  =     11953.08265402
  Solvation  Ediel_sol  =         0.00000000
  ---------------------------------------------------
  free energy    TOTEN  =      -323.51580809 eV

  energy without entropy =     -323.51580809  energy(sigma->0) =     -323.51580809


--------------------------------------------------------------------------------------------------------




--------------------------------------- Iteration      1(  13)  ---------------------------------------


    POTLOK:  cpu time    0.3029: real time    0.3033
    SETDIJ:  cpu time    0.0119: real time    0.0120
    EDDIAG:  cpu time    2.6022: real time    2.6051
  RMM-DIIS:  cpu time   48.0023: real time   48.1312
    ORTHCH:  cpu time    0.2122: real time    0.2124
       DOS:  cpu time    0.0005: real time    0.0004
    CHARGE:  cpu time    1.1887: real time    1.1939
    MIXING:  cpu time    0.0103: real time    0.0103
    --------------------------------------------
      LOOP:  cpu time   52.3310: real time   52.4686

 eigenvalue-minimisations  :  2372
 total energy-change (2. order) : 0.2525761E-02  (-0.2552125E-02)
 number of electron     323.9999998 magnetization 
 augmentation part      -21.2342165 magnetization 

 Broyden mixing:
  rms(total) = 0.91999E-02    rms(broyden)= 0.91998E-02
  rms(prec ) = 0.12441E-01
  weight for this iteration     100.00

 eigenvalues of (default mixing * dielectric matrix)
  average eigenvalue GAMMA=   1.2448
  2.3876  2.0987  2.0987  1.0083  0.8027  0.8027  0.3957  0.3639

 Free energy of the ion-electron system (eV)
  ---------------------------------------------------
  alpha Z        PSCENC =       240.85259664
  Ewald energy   TEWEN  =     61312.58192053
  -Hartree energ DENC   =    -73119.04751477
  -exchange      EXHF   =         0.00000000
  -V(xc)+E(xc)   XCENC  =     -2091.33250020
  PAW double counting   =      8226.16522907    -5581.13424152
  entropy T*S    EENTRO =        -0.00000000
  eigenvalues    EBANDS =     -1264.68142610
  atomic energy  EATOM  =     11953.08265402
  Solvation  Ediel_sol  =         0.00000000
  ---------------------------------------------------
  free energy    TOTEN  =      -323.51328233 eV

  energy without entropy =     -323.51328233  energy(sigma->0) =     -323.51328233


--------------------------------------------------------------------------------------------------------




--------------------------------------- Iteration      1(  14)  ---------------------------------------


    POTLOK:  cpu time    0.3026: real time    0.3029
    SETDIJ:  cpu time    0.0120: real time    0.0120
    EDDIAG:  cpu time    2.5923: real time    2.5951
  RMM-DIIS:  cpu time   53.6134: real time   53.7801
    ORTHCH:  cpu time    0.2133: real time    0.2135
       DOS:  cpu time    0.0005: real time    0.0005
    CHARGE:  cpu time    1.1876: real time    1.1887
    MIXING:  cpu time    0.0080: real time    0.0080
    --------------------------------------------
      LOOP:  cpu time   57.9296: real time   58.1007

 eigenvalue-minimisations  :  2565
 total energy-change (2. order) :-0.1054447E-02  (-0.8939723E-03)
 number of electron     323.9999998 magnetization 
 augmentation part      -21.2177049 magnetization 

 Broyden mixing:
  rms(total) = 0.82077E-02    rms(broyden)= 0.82077E-02
  rms(prec ) = 0.10533E-01
  weight for this iteration     100.00

 eigenvalues of (default mixing * dielectric matrix)
  average eigenvalue GAMMA=   1.2879
  3.1161  2.5635  1.5063  1.5063  0.7947  0.7947  0.5495  0.3958  0.3642

 Free energy of the ion-electron system (eV)
  ---------------------------------------------------
  alpha Z        PSCENC =       240.85259664
  Ewald energy   TEWEN  =     61312.58192053
  -Hartree energ DENC   =    -73126.19466491
  -exchange      EXHF   =         0.00000000
  -V(xc)+E(xc)   XCENC  =     -2091.28638910
  PAW double counting   =      8223.48410272    -5578.38204075
  entropy T*S    EENTRO =        -0.00000000
  eigenvalues    EBANDS =     -1257.65251593
  atomic energy  EATOM  =     11953.08265402
  Solvation  Ediel_sol  =         0.00000000
  ---------------------------------------------------
  free energy    TOTEN  =      -323.51433678 eV

  energy without entropy =     -323.51433678  energy(sigma->0) =     -323.51433678


--------------------------------------------------------------------------------------------------------




--------------------------------------- Iteration      1(  15)  ---------------------------------------


    POTLOK:  cpu time    0.3094: real time    0.3097
    SETDIJ:  cpu time    0.0119: real time    0.0119
    EDDIAG:  cpu time    2.5781: real time    2.5876
  RMM-DIIS:  cpu time   47.2850: real time   47.4026
    ORTHCH:  cpu time    0.2182: real time    0.2184
       DOS:  cpu time    0.0004: real time    0.0004
    CHARGE:  cpu time    1.1841: real time    1.1853
    MIXING:  cpu time    0.0081: real time    0.0081
    --------------------------------------------
      LOOP:  cpu time   51.5951: real time   51.7241

 eigenvalue-minimisations  :  2314
 total energy-change (2. order) :-0.4346506E-03  (-0.1768353E-03)
 number of electron     323.9999998 magnetization 
 augmentation part      -21.2299747 magnetization 

 Broyden mixing:
  rms(total) = 0.52080E-02    rms(broyden)= 0.52080E-02
  rms(prec ) = 0.67093E-02
  weight for this iteration     100.00

 eigenvalues of (default mixing * dielectric matrix)
  average eigenvalue GAMMA=   1.2722
  3.4986  2.5020  1.6154  1.6154  0.7923  0.7923  0.7288  0.3624  0.3922  0.4226

 Free energy of the ion-electron system (eV)
  ---------------------------------------------------
  alpha Z        PSCENC =       240.85259664
  Ewald energy   TEWEN  =     61312.58192053
  -Hartree energ DENC   =    -73131.19922466
  -exchange      EXHF   =         0.00000000
  -V(xc)+E(xc)   XCENC  =     -2091.26137712
  PAW double counting   =      8223.07990479    -5577.93991099
  entropy T*S    EENTRO =        -0.00000000
  eigenvalues    EBANDS =     -1252.71133465
  atomic energy  EATOM  =     11953.08265402
  Solvation  Ediel_sol  =         0.00000000
  ---------------------------------------------------
  free energy    TOTEN  =      -323.51477143 eV

  energy without entropy =     -323.51477143  energy(sigma->0) =     -323.51477143


--------------------------------------------------------------------------------------------------------




--------------------------------------- Iteration      1(  16)  ---------------------------------------


    POTLOK:  cpu time    0.3036: real time    0.3040
    SETDIJ:  cpu time    0.0121: real time    0.0121
    EDDIAG:  cpu time    2.6071: real time    2.6140
  RMM-DIIS:  cpu time   50.1406: real time   50.2730
    ORTHCH:  cpu time    0.2215: real time    0.2217
       DOS:  cpu time    0.0004: real time    0.0004
    CHARGE:  cpu time    1.1865: real time    1.1877
    MIXING:  cpu time    0.0090: real time    0.0090
    --------------------------------------------
      LOOP:  cpu time   54.4807: real time   54.6220

 eigenvalue-minimisations  :  2456
 total energy-change (2. order) :-0.7230818E-03  (-0.7373486E-04)
 number of electron     323.9999998 magnetization 
 augmentation part      -21.2383774 magnetization 

 Broyden mixing:
  rms(total) = 0.37650E-02    rms(broyden)= 0.37650E-02
  rms(prec ) = 0.48367E-02
  weight for this iteration     100.00

 eigenvalues of (default mixing * dielectric matrix)
  average eigenvalue GAMMA=   1.3095
  3.6999  2.4515  1.9484  1.9484  0.9658  0.8110  0.8110  0.6252  0.3619  0.3980
  0.3838

 Free energy of the ion-electron system (eV)
  ---------------------------------------------------
  alpha Z        PSCENC =       240.85259664
  Ewald energy   TEWEN  =     61312.58192053
  -Hartree energ DENC   =    -73133.28586106
  -exchange      EXHF   =         0.00000000
  -V(xc)+E(xc)   XCENC  =     -2091.25219112
  PAW double counting   =      8223.03502262    -5577.89171188
  entropy T*S    EENTRO =        -0.00000000
  eigenvalues    EBANDS =     -1250.63792426
  atomic energy  EATOM  =     11953.08265402
  Solvation  Ediel_sol  =         0.00000000
  ---------------------------------------------------
  free energy    TOTEN  =      -323.51549451 eV

  energy without entropy =     -323.51549451  energy(sigma->0) =     -323.51549451


--------------------------------------------------------------------------------------------------------




--------------------------------------- Iteration      1(  17)  ---------------------------------------


    POTLOK:  cpu time    0.3041: real time    0.3045
    SETDIJ:  cpu time    0.0120: real time    0.0120
    EDDIAG:  cpu time    2.5780: real time    2.5852
  RMM-DIIS:  cpu time   46.1765: real time   46.2779
    ORTHCH:  cpu time    0.2216: real time    0.2218
       DOS:  cpu time    0.0004: real time    0.0004
    CHARGE:  cpu time    1.1871: real time    1.1882
    MIXING:  cpu time    0.0084: real time    0.0084
    --------------------------------------------
      LOOP:  cpu time   50.4880: real time   50.5983

 eigenvalue-minimisations  :  2234
 total energy-change (2. order) :-0.1592522E-02  (-0.3157460E-04)
 number of electron     323.9999998 magnetization 
 augmentation part      -21.2401082 magnetization 

 Broyden mixing:
  rms(total) = 0.22318E-02    rms(broyden)= 0.22318E-02
  rms(prec ) = 0.29304E-02
  weight for this iteration     100.00

 eigenvalues of (default mixing * dielectric matrix)
  average eigenvalue GAMMA=   1.4152
  4.6016  2.7087  2.3062  1.5354  1.5354  0.9358  0.8147  0.8147  0.5895  0.3623
  0.3971  0.3815

 Free energy of the ion-electron system (eV)
  ---------------------------------------------------
  alpha Z        PSCENC =       240.85259664
  Ewald energy   TEWEN  =     61312.58192053
  -Hartree energ DENC   =    -73136.22049788
  -exchange      EXHF   =         0.00000000
  -V(xc)+E(xc)   XCENC  =     -2091.23784292
  PAW double counting   =      8222.25842165    -5577.12514308
  entropy T*S    EENTRO =        -0.00000000
  eigenvalues    EBANDS =     -1247.70919599
  atomic energy  EATOM  =     11953.08265402
  Solvation  Ediel_sol  =         0.00000000
  ---------------------------------------------------
  free energy    TOTEN  =      -323.51708703 eV

  energy without entropy =     -323.51708703  energy(sigma->0) =     -323.51708703


--------------------------------------------------------------------------------------------------------




--------------------------------------- Iteration      1(  18)  ---------------------------------------


    POTLOK:  cpu time    0.3044: real time    0.3047
    SETDIJ:  cpu time    0.0119: real time    0.0119
    EDDIAG:  cpu time    2.5620: real time    2.5772
  RMM-DIIS:  cpu time   42.8908: real time   43.0001
    ORTHCH:  cpu time    0.2206: real time    0.2211
       DOS:  cpu time    0.0004: real time    0.0004
    CHARGE:  cpu time    1.1839: real time    1.1850
    MIXING:  cpu time    0.0085: real time    0.0085
    --------------------------------------------
      LOOP:  cpu time   47.1825: real time   47.3090

 eigenvalue-minimisations  :  2099
 total energy-change (2. order) :-0.1409895E-02  (-0.4825538E-04)
 number of electron     323.9999998 magnetization 
 augmentation part      -21.2384577 magnetization 

 Broyden mixing:
  rms(total) = 0.17825E-02    rms(broyden)= 0.17825E-02
  rms(prec ) = 0.21540E-02
  weight for this iteration     100.00

 eigenvalues of (default mixing * dielectric matrix)
  average eigenvalue GAMMA=   1.4143
  5.1397  2.8421  2.3330  1.6591  1.6591  0.9265  0.8186  0.8186  0.5873  0.4632
  0.3626  0.3961  0.3795

 Free energy of the ion-electron system (eV)
  ---------------------------------------------------
  alpha Z        PSCENC =       240.85259664
  Ewald energy   TEWEN  =     61312.58192053
  -Hartree energ DENC   =    -73139.01413953
  -exchange      EXHF   =         0.00000000
  -V(xc)+E(xc)   XCENC  =     -2091.22497429
  PAW double counting   =      8221.39627664    -5576.26635515
  entropy T*S    EENTRO =        -0.00000000
  eigenvalues    EBANDS =     -1244.92647579
  atomic energy  EATOM  =     11953.08265402
  Solvation  Ediel_sol  =         0.00000000
  ---------------------------------------------------
  free energy    TOTEN  =      -323.51849693 eV

  energy without entropy =     -323.51849693  energy(sigma->0) =     -323.51849693


--------------------------------------------------------------------------------------------------------




--------------------------------------- Iteration      1(  19)  ---------------------------------------


    POTLOK:  cpu time    0.3096: real time    0.3112
    SETDIJ:  cpu time    0.0130: real time    0.0131
    EDDIAG:  cpu time    2.5812: real time    2.5924
  RMM-DIIS:  cpu time   48.2505: real time   48.3729
    ORTHCH:  cpu time    0.2158: real time    0.2160
       DOS:  cpu time    0.0004: real time    0.0004
    CHARGE:  cpu time    1.1844: real time    1.1879
    MIXING:  cpu time    0.0087: real time    0.0087
    --------------------------------------------
      LOOP:  cpu time   52.5636: real time   52.7025

 eigenvalue-minimisations  :  2373
 total energy-change (2. order) :-0.4532896E-03  (-0.1000189E-04)
 number of electron     323.9999998 magnetization 
 augmentation part      -21.2367624 magnetization 

 Broyden mixing:
  rms(total) = 0.14362E-02    rms(broyden)= 0.14362E-02
  rms(prec ) = 0.17086E-02
  weight for this iteration     100.00

 eigenvalues of (default mixing * dielectric matrix)
  average eigenvalue GAMMA=   1.5045
  6.2074  3.0233  2.3872  1.8891  1.8891  0.9674  0.9674  0.8093  0.8093  0.5970
  0.3978  0.3623  0.3839  0.3728

 Free energy of the ion-electron system (eV)
  ---------------------------------------------------
  alpha Z        PSCENC =       240.85259664
  Ewald energy   TEWEN  =     61312.58192053
  -Hartree energ DENC   =    -73139.67361818
  -exchange      EXHF   =         0.00000000
  -V(xc)+E(xc)   XCENC  =     -2091.22307241
  PAW double counting   =      8221.42679048    -5576.29641168
  entropy T*S    EENTRO =        -0.00000000
  eigenvalues    EBANDS =     -1244.26980962
  atomic energy  EATOM  =     11953.08265402
  Solvation  Ediel_sol  =         0.00000000
  ---------------------------------------------------
  free energy    TOTEN  =      -323.51895022 eV

  energy without entropy =     -323.51895022  energy(sigma->0) =     -323.51895022


--------------------------------------------------------------------------------------------------------




--------------------------------------- Iteration      1(  20)  ---------------------------------------


    POTLOK:  cpu time    0.3145: real time    0.3148
    SETDIJ:  cpu time    0.0141: real time    0.0141
    EDDIAG:  cpu time    2.5889: real time    2.5918
  RMM-DIIS:  cpu time   41.9427: real time   42.0740
    ORTHCH:  cpu time    0.2212: real time    0.2215
       DOS:  cpu time    0.0004: real time    0.0004
    CHARGE:  cpu time    1.1832: real time    1.1844
    MIXING:  cpu time    0.0089: real time    0.0089
    --------------------------------------------
      LOOP:  cpu time   46.2739: real time   46.4098

 eigenvalue-minimisations  :  2045
 total energy-change (2. order) :-0.5482617E-03  (-0.9490700E-05)
 number of electron     323.9999998 magnetization 
 augmentation part      -21.2350111 magnetization 

 Broyden mixing:
  rms(total) = 0.71104E-03    rms(broyden)= 0.71104E-03
  rms(prec ) = 0.81989E-03
  weight for this iteration     100.00

 eigenvalues of (default mixing * dielectric matrix)
  average eigenvalue GAMMA=   1.5133
  6.6454  3.1693  2.4589  1.8596  1.8596  1.0836  1.0836  0.8054  0.8054  0.8095
  0.6048  0.3969  0.3854  0.3618  0.3705

 Free energy of the ion-electron system (eV)
  ---------------------------------------------------
  alpha Z        PSCENC =       240.85259664
  Ewald energy   TEWEN  =     61312.58192053
  -Hartree energ DENC   =    -73140.19023140
  -exchange      EXHF   =         0.00000000
  -V(xc)+E(xc)   XCENC  =     -2091.22440932
  PAW double counting   =      8222.00551253    -5576.87273026
  entropy T*S    EENTRO =        -0.00000000
  eigenvalues    EBANDS =     -1243.75481123
  atomic energy  EATOM  =     11953.08265402
  Solvation  Ediel_sol  =         0.00000000
  ---------------------------------------------------
  free energy    TOTEN  =      -323.51949848 eV

  energy without entropy =     -323.51949848  energy(sigma->0) =     -323.51949848


--------------------------------------------------------------------------------------------------------




--------------------------------------- Iteration      1(  21)  ---------------------------------------


    POTLOK:  cpu time    0.3064: real time    0.3066
    SETDIJ:  cpu time    0.0123: real time    0.0123
    EDDIAG:  cpu time    2.5964: real time    2.5995
  RMM-DIIS:  cpu time   43.7086: real time   43.8110
    ORTHCH:  cpu time    0.2169: real time    0.2171
       DOS:  cpu time    0.0004: real time    0.0004
    CHARGE:  cpu time    1.1878: real time    1.1889
    MIXING:  cpu time    0.0089: real time    0.0089
    --------------------------------------------
      LOOP:  cpu time   48.0377: real time   48.1449

 eigenvalue-minimisations  :  2147
 total energy-change (2. order) :-0.1635708E-03  (-0.2718655E-05)
 number of electron     323.9999998 magnetization 
 augmentation part      -21.2362665 magnetization 

 Broyden mixing:
  rms(total) = 0.45780E-03    rms(broyden)= 0.45780E-03
  rms(prec ) = 0.55145E-03
  weight for this iteration     100.00

 eigenvalues of (default mixing * dielectric matrix)
  average eigenvalue GAMMA=   1.5560
  7.2559  3.4397  2.5487  1.9781  1.7957  1.7957  0.9754  0.9754  0.8072  0.8072
  0.6013  0.3997  0.3997  0.3859  0.3621  0.3680

 Free energy of the ion-electron system (eV)
  ---------------------------------------------------
  alpha Z        PSCENC =       240.85259664
  Ewald energy   TEWEN  =     61312.58192053
  -Hartree energ DENC   =    -73140.32943199
  -exchange      EXHF   =         0.00000000
  -V(xc)+E(xc)   XCENC  =     -2091.22600929
  PAW double counting   =      8222.19372941    -5577.06111492
  entropy T*S    EENTRO =        -0.00000000
  eigenvalues    EBANDS =     -1243.61400645
  atomic energy  EATOM  =     11953.08265402
  Solvation  Ediel_sol  =         0.00000000
  ---------------------------------------------------
  free energy    TOTEN  =      -323.51966205 eV

  energy without entropy =     -323.51966205  energy(sigma->0) =     -323.51966205


--------------------------------------------------------------------------------------------------------




--------------------------------------- Iteration      1(  22)  ---------------------------------------


    POTLOK:  cpu time    0.3086: real time    0.3089
    SETDIJ:  cpu time    0.0121: real time    0.0121
    EDDIAG:  cpu time    2.5790: real time    2.5862
  RMM-DIIS:  cpu time   45.1720: real time   45.3066
    ORTHCH:  cpu time    0.2172: real time    0.2176
       DOS:  cpu time    0.0004: real time    0.0004
    CHARGE:  cpu time    1.1880: real time    1.1931
    MIXING:  cpu time    0.0092: real time    0.0092
    --------------------------------------------
      LOOP:  cpu time   49.4863: real time   49.6341

 eigenvalue-minimisations  :  2131
 total energy-change (2. order) :-0.1432355E-03  (-0.1534890E-05)
 number of electron     323.9999998 magnetization 
 augmentation part      -21.2383422 magnetization 

 Broyden mixing:
  rms(total) = 0.48553E-03    rms(broyden)= 0.48553E-03
  rms(prec ) = 0.53623E-03
  weight for this iteration     100.00

 eigenvalues of (default mixing * dielectric matrix)
  average eigenvalue GAMMA=   1.5942
  7.5622  3.5414  2.5139  2.5139  1.8824  1.8824  1.0333  1.0279  1.0279  0.8039
  0.8039  0.6014  0.3983  0.3983  0.3820  0.3618  0.3660

[...]
  0.000   0.000   0.000  -0.000  -0.000   0.011   0.000   0.000
 -0.000   0.000  -0.000   0.000  -0.000   0.000   0.011   0.000
 -0.000   0.000  -0.000  -0.000   0.000   0.000   0.000   0.011
  0.001   0.000  -0.000  -0.000   0.000   0.000  -0.000   0.000
 -0.000   0.000  -0.013  -0.001  -0.000  -0.000   0.000  -0.000
 -0.009  -0.000   0.000  -0.018   0.000  -0.000  -0.000  -0.000
  0.000   0.000  -0.000  -0.000  -0.013  -0.000   0.000  -0.000
 -0.000  -0.000   0.001  -0.000  -0.000   0.000   0.000   0.000
 total augmentation occupancy for first ion, spin component:           1
  1.936   0.188  -0.004   0.200   0.002   0.002   0.034   0.002  -0.001   0.000   0.006   0.001   0.002
  0.188   1.306   0.002  -0.914  -0.006   0.001   0.353   0.005   0.006  -0.001  -0.023   0.002  -0.003
 -0.004   0.002   1.328   0.009  -0.004  -0.457   0.002   0.003  -0.003  -0.111   0.000   0.000  -0.044
  0.200  -0.914   0.009   1.491  -0.003   0.002  -0.526  -0.006   0.002  -0.000  -0.036  -0.002  -0.005
  0.002  -0.006  -0.004  -0.003   1.334   0.003  -0.007  -0.472  -0.042   0.000  -0.002  -0.115   0.001
  0.002   0.001  -0.457   0.002   0.003   0.291  -0.001   0.005   0.001   0.035  -0.001  -0.001   0.007
  0.034   0.353   0.002  -0.526  -0.007  -0.001   0.272   0.002  -0.000   0.000   0.042   0.001   0.000
  0.002   0.005   0.003  -0.006  -0.472   0.005   0.002   0.288   0.008  -0.001   0.000   0.037  -0.001
 -0.001   0.006  -0.003   0.002  -0.042   0.001  -0.000   0.008   0.020   0.000  -0.001  -0.000  -0.000
  0.000  -0.001  -0.111  -0.000   0.000   0.035   0.000  -0.001   0.000   0.017   0.000   0.000  -0.000
  0.006  -0.023   0.000  -0.036  -0.002  -0.001   0.042   0.000  -0.001   0.000   0.018   0.000   0.000
  0.001   0.002   0.000  -0.002  -0.115  -0.001   0.001   0.037  -0.000   0.000   0.000   0.017   0.000
  0.002  -0.003  -0.044  -0.005   0.001   0.007   0.000  -0.001  -0.000  -0.000   0.000   0.000   0.019


------------------------ aborting loop because EDIFF is reached ----------------------------------------


    CHARGE:  cpu time    1.1870: real time    1.1907
    FORLOC:  cpu time    0.0805: real time    0.0805
    FORNL :  cpu time   13.8223: real time   13.8624
    STRESS:  cpu time   73.5669: real time   73.7661
    FORCOR:  cpu time    0.3423: real time    0.3448
    FORHAR:  cpu time    0.1399: real time    0.1401
    MIXING:  cpu time    0.0077: real time    0.0077
    OFIELD:  cpu time    0.0000: real time    0.0000

  Number of pair interactions contributing to vdW energy:  265086
  Edisp (eV):  -18.80204
    FORVDW:  cpu time    0.0292: real time    0.0292

  FORCE on cell =-STRESS in cart. coord.  units (eV):
  Direction    XX          YY          ZZ          XY          YZ          ZX
  --------------------------------------------------------------------------------------
  Alpha Z   240.85260   240.85260   240.85260
  Ewald   70454.09739 70515.15472-79575.36183    74.80017     9.26922    -6.36236
  Hartree 72828.61288 72847.57036-72457.39456    20.96553    -1.43738    -2.01781
  E(xc)   -1348.61205 -1349.30742 -1367.14981    -1.03711    -0.87743    -0.01738
  Local  ************************146984.25835   -93.12068    -8.51262     8.10535
  n-local  3538.63753  3536.08557  3717.00095    -0.38724     6.44002     0.17099
  augment  -761.32383  -759.65948  -800.39114     1.42458    -1.24152    -0.11373
  Kinetic  3273.99567  3288.30298  3233.56572    14.29600     1.26341    -1.10580
  Fock        0.00000     0.00000     0.00000     0.00000     0.00000     0.00000
  vdW       -11.86349   -11.68732    -9.34045     0.11394    -0.73719    -0.21419
  -------------------------------------------------------------------------------------
  Total     -20.83618    -5.84449   -33.96018    17.05518     4.16650    -1.55491
  in kB     -11.20360    -3.14258   -18.26036     9.17056     2.24033    -0.83608
  external pressure =      -10.87 kB  Pullay stress =        0.00 kB

  kinetic pressure (ideal gas correction) =      0.23 kB
  total pressure  =    -10.63 kB
  Total+kin.   -11.020      -2.956     -17.928       9.200       2.244      -0.830

 VOLUME and BASIS-vectors are now :
 -----------------------------------------------------------------------------
  energy-cutoff  :      550.00
  volume of cell :     2979.69
      direct lattice vectors                 reciprocal lattice vectors
    10.672732200  0.000000000  0.000000000     0.093696720  0.058258038  0.000374376
    -5.660831746  9.104346511  0.000000000     0.000000000  0.109837647  0.000975085
     0.046739138 -0.272231194 30.665267403     0.000000000  0.000000000  0.032610184

  length of vectors
    10.672732200 10.720734184 30.666511365     0.110332291  0.109841975  0.032610184


 FORCES acting on ions
    electron-ion (+dipol)            ewald-force                    non-local-force                 convergence-correction
 -----------------------------------------------------------------------------------------------
   -.922E+00 -.430E+00 -.823E+03   0.879E+00 0.450E+00 0.828E+03   0.146E-01 0.215E+00 -.568E+01   0.575E-03 0.874E-03 0.140E-03
   -.175E+01 0.155E+01 -.825E+03   0.175E+01 -.155E+01 0.830E+03   0.665E-01 -.195E-01 -.553E+01   0.764E-03 0.911E-03 -.802E-03
   -.257E+01 -.404E+00 -.824E+03   0.255E+01 0.417E+00 0.829E+03   0.215E+00 0.763E-01 -.585E+01   0.620E-03 -.673E-03 -.837E-03
   -.153E+00 -.571E+00 -.824E+03   0.376E-01 0.585E+00 0.829E+03   0.235E+00 0.159E+00 -.526E+01   0.788E-03 -.562E-03 -.508E-03
   -.135E+01 0.917E+00 -.825E+03   0.130E+01 -.947E+00 0.830E+03   0.183E+00 0.124E+00 -.593E+01   -.630E-03 0.706E-03 -.961E-03
   -.118E+01 0.202E+01 -.825E+03   0.110E+01 -.210E+01 0.831E+03   0.238E+00 -.223E-03 -.576E+01   -.125E-03 -.139E-03 -.179E-02
   -.354E+01 -.181E+01 -.828E+03   0.355E+01 0.177E+01 0.833E+03   0.177E+00 0.441E+00 -.556E+01   -.138E-02 -.508E-03 0.156E-03
   -.623E+00 0.126E+01 -.828E+03   0.545E+00 -.130E+01 0.833E+03   -.209E-01 -.278E-01 -.568E+01   -.819E-04 0.477E-03 0.875E-04
   -.951E+00 -.114E+01 -.824E+03   0.861E+00 0.106E+01 0.830E+03   -.606E-02 0.293E+00 -.558E+01   -.520E-03 -.131E-02 -.356E-03
   -.220E+01 -.187E+00 0.100E+03   0.216E+01 0.137E+00 -.949E+02   0.223E+00 0.117E+00 -.583E+01   0.730E-03 0.806E-03 0.118E-02
   -.455E+01 -.208E+01 0.100E+03   0.456E+01 0.218E+01 -.947E+02   0.325E+00 0.192E+00 -.563E+01   0.932E-04 0.627E-04 0.121E-03
   -.136E+01 0.268E+00 0.100E+03   0.133E+01 -.273E+00 -.949E+02   0.109E+00 0.562E-01 -.577E+01   -.100E-02 -.886E-03 -.171E-03
   -.350E+01 -.264E+01 0.988E+02   0.349E+01 0.265E+01 -.936E+02   0.314E+00 0.315E+00 -.581E+01   0.436E-03 0.870E-03 -.210E-04
   -.170E+01 -.112E+01 0.991E+02   0.169E+01 0.116E+01 -.939E+02   0.238E+00 0.248E+00 -.587E+01   0.590E-03 0.105E-02 -.133E-02
   -.742E+00 0.396E+01 0.101E+03   0.699E+00 -.396E+01 -.953E+02   0.944E-01 -.293E+00 -.562E+01   0.130E-02 -.463E-03 -.914E-03
   0.386E+00 -.881E+00 0.101E+03   -.439E+00 0.873E+00 -.961E+02   -.294E-01 0.161E+00 -.586E+01   -.109E-02 0.231E-03 0.858E-03
   0.111E+01 0.889E+00 0.983E+02   -.118E+01 -.901E+00 -.932E+02   -.549E-01 0.825E-01 -.578E+01   -.783E-03 0.877E-03 -.814E-03
   -.311E+01 0.184E+01 0.100E+03   0.308E+01 -.186E+01 -.950E+02   0.400E+00 0.374E-01 -.564E+01   -.342E-03 -.251E-02 -.627E-03
   -.468E+01 0.834E+00 -.101E+03   0.468E+01 -.806E+00 0.952E+02   0.272E+00 -.382E-03 0.570E+01   0.502E-03 0.981E-03 -.374E-03
   -.611E+00 -.302E+00 -.980E+02   0.553E+00 0.367E+00 0.928E+02   0.134E+00 -.183E+00 0.577E+01   0.841E-03 0.883E-03 0.527E-03
   -.148E+01 0.245E+01 -.104E+03   0.144E+01 -.241E+01 0.983E+02   0.134E+00 -.436E+00 0.585E+01   0.758E-03 -.655E-03 0.860E-03
   0.182E+01 0.249E+01 -.991E+02   -.193E+01 -.250E+01 0.938E+02   0.435E-01 -.223E+00 0.556E+01   0.765E-03 -.545E-03 0.372E-03
   -.301E+00 0.362E+01 -.986E+02   0.212E+00 -.364E+01 0.934E+02   0.137E+00 -.336E+00 0.574E+01   -.668E-03 0.886E-03 0.480E-03
   0.573E+00 0.162E+01 -.979E+02   -.661E+00 -.164E+01 0.927E+02   0.189E+00 -.173E+00 0.595E+01   -.149E-04 -.295E-03 0.134E-02
   -.129E+01 0.467E+00 -.984E+02   0.126E+01 -.481E+00 0.932E+02   0.323E-01 -.367E-01 0.560E+01   -.128E-02 -.452E-03 -.325E-03
   -.317E+01 -.165E+01 -.979E+02   0.315E+01 0.169E+01 0.927E+02   0.146E+00 -.779E-01 0.574E+01   -.170E-03 0.446E-03 -.145E-03
   -.358E+01 0.496E+00 -.992E+02   0.354E+01 -.556E+00 0.939E+02   0.128E+00 -.217E-01 0.569E+01   -.723E-03 -.140E-02 -.170E-05
   0.191E+00 -.779E+00 0.823E+03   -.271E+00 0.785E+00 -.828E+03   0.319E-01 0.240E-01 0.577E+01   0.844E-03 0.770E-03 -.985E-03
   -.202E+01 0.290E+01 0.824E+03   0.202E+01 -.287E+01 -.829E+03   -.987E-02 -.173E+00 0.565E+01   0.222E-03 0.152E-03 -.142E-03
   0.261E+00 0.252E+00 0.826E+03   -.340E+00 -.226E+00 -.831E+03   0.628E-01 -.103E+00 0.577E+01   -.861E-03 -.904E-03 -.832E-04
   -.246E+01 -.194E+01 0.823E+03   0.239E+01 0.199E+01 -.828E+03   0.293E+00 0.591E-03 0.576E+01   0.427E-03 0.797E-03 0.174E-03
   -.161E+01 0.331E+01 0.823E+03   0.156E+01 -.328E+01 -.829E+03   0.189E+00 -.234E+00 0.577E+01   0.534E-03 0.118E-02 0.154E-02
   -.224E+01 0.898E+00 0.825E+03   0.217E+01 -.810E+00 -.830E+03   0.260E+00 -.229E+00 0.563E+01   0.113E-02 -.568E-03 0.696E-03
   -.284E+01 0.102E+01 0.824E+03   0.276E+01 -.953E+00 -.829E+03   0.253E+00 -.356E+00 0.589E+01   -.118E-02 0.357E-03 -.663E-03
   -.181E+00 0.195E+01 0.827E+03   0.103E+00 -.193E+01 -.832E+03   0.587E-01 -.188E+00 0.578E+01   -.707E-03 0.888E-03 0.928E-03
   -.360E+01 -.521E-01 0.827E+03   0.351E+01 0.147E+00 -.832E+03   0.501E+00 -.190E+00 0.559E+01   -.342E-03 -.254E-02 0.583E-03
   0.512E+00 -.419E+00 -.461E+03   -.627E+00 0.390E+00 0.461E+03   0.141E+00 -.345E+00 0.183E+00   -.476E-03 -.531E-03 0.955E-04
   0.181E+01 -.223E+01 -.466E+03   -.185E+01 0.224E+01 0.466E+03   -.243E-01 -.484E-01 -.145E+00   0.457E-04 0.623E-03 -.416E-04
   -.359E+00 -.192E+01 -.463E+03   0.314E+00 0.185E+01 0.463E+03   0.206E+00 0.177E+00 -.204E+00   0.112E-03 -.306E-03 0.570E-04
   0.490E+01 0.560E+00 -.464E+03   -.498E+01 -.525E+00 0.464E+03   -.331E+00 -.139E+00 -.241E+00   0.105E-02 -.326E-03 0.385E-04
   0.478E+00 -.822E+00 -.459E+03   -.499E+00 0.897E+00 0.459E+03   -.607E-01 -.127E+00 0.128E+00   0.304E-03 0.150E-02 0.837E-04
   0.394E+01 -.302E+01 -.462E+03   -.395E+01 0.304E+01 0.462E+03   -.365E+00 0.350E+00 -.131E+00   0.904E-03 0.362E-03 0.381E-05
   0.317E+01 0.252E+01 -.462E+03   -.320E+01 -.259E+01 0.462E+03   -.130E+00 -.169E+00 -.148E+00   -.499E-03 -.102E-02 0.909E-04
   0.573E+01 -.359E+01 -.461E+03   -.582E+01 0.375E+01 0.461E+03   -.173E+00 0.118E+00 0.206E+00   -.317E-03 0.172E-03 0.709E-04
   0.537E+01 0.505E-01 -.462E+03   -.552E+01 -.592E-01 0.462E+03   -.291E+00 0.114E-01 0.139E+00   -.985E-03 -.387E-03 -.381E-04
   0.410E+01 -.167E+01 0.461E+03   -.421E+01 0.162E+01 -.461E+03   -.284E+00 -.916E-01 -.560E-01   0.374E-03 -.834E-04 -.245E-03
   0.160E+01 -.355E+00 0.460E+03   -.165E+01 0.341E+00 -.460E+03   -.584E-01 -.118E+00 -.147E+00   0.116E-02 0.155E-02 -.202E-03
   0.184E+01 -.338E+00 0.462E+03   -.191E+01 0.368E+00 -.462E+03   0.326E-01 0.789E-01 0.811E-01   0.465E-03 -.279E-03 -.182E-03
   0.217E+01 -.546E+01 0.462E+03   -.224E+01 0.561E+01 -.462E+03   -.104E+00 0.380E+00 -.954E-01   -.702E-04 -.245E-03 -.142E-03
   0.278E+01 -.307E+00 0.460E+03   -.278E+01 0.329E+00 -.460E+03   -.170E+00 -.186E+00 -.949E-01   -.575E-04 0.146E-02 -.170E-03
   0.412E+01 0.203E+01 0.463E+03   -.424E+01 -.207E+01 -.463E+03   -.428E+00 -.764E-01 0.120E+00   0.560E-03 -.110E-02 -.950E-04
   0.256E+01 -.364E+01 0.465E+03   -.261E+01 0.365E+01 -.465E+03   -.239E+00 0.287E+00 -.108E+00   -.424E-03 -.124E-02 -.826E-04
   0.408E+01 0.182E+01 0.462E+03   -.424E+01 -.183E+01 -.462E+03   0.329E-01 -.525E-01 -.194E+00   -.103E-02 0.918E-03 -.145E-03
   0.400E+01 -.169E+01 0.465E+03   -.411E+01 0.170E+01 -.465E+03   -.197E+00 0.156E+00 0.617E-01   -.102E-02 -.132E-02 -.219E-04
 -----------------------------------------------------------------------------------------------
   -.314E+01 0.555E+00 0.898E-01   0.853E-13 -.115E-13 0.358E-11   0.313E+01 -.554E+00 -.864E-01   0.123E-03 -.445E-03 -.274E-02
 
 
 POSITION                                       TOTAL-FORCE (eV/Angst)
 -----------------------------------------------------------------------------------
      1.77786      0.81392     20.91079        -0.024338      0.227437     -0.387286
     -0.10513      3.84852     20.92385         0.074082     -0.023374     -0.341377
     -2.00609      6.87884     20.93302         0.197796      0.076713     -0.523203
      5.33919      0.82727     20.89352         0.127021      0.170427     -0.001456
      3.43869      3.85835     20.94683         0.129411      0.089605     -0.767702
      1.55423      6.90190     20.94027         0.165858     -0.071229     -0.580034
      8.87319      0.78496     20.93568         0.176432      0.380206     -0.386859
      7.01296      3.86283     20.94690        -0.089637     -0.069275     -0.511314
      5.12605      6.88881     20.91557        -0.088688      0.208441     -0.340403
      9.42859      1.90772     13.43942         0.186699      0.080834     -0.497313
      7.51131      4.92948     13.41814         0.326797      0.293545     -0.257330
     -5.01442      7.98525     13.42430         0.090933      0.061219     -0.444496
      2.31179      1.89404     13.44126         0.313381      0.325207     -0.477260
      0.41902      4.93032     13.44724         0.231950      0.300040     -0.572578
     -1.45339      8.00021     13.40457         0.064739     -0.269632     -0.223743
      5.90355      1.88766     13.42971        -0.064021      0.157121     -0.516068
      4.01510      4.95967     13.44799        -0.098484      0.091143     -0.545378
      2.08199      7.97367     13.42403         0.377044      0.026003     -0.392847
      1.75501      0.83960     17.24883         0.266546      0.008515      0.300993
     -0.12892      3.87715     17.22655         0.066284     -0.138141      0.485082
     -2.00352      6.94593     17.26875         0.091293     -0.400460      0.395319
      5.34570      0.86306     17.25561        -0.060246     -0.232967      0.175521
      3.44416      3.91746     17.22667         0.044925     -0.351704      0.452648
      1.54882      6.92767     17.21599         0.095709     -0.202476      0.643423
      8.87923      0.85466     17.24262        -0.009398     -0.062030      0.308018
      6.99795      3.88134     17.23002         0.121049     -0.050858      0.459380
      5.11506      6.92452     17.24317         0.080398     -0.095361      0.312712
     -1.21504      1.92479      9.74168        -0.037627      0.026336      0.559891
     -3.12221      4.96508      9.74267        -0.004073     -0.139737      0.453219
     -5.00322      8.01539      9.71771        -0.011098     -0.074248      0.600867
      2.31238      1.93683      9.73741         0.224385      0.053082      0.578737
      0.42403      4.98003      9.73067         0.143187     -0.197046      0.608307
     -1.47276      8.00447      9.73613         0.180402     -0.140855      0.407754
      5.86293      1.95461      9.72564         0.170921     -0.274109      0.678658
      3.99838      4.98255      9.70840        -0.012791     -0.150806      0.682088
      2.06642      8.00800      9.71808         0.402693     -0.098650      0.446875
     10.67517     -0.14906     19.06946         0.045693     -0.374294      0.266984
      8.80198      2.86232     19.09922        -0.069545     -0.037777     -0.117815
      6.90365      5.88334     19.10040         0.186223      0.149433     -0.289296
      3.60188     -0.15917     19.10332        -0.436688     -0.130065     -0.293298
      1.69514      2.87547     19.06726        -0.074733     -0.061964      0.139881
     -0.16502      5.86717     19.09290        -0.397619      0.404320     -0.163919
      7.14372     -0.16599     19.08856        -0.182573     -0.254786     -0.207973
      5.26433      2.86635     19.06923        -0.279007      0.270694      0.302585
      3.38092      5.90830     19.07421        -0.448123      0.001445      0.217683
      0.59241      0.92477     11.58980        -0.401388     -0.139570     -0.079108
     -1.32049      3.95691     11.59770        -0.107429     -0.132697     -0.200411
     -3.21483      6.97741     11.57146        -0.037375      0.110958      0.146932
      4.13177      0.89281     11.58546        -0.170599      0.542281     -0.155737
      2.25873      3.97043     11.59451        -0.197021     -0.180680     -0.100229
      0.37293      6.98758     11.57043        -0.565405     -0.125599      0.170007
      7.70648      0.89077     11.58289        -0.300802      0.316065     -0.186281
      5.78512      3.95102     11.59254        -0.117356     -0.076471     -0.281339
      3.92081      6.98229     11.56670        -0.298649      0.186140      0.049185
 -----------------------------------------------------------------------------------
    total drift:                               -0.002858      0.000345      0.000699


--------------------------------------------------------------------------------------------------------



  FREE ENERGIE OF THE ION-ELECTRON SYSTEM (eV)
  ---------------------------------------------------
  free  energy   TOTEN  =      -342.28450424 eV

  energy  without entropy=     -342.28450424  energy(sigma->0) =     -342.28450424
 
 d Force =-0.5142796E-02[-0.721E-02,-0.307E-02]  d Energy =-0.5062287E-02-0.805E-04
 d Force =-0.1755648E+02[-0.176E+02,-0.176E+02]  d Ewald  =-0.1755648E+02 0.263E-05


--------------------------------------------------------------------------------------------------------


    POTLOK:  cpu time    0.3289: real time    0.3292


--------------------------------------------------------------------------------------------------------


           RANDOM_SEED =         156983794              324                0
   IONSTEP:  cpu time    0.0001: real time    0.0001

  ENERGY OF THE ELECTRON-ION-THERMOSTAT SYSTEM (eV)
  ---------------------------------------------------
% ion-electron   TOTEN  =      -342.284504  see above
  kinetic energy EKIN   =         0.653056
  kin. lattice  EKIN_LAT=         0.000000  (temperature   95.33 K)
  nose potential ES     =        -0.013023
  nose kinetic   EPS    =         0.000496
  ---------------------------------------------------
  total energy   ETOTAL =      -341.643976 eV

  maximum distance moved by ions :      0.57E-03


 mean value of Nose-termostat <S>:     0.987 mean value of <T> :    95.325
 mean temperature <T/S>/<1/S>  :    95.325

    WAVPRE:  cpu time    0.1072: real time    0.1126
    FEWALD:  cpu time    0.0012: real time    0.0012
    ORTHCH:  cpu time    8.2445: real time    8.2668
    POTLOK:  cpu time    0.3236: real time    0.3239
    EDDIAG:  cpu time    2.5954: real time    2.6022
     LOOP+:  cpu time  487.5537: real time  488.9593
    4ORBIT:  cpu time    0.0000: real time    0.0000

 total amount of memory used by VASP MPI-rank0   377819. kBytes
=======================================================================

   base      :      30000. kBytes
   nonl-proj :     201277. kBytes
   fftplans  :      19943. kBytes
   grid      :      90496. kBytes
   one-center:        839. kBytes
   wavefun   :      35264. kBytes
 
  
  
 General timing and accounting informations for this job:
 ========================================================
  
                  Total CPU time used (sec):     5910.697
                            User time (sec):     5897.559
                          System time (sec):       13.139
                         Elapsed time (sec):     5927.070
  
                   Maximum memory used (kb):      832936.
                   Average memory used (kb):           0.
  
                          Minor page faults:       407144
                          Major page faults:            0
                 Voluntary context switches:          792
