-3.347551777699999889e+02
-3.347505034199999727e+02
-3.347392388900000242e+02
-3.347220420300000114e+02
-3.346989979900000094e+02
-3.346708480699999768e+02
-3.346384497799999735e+02
-3.346024808399999984e+02
-3.345638860899999827e+02
-3.345235484599999722e+02
-3.342860383799999795e+02
-3.342856047099999728e+02
-3.342806961399999750e+02
-3.342713501999999721e+02
-3.342577113099999906e+02
-3.342403053599999794e+02
-3.342197610800000120e+02
-3.341964874999999893e+02
-3.341712185399999839e+02
-3.341446543499999962e+02
-3.339121820500000126e+02
-3.339115687299999991e+02
-3.339084721300000069e+02
-3.339029793299999938e+02
-3.338954333199999951e+02
-3.338862470799999755e+02
-3.338761287400000128e+02
-3.338653609500000243e+02
-3.338544077700000230e+02
-3.338436624500000107e+02
-3.338350958999999989e+02
-3.338280225600000222e+02
-3.338210494100000005e+02
-3.338144201700000053e+02
-3.338083479300000249e+02
-3.338029494900000032e+02
-3.337984433500000137e+02
-3.337948218099999735e+02
-3.337921312799999782e+02
-3.337905710200000158e+02
-3.342020179799999937e+02
-3.341991463300000191e+02
-3.341945328200000063e+02
-3.341884295599999746e+02
-3.341806999099999871e+02
-3.341716315900000041e+02
-3.341615430400000264e+02
-3.341507158100000083e+02
-3.341395045599999776e+02
-3.341281623799999920e+02
-3.344915082699999971e+02
-3.344802645299999995e+02
-3.344663050500000168e+02
-3.344500752600000055e+02
-3.344318097899999884e+02
-3.344118826800000193e+02
-3.343907245999999986e+02
-3.343685094100000015e+02
-3.343457577199999946e+02
-3.343229573400000163e+02
-3.339693607599999723e+02
-3.339657565699999964e+02
-3.339589401700000053e+02
-3.339491256300000259e+02
-3.339363990900000090e+02
-3.339215874299999882e+02
-3.339047855200000186e+02
-3.338864276200000063e+02
-3.338670902599999977e+02
-3.338474980500000129e+02
-3.343055234700000256e+02
-3.343100004899999931e+02
-3.343095604499999922e+02
-3.343043834399999810e+02
-3.342949375200000190e+02
-3.342813282500000014e+02
-3.342641666100000180e+02
-3.342438829899999746e+02
-3.342214256799999816e+02
-3.341974647200000277e+02
-3.311845886199999995e+02
-3.312007559799999967e+02
-3.312299313899999902e+02
-3.312715975300000082e+02
-3.313249986999999805e+02
-3.313894381200000225e+02
-3.314638135199999738e+02
-3.315470486699999810e+02
-3.316378020799999717e+02
-3.317334571600000004e+02
-3.337926801599999749e+02
-3.337975239699999861e+02
-3.338018042599999831e+02
-3.338058158399999797e+02
-3.338093886600000246e+02
-3.338132628500000010e+02
-3.338174843900000042e+02
-3.338224330099999975e+02
-3.338283832800000255e+02
-3.338356542000000218e+02
-3.339177527900000086e+02
-3.339134189399999855e+02
-3.339072780999999850e+02
-3.338993903400000249e+02
-3.338901182100000256e+02
-3.338800896800000260e+02
-3.338697381200000223e+02
-3.338596731100000170e+02
-3.338504239700000085e+02
-3.338423030600000061e+02
-3.328519223100000204e+02
-3.328584770200000094e+02
-3.328676117499999805e+02
-3.328788817000000222e+02
-3.328925738600000273e+02
-3.329085904099999880e+02
-3.329273244999999974e+02
-3.329486121599999819e+02
-3.329728338699999881e+02
-3.330000168299999928e+02
-3.344161792200000036e+02
-3.344129118500000004e+02
-3.344038343600000189e+02
-3.343893676199999732e+02
-3.343698750799999857e+02
-3.343459035500000027e+02
-3.343184034700000211e+02
-3.342880526299999815e+02
-3.342560981899999888e+02
-3.342232832799999755e+02
-3.340013747400000170e+02
-3.339967542699999967e+02
-3.339886004900000103e+02
-3.339770209000000136e+02
-3.339626533499999823e+02
-3.339458189000000061e+02
-3.339270045499999924e+02
-3.339066629700000135e+02
-3.338857326699999817e+02
-3.338645113499999866e+02
-3.339661544200000094e+02
-3.339783625499999857e+02
-3.339882307899999887e+02
-3.339954213899999900e+02
-3.339997561800000199e+02
-3.340014972199999761e+02
-3.340007704800000283e+02
-3.339977776599999970e+02
-3.339932751700000040e+02
-3.339874771099999862e+02
-3.340720215700000040e+02
-3.340698591400000055e+02
-3.340635418499999787e+02
-3.340530849900000021e+02
-3.340388289499999814e+02
-3.340212043299999891e+02
-3.340005758300000025e+02
-3.339777117099999941e+02
-3.339532057100000202e+02
-3.339278347800000120e+02
-3.341772912299999803e+02
-3.341876127300000121e+02
-3.341947742199999993e+02
-3.341987752000000000e+02
-3.341998644399999989e+02
-3.341983348300000216e+02
-3.341948208399999771e+02
-3.341894544300000121e+02
-3.341825697900000023e+02
-3.341749396499999989e+02
-3.341283206100000029e+02
-3.341263900000000149e+02
-3.341197942699999999e+02
-3.341086011500000268e+02
-3.340932024699999943e+02
-3.340738350400000058e+02
-3.340511963999999807e+02
-3.340256930699999884e+02
-3.339982764299999758e+02
-3.339695124200000009e+02
-3.326013191399999869e+02
-3.325933989000000111e+02
-3.325890360299999884e+02
-3.325888295799999810e+02
-3.325930443899999887e+02
-3.326021983499999806e+02
-3.326164999599999987e+02
-3.326361738699999933e+02
-3.326613087800000130e+02
-3.326914123399999994e+02
-3.343686570599999754e+02
-3.343590501099999983e+02
-3.343448589500000026e+02
-3.343264951500000279e+02
-3.343043351900000175e+02
-3.342791368000000034e+02
-3.342515731799999799e+02
-3.342224772399999893e+02
-3.341921541199999979e+02
-3.341613500899999849e+02
-3.340935568599999783e+02
-3.340986630599999785e+02
-3.341017586199999982e+02
-3.341025802099999851e+02
-3.341012981399999831e+02
-3.340979838900000232e+02
-3.340926227900000072e+02
-3.340857930299999907e+02
-3.340777551900000049e+02
-3.340688482799999974e+02
-3.332324243599999818e+02
-3.332310740699999769e+02
-3.332318756899999812e+02
-3.332353380600000037e+02
-3.332414412300000208e+02
-3.332503117699999962e+02
-3.332621174799999721e+02
-3.332772550600000159e+02
-3.332958724800000141e+02
-3.333179590699999721e+02
-3.344756390200000169e+02
-3.344735785999999962e+02
-3.344658357600000045e+02
-3.344530815400000279e+02
-3.344356280800000150e+02
-3.344138813700000128e+02
-3.343884652099999926e+02
-3.343603834200000051e+02
-3.343305326000000264e+02
-3.342993981199999780e+02
-3.335954168900000241e+02
-3.335927914999999757e+02
-3.335879859600000259e+02
-3.335812787799999910e+02
-3.335730272000000127e+02
-3.335635511500000234e+02
-3.335532001500000092e+02
-3.335425472499999842e+02
-3.335323517300000162e+02
-3.335228187100000241e+02
-3.333646990500000129e+02
-3.333704649900000163e+02
-3.333771563500000070e+02
-3.333846842699999797e+02
-3.333933933000000138e+02
-3.334034819299999981e+02
-3.334149648100000149e+02
-3.334281887600000118e+02
-3.334435067200000162e+02
-3.334607497499999909e+02
-3.342324789699999883e+02
-3.342292899899999838e+02
-3.342236674700000094e+02
-3.342156474999999887e+02
-3.342055240299999923e+02
-3.341938236199999892e+02
-3.341811629200000198e+02
-3.341680926799999725e+02
-3.341555544000000282e+02
-3.341438740699999812e+02
-3.330298927200000207e+02
-3.330384248400000047e+02
-3.330432874200000128e+02
-3.330445367099999885e+02
-3.330424898800000051e+02
-3.330375153200000113e+02
-3.330303015999999730e+02
-3.330213767000000189e+02
-3.330112497800000142e+02
-3.330007567700000095e+02
-3.338118649900000037e+02
-3.338072189999999750e+02
-3.337990685799999824e+02
-3.337880159100000128e+02
-3.337741381399999909e+02
-3.337578871900000195e+02
-3.337398548200000050e+02
-3.337203332299999943e+02
-3.337000375399999825e+02
-3.336793508000000088e+02
-3.341695140300000162e+02
-3.341672861700000112e+02
-3.341626943100000062e+02
-3.341560664799999927e+02
-3.341478267200000118e+02
-3.341379927899999984e+02
-3.341273540700000240e+02
-3.341164722999999981e+02
-3.341059113599999932e+02
-3.340963422099999889e+02
-3.341469612999999867e+02
-3.341470588199999838e+02
-3.341446306199999867e+02
-3.341402069499999925e+02
-3.341337257800000202e+02
-3.341256839000000127e+02
-3.341162848399999916e+02
-3.341060274299999833e+02
-3.340954343899999799e+02
-3.340850070199999777e+02
-3.339579429899999923e+02
-3.339567027300000177e+02
-3.339526993599999969e+02
-3.339463140899999871e+02
-3.339376824099999794e+02
-3.339268777199999931e+02
-3.339146066399999881e+02
-3.339008740200000034e+02
-3.338863013800000203e+02
-3.338713318100000151e+02
-3.335644517399999813e+02
-3.335630501599999889e+02
-3.335599091400000020e+02
-3.335547713000000272e+02
-3.335479633400000239e+02
-3.335397371899999825e+02
-3.335301652100000069e+02
-3.335196146399999861e+02
-3.335086394400000245e+02
-3.334975526599999966e+02
-3.340750531699999897e+02
-3.340778604000000200e+02
-3.340756169300000238e+02
-3.340684933300000239e+02
-3.340567838299999721e+02
-3.340411646499999847e+02
-3.340226731000000200e+02
-3.340016660000000002e+02
-3.339791827099999750e+02
-3.339558676199999923e+02
-3.341509592799999950e+02
-3.341458093900000108e+02
-3.341375456399999848e+02
-3.341266618799999719e+02
-3.341137977500000034e+02
-3.340994403000000261e+02
-3.340840582399999903e+02
-3.340681440800000246e+02
-3.340524524300000166e+02
-3.340377336500000069e+02
-3.333394867000000090e+02
-3.333667267299999821e+02
-3.333967557799999781e+02
-3.334289377299999728e+02
-3.334631600000000162e+02
-3.334990623900000060e+02
-3.335363637500000209e+02
-3.335748129199999994e+02
-3.336141269099999818e+02
-3.336541211699999963e+02
-3.337224870800000076e+02
-3.337106745799999885e+02
-3.336989412300000026e+02
-3.336875635100000181e+02
-3.336769075899999848e+02
-3.336670789199999945e+02
-3.336585969500000033e+02
-3.336518132400000241e+02
-3.336471600099999932e+02
-3.336449431099999856e+02
-3.338311661600000093e+02
-3.338317307400000118e+02
-3.338329577399999835e+02
-3.338346888899999954e+02
-3.338370261900000173e+02
-3.338401226199999883e+02
-3.338438142399999720e+02
-3.338483359200000109e+02
-3.338536404600000083e+02
-3.338598410999999828e+02
-3.344564895899999897e+02
-3.344617630299999860e+02
-3.344619529899999861e+02
-3.344575300100000277e+02
-3.344484427400000186e+02
-3.344354297300000098e+02
-3.344189901799999802e+02
-3.343999075899999980e+02
-3.343788885399999913e+02
-3.343567062399999941e+02
-3.338864252999999849e+02
-3.338827015800000027e+02
-3.338753136099999779e+02
-3.338645337500000210e+02
-3.338504441499999871e+02
-3.338335161100000050e+02
-3.338141243499999860e+02
-3.337928554499999905e+02
-3.337701872100000173e+02
-3.337467241100000024e+02
-3.334439323299999955e+02
-3.334434432499999730e+02
-3.334432245799999919e+02
-3.334436685000000011e+02
-3.334447834900000203e+02
-3.334469955899999718e+02
-3.334506050499999787e+02
-3.334557429199999774e+02
-3.334627576400000066e+02
-3.334721511199999782e+02
-3.345040999099999794e+02
-3.345033006699999873e+02
-3.344975148500000159e+02
-3.344870828400000278e+02
-3.344722647400000142e+02
-3.344532054599999924e+02
-3.344307525500000224e+02
-3.344052524100000028e+02
-3.343774849000000131e+02
-3.343480252800000017e+02
-3.342558690399999932e+02
-3.342568278100000043e+02
-3.342531867899999725e+02
-3.342451361099999758e+02
-3.342328076300000248e+02
-3.342168004999999766e+02
-3.341974088900000197e+02
-3.341753244399999971e+02
-3.341513818500000070e+02
-3.341261272599999756e+02
-3.339680527300000108e+02
-3.339652277100000219e+02
-3.339587076600000159e+02
-3.339489959699999986e+02
-3.339362283599999728e+02
-3.339209231599999725e+02
-3.339036154199999942e+02
-3.338844424100000197e+02
-3.338639178500000071e+02
-3.338426354499999889e+02
-3.345633650199999920e+02
-3.345607894699999747e+02
-3.345533888900000079e+02
-3.345415104699999915e+02
-3.345253582400000028e+02
-3.345051891100000034e+02
-3.344812670900000171e+02
-3.344542976199999771e+02
-3.344249702899999761e+02
-3.343936590700000124e+02
-3.332564329599999837e+02
-3.332430719600000089e+02
-3.332323801300000241e+02
-3.332246258700000112e+02
-3.332201830199999790e+02
-3.332192977799999767e+02
-3.332223945100000151e+02
-3.332295588299999736e+02
-3.332410639500000116e+02
-3.332571427099999823e+02
-3.342661631199999874e+02
-3.342706627599999933e+02
-3.342715766900000176e+02
-3.342691858000000025e+02
-3.342636016399999903e+02
-3.342551624399999923e+02
-3.342439661700000215e+02
-3.342306965299999888e+02
-3.342160071199999720e+02
-3.342001474200000075e+02
-3.338067661300000282e+02
-3.338039361900000017e+02
-3.338007674899999984e+02
-3.337973554299999819e+02
-3.337940766199999985e+02
-3.337914578799999958e+02
-3.337896491100000276e+02
-3.337891094600000201e+02
-3.337903629200000069e+02
-3.337941047099999992e+02
-3.336598397000000205e+02
-3.336486617099999989e+02
-3.336371910099999809e+02
-3.336257206500000052e+02
-3.336146952299999953e+02
-3.336043557200000009e+02
-3.335953933399999869e+02
-3.335881214400000090e+02
-3.335828986500000042e+02
-3.335802949399999875e+02
-3.338875782700000059e+02
-3.338985348200000089e+02
-3.339063732600000094e+02
-3.339110373199999913e+02
-3.339125912100000164e+02
-3.339109830699999861e+02
-3.339063600700000052e+02
-3.338990899600000262e+02
-3.338894412399999965e+02
-3.338778268199999957e+02
-3.332933902099999841e+02
-3.332866777400000160e+02
-3.332844881400000077e+02
-3.332865972000000170e+02
-3.332931181700000138e+02
-3.333038845099999889e+02
-3.333188023399999906e+02
-3.333379920900000002e+02
-3.333610980600000175e+02
-3.333883341499999915e+02
-3.330436057000000005e+02
-3.330362918000000150e+02
-3.330265322899999774e+02
-3.330146977900000138e+02
-3.330014805600000045e+02
-3.329870095499999820e+02
-3.329720183599999928e+02
-3.329568196600000078e+02
-3.329418761100000097e+02
-3.329282688900000267e+02
-3.343593836699999997e+02
-3.343617206600000031e+02
-3.343618411400000241e+02
-3.343598520300000132e+02
-3.343557621400000244e+02
-3.343497499299999731e+02
-3.343424303300000133e+02
-3.343340653399999951e+02
-3.343248026200000140e+02
-3.343152768699999910e+02
-3.332784360800000059e+02
-3.332792069600000104e+02
-3.332763494700000138e+02
-3.332699307899999894e+02
-3.332602340600000161e+02
-3.332478295700000217e+02
-3.332336416699999972e+02
-3.332178735499999789e+02
-3.332011298799999963e+02
-3.331843041999999855e+02
-3.341743517200000042e+02
-3.341788216300000158e+02
-3.341811105300000122e+02
-3.341812657400000148e+02
-3.341798172300000260e+02
-3.341767278600000282e+02
-3.341725831900000117e+02
-3.341677781899999786e+02
-3.341625974799999881e+02
-3.341576289700000189e+02
-3.344388204800000040e+02
-3.344322898400000099e+02
-3.344221102000000201e+02
-3.344082739699999820e+02
-3.343912869900000260e+02
-3.343713784400000009e+02
-3.343491618699999890e+02
-3.343253115699999967e+02
-3.343001918400000250e+02
-3.342743462000000250e+02
-3.338643561299999760e+02
-3.338715200999999979e+02
-3.338762562399999752e+02
-3.338788958499999922e+02
-3.338792348000000061e+02
-3.338777472099999954e+02
-3.338746603199999754e+02
-3.338701775900000257e+02
-3.338646208700000102e+02
-3.338584628899999984e+02
-3.337237450499999909e+02
-3.337312025300000187e+02
-3.337336617099999785e+02
-3.337310330000000249e+02
-3.337236379999999940e+02
-3.337121494099999950e+02
-3.336972230599999989e+02
-3.336798044999999888e+02
-3.336604094799999984e+02
-3.336397352800000249e+02
-3.336622519599999919e+02
-3.336632361900000205e+02
-3.336658485099999893e+02
-3.336697874700000170e+02
-3.336751055600000200e+02
-3.336818153799999891e+02
-3.336899881900000082e+02
-3.336998180100000013e+02
-3.337113423800000191e+02
-3.337246155600000179e+02
-3.339947987200000057e+02
-3.340101085200000171e+02
-3.340234325199999716e+02
-3.340351544399999852e+02
-3.340449894999999856e+02
-3.340528382400000282e+02
-3.340587770500000033e+02
-3.340629433400000039e+02
-3.340654206099999897e+02
-3.340666500899999960e+02
-3.340833151699999917e+02
-3.340936136000000261e+02
-3.341011248799999862e+02
-3.341058509399999821e+02
-3.341076038300000164e+02
-3.341067887099999894e+02
-3.341033247500000130e+02
-3.340976495099999966e+02
-3.340899018100000148e+02
-3.340804900300000213e+02
-3.339562154500000020e+02
-3.339542665999999826e+02
-3.339475218700000028e+02
-3.339366435599999932e+02
-3.339216911899999900e+02
-3.339034062299999732e+02
-3.338823866899999757e+02
-3.338592118600000163e+02
-3.338349649500000282e+02
-3.338101210899999955e+02
-3.335134168499999987e+02
-3.335151820599999724e+02
-3.335192283200000247e+02
-3.335256278400000269e+02
-3.335341750299999717e+02
-3.335450640700000235e+02
-3.335586094399999979e+02
-3.335749142600000141e+02
-3.335939334700000245e+02
-3.336161433600000237e+02
-3.343547044599999936e+02
-3.343609875700000202e+02
-3.343635597100000041e+02
-3.343625451500000167e+02
-3.343585269999999809e+02
-3.343516312799999923e+02
-3.343423510999999735e+02
-3.343311890900000094e+02
-3.343184835900000280e+02
-3.343050620899999785e+02
-3.339934730499999773e+02
-3.339860564699999941e+02
-3.339764155500000129e+02
-3.339645735400000035e+02
-3.339513147900000263e+02
-3.339367323700000156e+02
-3.339215571600000203e+02
-3.339060708200000249e+02
-3.338909231900000236e+02
-3.338766922699999782e+02
-3.338018877900000234e+02
-3.337938962200000219e+02
-3.337818904900000234e+02
-3.337661327800000208e+02
-3.337471469999999840e+02
-3.337251731100000143e+02
-3.337007211700000084e+02
-3.336741234500000246e+02
-3.336464153699999997e+02
-3.336179251199999953e+02
-3.345764027399999918e+02
-3.345725413600000024e+02
-3.345645762899999909e+02
-3.345524447500000065e+02
-3.345364930599999980e+02
-3.345169200199999864e+02
-3.344941673999999807e+02
-3.344686387900000000e+02
-3.344408630500000186e+02
-3.344114888999999948e+02
-3.336577714900000160e+02
-3.336557669700000019e+02
-3.336511912799999777e+02
-3.336440854400000262e+02
-3.336346599699999729e+02
-3.336232054999999832e+02
-3.336098564100000203e+02
-3.335953573499999720e+02
-3.335799342600000159e+02
-3.335643390999999838e+02
-3.323905665999999997e+02
-3.323824655899999811e+02
-3.323737968799999862e+02
-3.323648293300000205e+02
-3.323559982200000036e+02
-3.323482193799999891e+02
-3.323416992499999765e+02
-3.323370472500000119e+02
-3.323352416999999832e+02
-3.323368483300000094e+02
-3.337434887399999752e+02
-3.337481019400000264e+02
-3.337518487599999730e+02
-3.337544620900000041e+02
-3.337563880800000220e+02
-3.337576098700000102e+02
-3.337582816799999819e+02
-3.337584788199999934e+02
-3.337585709699999938e+02
-3.337586189099999956e+02
-3.340385953800000038e+02
-3.340359878599999774e+02
-3.340303528900000174e+02
-3.340218834899999933e+02
-3.340110514599999760e+02
-3.339986620199999834e+02
-3.339850242599999888e+02
-3.339709657999999877e+02
-3.339571542900000054e+02
-3.339442732699999965e+02
-3.339155811399999720e+02
-3.339126825800000233e+02
-3.339075221599999850e+02
-3.338999477599999750e+02
-3.338903394999999819e+02
-3.338790235399999915e+02
-3.338663853499999732e+02
-3.338529255199999852e+02
-3.338395874500000104e+02
-3.338265649200000098e+02
-3.344170523700000217e+02
-3.344127894800000149e+02
-3.344038268099999982e+02
-3.343903875600000219e+02
-3.343729357400000026e+02
-3.343517975199999910e+02
-3.343279123400000117e+02
-3.343018987699999798e+02
-3.342747207300000127e+02
-3.342468247900000051e+02
-3.335155775000000062e+02
-3.335195119100000056e+02
-3.335206603500000142e+02
-3.335190740300000130e+02
-3.335147027900000012e+02
-3.335076173300000164e+02
-3.334983131800000251e+02
-3.334869082199999752e+02
-3.334737803799999938e+02
-3.334594826000000012e+02
-3.334735769100000198e+02
-3.334748355300000071e+02
-3.334730453700000226e+02
-3.334682046300000025e+02
-3.334607592199999999e+02
-3.334509932099999787e+02
-3.334393064299999878e+02
-3.334259954500000163e+02
-3.334116418300000078e+02
-3.333967875800000229e+02
-3.342497431400000210e+02
-3.342514348899999845e+02
-3.342507204500000171e+02
-3.342475262599999724e+02
-3.342419205099999999e+02
-3.342345516500000144e+02
-3.342252748899999801e+02
-3.342147072199999798e+02
-3.342032467600000132e+02
-3.341910282399999801e+02
-3.336694933200000150e+02
-3.336665113700000234e+02
-3.336600995100000091e+02
-3.336504787599999986e+02
-3.336380205099999898e+02
-3.336228631000000178e+02
-3.336056929000000082e+02
-3.335869856300000151e+02
-3.335672983700000032e+02
-3.335474421399999869e+02
-3.338523828500000263e+02
-3.338546073200000137e+02
-3.338533037400000012e+02
-3.338491190699999720e+02
-3.338422108699999740e+02
-3.338329413000000159e+02
-3.338215588200000070e+02
-3.338086975400000256e+02
-3.337948797600000148e+02
-3.337807540000000017e+02
-3.332396283200000084e+02
-3.332403898100000106e+02
-3.332381545000000074e+02
-3.332328560999999922e+02
-3.332252335599999924e+02
-3.332155848200000037e+02
-3.332044811700000082e+02
-3.331925987700000178e+02
-3.331801669500000003e+02
-3.331683202199999982e+02
-3.325199502300000063e+02
-3.325231170900000279e+02
-3.325340397699999926e+02
-3.325527776700000118e+02
-3.325794986299999891e+02
-3.326141954500000111e+02
-3.326551792600000113e+02
-3.327032732000000124e+02
-3.327577460499999802e+02
-3.328178714100000093e+02
-3.342502797399999963e+02
-3.342571010999999999e+02
-3.342619345400000270e+02
-3.342642345599999771e+02
-3.342638745099999937e+02
-3.342610360300000139e+02
-3.342558597500000133e+02
-3.342488354600000093e+02
-3.342400222399999734e+02
-3.342296828400000095e+02
-3.338216532199999733e+02
-3.338235960000000091e+02
-3.338239256100000034e+02
-3.338226129899999819e+02
-3.338195960599999808e+02
-3.338150688399999808e+02
-3.338092025500000091e+02
-3.338020797799999855e+02
-3.337939521800000193e+02
-3.337853940900000111e+02
-3.341864219299999945e+02
-3.341900320799999804e+02
-3.341911862399999791e+02
-3.341901672600000097e+02
-3.341869905199999948e+02
-3.341813811900000246e+02
-3.341735924299999851e+02
-3.341638206499999910e+02
-3.341525050999999849e+02
-3.341399835700000267e+02
-3.338166977299999871e+02
-3.338174063100000240e+02
-3.338181002200000194e+02
-3.338190896199999997e+02
-3.338205029200000240e+02
-3.338228127500000255e+02
-3.338261253000000011e+02
-3.338310790599999791e+02
-3.338379197799999929e+02
-3.338472153100000241e+02
-3.336677152400000068e+02
-3.336694559100000106e+02
-3.336681911499999842e+02
-3.336639539999999897e+02
-3.336570956599999818e+02
-3.336479320899999834e+02
-3.336367530399999737e+02
-3.336239436800000249e+02
-3.336099232899999834e+02
-3.335955416799999966e+02
-3.341313837999999805e+02
-3.341324488800000267e+02
-3.341308051999999975e+02
-3.341262580200000230e+02
-3.341193388500000196e+02
-3.341103351300000099e+02
-3.340994355600000176e+02
-3.340870701599999961e+02
-3.340736681500000032e+02
-3.340594921200000158e+02
-3.322270457100000272e+02
-3.322509444400000120e+02
-3.322816154600000118e+02
-3.323186798799999906e+02
-3.323617671700000074e+02
-3.324102747200000181e+02
-3.324638855000000035e+02
-3.325217525200000068e+02
-3.325834368700000141e+02
-3.326485451500000181e+02
-3.313935673999999949e+02
-3.314074849200000017e+02
-3.314346877599999743e+02
-3.314746914400000151e+02
-3.315271071899999811e+02
-3.315909426200000212e+02
-3.316656047899999749e+02
-3.317493034899999884e+02
-3.318408130299999925e+02
-3.319386899699999844e+02
-3.337604149000000007e+02
-3.337734597300000132e+02
-3.337867557299999817e+02
-3.338003146600000264e+02
-3.338143289700000196e+02
-3.338285920899999724e+02
-3.338430185899999856e+02
-3.338578863299999853e+02
-3.338734331399999746e+02
-3.338894892800000207e+02
-3.346536844199999905e+02
-3.346533378899999889e+02
-3.346487227200000234e+02
-3.346401187399999912e+02
-3.346275164799999970e+02
-3.346112302000000227e+02
-3.345916263199999889e+02
-3.345691063400000189e+02
-3.345442085500000076e+02
-3.345170852200000127e+02
-3.342167442900000083e+02
-3.342176552099999753e+02
-3.342152728099999877e+02
-3.342094164200000250e+02
-3.342005743199999870e+02
-3.341888307899999973e+02
-3.341748835999999869e+02
-3.341591975700000035e+02
-3.341422068900000113e+02
-3.341246775399999933e+02
-3.342715185299999803e+02
-3.342754941300000269e+02
-3.342749123899999972e+02
-3.342698644600000080e+02
-3.342603981899999894e+02
-3.342468330099999889e+02
-3.342298829000000069e+02
-3.342100268400000118e+02
-3.341876668799999948e+02
-3.341636755999999764e+02
-3.341109523499999909e+02
-3.341139583500000185e+02
-3.341133464499999945e+02
-3.341092874199999869e+02
-3.341021389900000145e+02
-3.340923112899999978e+02
-3.340807239999999751e+02
-3.340679764100000284e+02
-3.340546723900000075e+02
-3.340414176400000201e+02
-3.336777197100000194e+02
-3.336768872700000088e+02
-3.336721977999999922e+02
-3.336635916399999928e+02
-3.336516854700000181e+02
-3.336368712699999719e+02
-3.336199311099999818e+02
-3.336014875000000188e+02
-3.335821324600000253e+02
-3.335628881800000158e+02
-3.340893790299999750e+02
-3.340910319600000093e+02
-3.340904130299999792e+02
-3.340872199600000272e+02
-3.340819971299999906e+02
-3.340748069100000066e+02
-3.340661422700000003e+02
-3.340568882599999938e+02
-3.340478090700000280e+02
-3.340395684800000140e+02
-3.339308177799999839e+02
-3.339277159499999925e+02
-3.339204253099999846e+02
-3.339089308599999981e+02
-3.338940804200000230e+02
-3.338761504199999877e+02
-3.338555509999999913e+02
-3.338329708599999890e+02
-3.338090160799999921e+02
-3.337840433299999745e+02
-3.341106152799999904e+02
-3.341076075799999785e+02
-3.341020230899999888e+02
-3.340937499799999841e+02
-3.340831851899999947e+02
-3.340708097799999905e+02
-3.340569592599999851e+02
-3.340419224699999745e+02
-3.340263345100000265e+02
-3.340108280200000195e+02
-3.339752677800000242e+02
-3.339778897900000061e+02
-3.339793541000000232e+02
-3.339796442599999864e+02
-3.339790594899999974e+02
-3.339775091700000189e+02
-3.339753558599999792e+02
-3.339727312399999732e+02
-3.339702175900000043e+02
-3.339680543499999885e+02
-3.342752592300000174e+02
-3.342799256800000194e+02
-3.342809478400000103e+02
-3.342779927999999927e+02
-3.342714051500000210e+02
-3.342613201500000173e+02
-3.342480023400000277e+02
-3.342318892499999947e+02
-3.342136136299999976e+02
-3.341933637899999781e+02
-3.333825611299999991e+02
-3.333854449599999725e+02
-3.333867956899999854e+02
-3.333866163399999891e+02
-3.333849892599999976e+02
-3.333823525999999902e+02
-3.333791925200000037e+02
-3.333758349999999950e+02
-3.333730674199999839e+02
-3.333712680699999851e+02
-3.338831053800000177e+02
-3.338922873600000116e+02
-3.338981556900000101e+02
-3.339012978599999997e+02
-3.339014709499999753e+02
-3.338988000100000022e+02
-3.338940600000000245e+02
-3.338874839700000052e+02
-3.338797158799999920e+02
-3.338713922599999933e+02
-3.341320988200000102e+02
-3.341338659099999973e+02
-3.341318263599999909e+02
-3.341259610800000246e+02
-3.341164444099999855e+02
-3.341034626800000069e+02
-3.340872578999999973e+02
-3.340681755300000191e+02
-3.340468112799999858e+02
-3.340230839600000081e+02
-3.338820781100000090e+02
-3.338836114900000211e+02
-3.338807656100000258e+02
-3.338734230800000091e+02
-3.338619347299999731e+02
-3.338466159299999845e+02
-3.338281437599999890e+02
-3.338070684799999981e+02
-3.337841681900000026e+02
-3.337599796999999739e+02
-3.340498301100000162e+02
-3.340490404099999751e+02
-3.340463060199999745e+02
-3.340418662899999731e+02
-3.340362091499999906e+02
-3.340295147400000246e+02
-3.340220871999999872e+02
-3.340143306699999926e+02
-3.340067743700000165e+02
-3.339995578200000068e+02
-3.336632956799999761e+02
-3.336644574000000034e+02
-3.336623363400000244e+02
-3.336569270800000027e+02
-3.336484559200000035e+02
-3.336369400099999893e+02
-3.336226850900000045e+02
-3.336059090599999877e+02
-3.335874350400000026e+02
-3.335674664399999756e+02
-3.343983807899999761e+02
-3.344021704799999952e+02
-3.344009431900000209e+02
-3.343948909700000058e+02
-3.343839964900000155e+02
-3.343687233800000058e+02
-3.343496926600000165e+02
-3.343272185899999727e+02
-3.343017745500000046e+02
-3.342741078500000071e+02
-3.343816912799999841e+02
-3.343881690599999956e+02
-3.343906191799999874e+02
-3.343889947399999869e+02
-3.343833331499999986e+02
-3.343738682000000040e+02
-3.343610472500000128e+02
-3.343451980199999980e+02
-3.343270983400000205e+02
-3.343071061300000224e+02
-3.344872266200000013e+02
-3.344866363599999772e+02
-3.344808139500000266e+02
-3.344701322700000219e+02
-3.344551646900000037e+02
-3.344361510699999940e+02
-3.344138701699999956e+02
-3.343886714000000211e+02
-3.343611726099999828e+02
-3.343318467299999952e+02
-3.344730234099999961e+02
-3.344726727699999742e+02
-3.344677993099999753e+02
-3.344584201999999777e+02
-3.344447095900000022e+02
-3.344270007900000223e+02
-3.344059059200000092e+02
-3.343817399499999965e+02
-3.343550200899999822e+02
-3.343259701800000130e+02
-3.342303981300000260e+02
-3.342256050999999957e+02
-3.342168918599999756e+02
-3.342045845299999769e+02
-3.341891532399999960e+02
-3.341710510300000010e+02
-3.341508102999999892e+02
-3.341289917500000115e+02
-3.341063171600000032e+02
-3.340832926599999837e+02
-3.341818800899999928e+02
-3.341831234699999982e+02
-3.341819961499999749e+02
-3.341784844700000008e+02
-3.341728790600000139e+02
-3.341653056800000172e+02
-3.341559442899999794e+02
-3.341451377800000273e+02
-3.341336481800000229e+02
-3.341216059299999870e+02
-3.344732736000000273e+02
-3.344705743999999754e+02
-3.344620895499999733e+02
-3.344480781400000069e+02
-3.344292270500000086e+02
-3.344060844499999803e+02
-3.343792405600000279e+02
-3.343495621700000129e+02
-3.343179422399999794e+02
-3.342854756599999746e+02
-3.343945455300000162e+02
-3.343916268300000070e+02
-3.343847811499999807e+02
-3.343744947900000284e+02
-3.343606016200000113e+02
-3.343439251899999931e+02
-3.343246742900000186e+02
-3.343029772900000012e+02
-3.342793661200000201e+02
-3.342548022899999864e+02
-3.336705613500000140e+02
-3.336897765100000015e+02
-3.337114945299999818e+02
-3.337353491399999825e+02
-3.337608702800000060e+02
-3.337875332599999751e+02
-3.338152074399999947e+02
-3.338434641100000135e+02
-3.338717563199999745e+02
-3.338999767000000247e+02
-3.341247592799999779e+02
-3.341183301400000119e+02
-3.341082714199999941e+02
-3.340949511700000016e+02
-3.340787449900000183e+02
-3.340598986200000127e+02
-3.340388791999999967e+02
-3.340162085100000127e+02
-3.339922880999999961e+02
-3.339675750999999764e+02
-3.335824154300000259e+02
-3.335910900800000150e+02
-3.336020751899999937e+02
-3.336154244400000266e+02
-3.336306127600000195e+02
-3.336475722600000040e+02
-3.336661982200000125e+02
-3.336861337500000104e+02
-3.337074317700000279e+02
-3.337296771100000115e+02
-3.344740422300000091e+02
-3.344769380700000170e+02
-3.344748385199999916e+02