0.000000000000000000e+00 2.032270000000000021e+00 9.668919999999999959e+00 -1.760000000000000009e+00 5.080680000000000085e+00 9.668919999999999959e+00 -3.520000000000000018e+00 8.129089999999999705e+00 9.668919999999999959e+00 3.520000000000000018e+00 2.032270000000000021e+00 9.668919999999999959e+00 1.760000000000000009e+00 5.080680000000000085e+00 9.668919999999999959e+00 0.000000000000000000e+00 8.129089999999999705e+00 9.668919999999999959e+00 7.040000000000000036e+00 2.032270000000000021e+00 9.668919999999999959e+00 5.280000000000000249e+00 5.080680000000000085e+00 9.668919999999999959e+00 3.520000000000000018e+00 8.129089999999999705e+00 9.668919999999999959e+00 0.000000000000000000e+00 2.032299999999999940e-01 1.670636999999999972e+01 -1.760000000000000009e+00 3.251640000000000086e+00 1.670636999999999972e+01 -3.520000000000000018e+00 6.300049999999999706e+00 1.670636999999999972e+01 3.520000000000000018e+00 2.032299999999999940e-01 1.670636999999999972e+01 1.760000000000000009e+00 3.251640000000000086e+00 1.670636999999999972e+01 0.000000000000000000e+00 6.300049999999999706e+00 1.670636999999999972e+01 7.040000000000000036e+00 2.032299999999999940e-01 1.670636999999999972e+01 5.280000000000000249e+00 3.251640000000000086e+00 1.670636999999999972e+01 3.520000000000000018e+00 6.300049999999999706e+00 1.670636999999999972e+01 0.000000000000000000e+00 2.032270000000000021e+00 1.329466999999999999e+01 -1.760000000000000009e+00 5.080680000000000085e+00 1.329466999999999999e+01 -3.520000000000000018e+00 8.129089999999999705e+00 1.329466999999999999e+01 3.520000000000000018e+00 2.032270000000000021e+00 1.329466999999999999e+01 1.760000000000000009e+00 5.080680000000000085e+00 1.329466999999999999e+01 0.000000000000000000e+00 8.129089999999999705e+00 1.329466999999999999e+01 7.040000000000000036e+00 2.032270000000000021e+00 1.329466999999999999e+01 5.280000000000000249e+00 5.080680000000000085e+00 1.329466999999999999e+01 3.520000000000000018e+00 8.129089999999999705e+00 1.329466999999999999e+01 0.000000000000000000e+00 2.032299999999999940e-01 2.033155000000000001e+01 -1.760000000000000009e+00 3.251640000000000086e+00 2.033155000000000001e+01 -3.520000000000000018e+00 6.300049999999999706e+00 2.033155000000000001e+01 3.520000000000000018e+00 2.032299999999999940e-01 2.033155000000000001e+01 1.760000000000000009e+00 3.251640000000000086e+00 2.033155000000000001e+01 0.000000000000000000e+00 6.300049999999999706e+00 2.033155000000000001e+01 7.040000000000000036e+00 2.032299999999999940e-01 2.033155000000000001e+01 5.280000000000000249e+00 3.251640000000000086e+00 2.033155000000000001e+01 3.520000000000000018e+00 6.300049999999999706e+00 2.033155000000000001e+01 0.000000000000000000e+00 0.000000000000000000e+00 1.148080999999999996e+01 -1.760000000000000009e+00 3.048410000000000064e+00 1.148080999999999996e+01 -3.520000000000000018e+00 6.096820000000000128e+00 1.148080999999999996e+01 3.520000000000000018e+00 0.000000000000000000e+00 1.148080999999999996e+01 1.760000000000000009e+00 3.048410000000000064e+00 1.148080999999999996e+01 0.000000000000000000e+00 6.096820000000000128e+00 1.148080999999999996e+01 7.040000000000000036e+00 0.000000000000000000e+00 1.148080999999999996e+01 5.280000000000000249e+00 3.048410000000000064e+00 1.148080999999999996e+01 3.520000000000000018e+00 6.096820000000000128e+00 1.148080999999999996e+01 1.760000000000000009e+00 1.219359999999999999e+00 1.851773999999999987e+01 0.000000000000000000e+00 4.267769999999999619e+00 1.851773999999999987e+01 -1.760000000000000009e+00 7.316180000000000128e+00 1.851773999999999987e+01 5.280000000000000249e+00 1.219359999999999999e+00 1.851773999999999987e+01 3.520000000000000018e+00 4.267769999999999619e+00 1.851773999999999987e+01 1.760000000000000009e+00 7.316180000000000128e+00 1.851773999999999987e+01 8.800000000000000711e+00 1.219359999999999999e+00 1.851773999999999987e+01 7.040000000000000036e+00 4.267769999999999619e+00 1.851773999999999987e+01 5.280000000000000249e+00 7.316180000000000128e+00 1.851773999999999987e+01
1.139999999999999954e-03 2.032420000000000115e+00 9.669859999999999900e+00 -1.760429999999999939e+00 5.079579999999999984e+00 9.669059999999999988e+00 -3.520109999999999850e+00 8.127530000000000143e+00 9.663999999999999702e+00 3.518130000000000202e+00 2.033790000000000209e+00 9.670260000000000744e+00 1.757929999999999993e+00 5.079419999999999824e+00 9.670320000000000249e+00 1.910000000000000022e-03 8.130069999999999908e+00 9.669710000000000250e+00 7.037160000000000082e+00 2.031340000000000146e+00 9.668649999999999523e+00 5.279010000000000424e+00 5.081550000000000011e+00 9.668070000000000164e+00 3.520529999999999937e+00 8.127430000000000376e+00 9.667239999999999611e+00 4.510000000000000120e-03 2.038399999999999934e-01 1.670432999999999879e+01 -1.757900000000000018e+00 3.252810000000000201e+00 1.670674999999999955e+01 -3.519019999999999815e+00 6.300110000000000099e+00 1.670766000000000062e+01 3.520859999999999879e+00 2.057499999999999885e-01 1.670709000000000088e+01 1.759749999999999925e+00 3.252590000000000092e+00 1.670660000000000167e+01 5.000000000000000240e-05 6.299979999999999691e+00 1.670401999999999987e+01 7.041739999999999888e+00 2.031000000000000028e-01 1.670676999999999879e+01 5.278039999999999843e+00 3.250500000000000167e+00 1.670685999999999893e+01 3.520340000000000025e+00 6.297819999999999752e+00 1.670458999999999961e+01 4.299999999999999894e-04 2.033669999999999867e+00 1.329452000000000034e+01 -1.760320000000000107e+00 5.081550000000000011e+00 1.329856999999999978e+01 -3.519969999999999821e+00 8.130240000000000578e+00 1.329174000000000078e+01 3.517619999999999969e+00 2.032080000000000108e+00 1.329119000000000028e+01 1.760270000000000001e+00 5.078640000000000043e+00 1.329541000000000039e+01 -9.200000000000000278e-04 8.129580000000000695e+00 1.329560999999999993e+01 7.039039999999999964e+00 2.033199999999999896e+00 1.329644000000000048e+01 5.279130000000000322e+00 5.083879999999999733e+00 1.329470000000000063e+01 3.521139999999999937e+00 8.127670000000000172e+00 1.329264000000000046e+01 1.160000000000000007e-03 2.035500000000000087e-01 2.033363999999999905e+01 -1.760180000000000078e+00 3.250890000000000057e+00 2.033117000000000019e+01 -3.519200000000000106e+00 6.302200000000000024e+00 2.033295000000000030e+01 3.520410000000000039e+00 2.054199999999999915e-01 2.033015999999999934e+01 1.758340000000000014e+00 3.254280000000000062e+00 2.032960999999999885e+01 9.399999999999999719e-04 6.301429999999999865e+00 2.033570999999999884e+01 7.038369999999999571e+00 1.999700000000000089e-01 2.033110999999999891e+01 5.277709999999999901e+00 3.251570000000000071e+00 2.033265000000000100e+01 3.521189999999999820e+00 6.300449999999999662e+00 2.033248999999999995e+01 -5.277459999999999596e+00 9.141849999999999810e+00 1.148132999999999981e+01 -1.759689999999999976e+00 3.048179999999999890e+00 1.148165000000000013e+01 -3.517069999999999919e+00 6.096720000000000361e+00 1.148085000000000022e+01 -1.759139999999999926e+00 9.142289999999999139e+00 1.148396999999999935e+01 1.759710000000000107e+00 3.046879999999999811e+00 1.147799999999999976e+01 8.400000000000000348e-04 6.094219999999999970e+00 1.147803000000000040e+01 7.040379999999999860e+00 1.569999999999999998e-03 1.148071000000000019e+01 5.281119999999999592e+00 3.048960000000000115e+00 1.148076000000000008e+01 3.520070000000000032e+00 6.098029999999999617e+00 1.147800999999999938e+01 1.756629999999999914e+00 1.217060000000000031e+00 1.852043000000000106e+01 -1.750000000000000036e-03 4.266910000000000203e+00 1.851677000000000106e+01 -1.760129999999999972e+00 7.316939999999999777e+00 1.851617999999999853e+01 5.279169999999999696e+00 1.218679999999999986e+00 1.852033000000000129e+01 3.520469999999999988e+00 4.268239999999999590e+00 1.851623999999999981e+01 1.761339999999999906e+00 7.316419999999999924e+00 1.851897999999999911e+01 8.798280000000000101e+00 1.223300000000000054e+00 1.851788000000000167e+01 7.040440000000000254e+00 4.264549999999999841e+00 1.851905999999999963e+01 5.278360000000000163e+00 7.314470000000000027e+00 1.851954999999999885e+01
2.279999999999999909e-03 2.032570000000000210e+00 9.670799999999999841e+00 -1.760860000000000092e+00 5.078479999999999883e+00 9.669190000000000396e+00 -3.520210000000000061e+00 8.125970000000000582e+00 9.659090000000000842e+00 3.516259999999999941e+00 2.035299999999999887e+00 9.671609999999999374e+00 1.755870000000000042e+00 5.078159999999999563e+00 9.671720000000000539e+00 3.820000000000000045e-03 8.131040000000000489e+00 9.670500000000000540e+00 7.034329999999999750e+00 2.030400000000000205e+00 9.668369999999999465e+00 5.278019999999999712e+00 5.082410000000000316e+00 9.667220000000000368e+00 3.521059999999999857e+00 8.125769999999999271e+00 9.665559999999999263e+00 9.010000000000000647e-03 2.044400000000000106e-01 1.670230000000000103e+01 -1.755800000000000027e+00 3.253969999999999807e+00 1.670712999999999937e+01 -3.518040000000000056e+00 6.300150000000000361e+00 1.670895000000000152e+01 3.521720000000000184e+00 2.082499999999999907e-01 1.670782000000000167e+01 1.759509999999999907e+00 3.253530000000000033e+00 1.670683999999999969e+01 1.100000000000000039e-04 6.299909999999999677e+00 1.670167999999999964e+01 7.043479999999999741e+00 2.029499999999999915e-01 1.670718000000000103e+01 5.276080000000000325e+00 3.249340000000000117e+00 1.670733999999999853e+01 3.520680000000000032e+00 6.295580000000000176e+00 1.670280999999999949e+01 8.700000000000000051e-04 2.035079999999999778e+00 1.329437000000000069e+01 -1.760639999999999983e+00 5.082429999999999559e+00 1.330245000000000033e+01 -3.519940000000000069e+00 8.131399999999999295e+00 1.328881999999999941e+01 3.515239999999999920e+00 2.031899999999999817e+00 1.328772000000000020e+01 1.760550000000000059e+00 5.076609999999999623e+00 1.329613999999999940e+01 -1.830000000000000029e-03 8.130069999999999908e+00 1.329654999999999987e+01 7.038090000000000401e+00 2.034139999999999837e+00 1.329819999999999958e+01 5.278270000000000017e+00 5.087100000000000399e+00 1.329471999999999987e+01 3.522279999999999855e+00 8.126269999999999882e+00 1.329060999999999915e+01 2.309999999999999987e-03 2.038600000000000134e-01 2.033573000000000164e+01 -1.760359999999999925e+00 3.250150000000000095e+00 2.033080999999999960e+01 -3.518409999999999815e+00 6.304350000000000342e+00 2.033435000000000059e+01 3.520809999999999995e+00 2.076000000000000068e-01 2.032877999999999830e+01 1.756680000000000019e+00 3.256920000000000037e+00 2.032768000000000086e+01 1.879999999999999944e-03 6.302800000000000402e+00 2.033986000000000161e+01 7.036739999999999995e+00 1.967299999999999882e-01 2.033067000000000135e+01 5.275420000000000442e+00 3.251500000000000057e+00 2.033374999999999844e+01 3.522370000000000001e+00 6.300839999999999996e+00 2.033342999999999989e+01 -5.274930000000000341e+00 9.138489999999999114e+00 1.148184999999999967e+01 -1.759390000000000009e+00 3.047969999999999846e+00 1.148249999999999993e+01 -3.514149999999999885e+00 6.096619999999999706e+00 1.148088000000000086e+01 -1.758289999999999909e+00 9.139359999999999928e+00 1.148709999999999987e+01 1.759419999999999984e+00 3.045370000000000132e+00 1.147522999999999982e+01 1.670000000000000043e-03 6.091649999999999565e+00 1.147528999999999932e+01 7.040759999999999685e+00 3.129999999999999970e-03 1.148062999999999967e+01 5.282230000000000203e+00 3.049510000000000165e+00 1.148071999999999981e+01 3.520129999999999981e+00 6.099239999999999995e+00 1.147522999999999982e+01 1.753270000000000106e+00 1.214779999999999971e+00 1.852309999999999945e+01 -3.500000000000000073e-03 4.266060000000000407e+00 1.851582000000000150e+01 -1.760250000000000092e+00 7.317700000000000315e+00 1.851463000000000036e+01 5.278349999999999653e+00 1.218010000000000037e+00 1.852289999999999992e+01 3.520939999999999959e+00 4.268699999999999939e+00 1.851475999999999900e+01 1.762669999999999959e+00 7.316639999999999588e+00 1.852019999999999911e+01 8.796590000000000131e+00 1.227209999999999912e+00 1.851801999999999992e+01 7.040879999999999583e+00 4.261350000000000193e+00 1.852038999999999902e+01 5.276729999999999698e+00 7.312770000000000437e+00 1.852135000000000176e+01
3.399999999999999811e-03 2.032690000000000108e+00 9.671739999999999782e+00 -1.761290000000000022e+00 5.077370000000000161e+00 9.669320000000000803e+00 -3.520290000000000141e+00 8.124409999999999243e+00 9.654210000000000846e+00 3.514419999999999877e+00 2.036789999999999878e+00 9.672950000000000159e+00 1.753819999999999935e+00 5.076900000000000190e+00 9.673080000000000567e+00 5.720000000000000258e-03 8.131999999999999673e+00 9.671290000000000830e+00 7.031520000000000437e+00 2.029479999999999951e+00 9.668100000000000804e+00 5.277040000000000397e+00 5.083280000000000243e+00 9.666370000000000573e+00 3.521590000000000220e+00 8.124129999999999185e+00 9.663890000000000313e+00 1.348000000000000066e-02 2.050099999999999978e-01 1.670028999999999897e+01 -1.753730000000000011e+00 3.255100000000000104e+00 1.670748999999999995e+01 -3.517079999999999984e+00 6.300169999999999604e+00 1.671024999999999849e+01 3.522580000000000044e+00 2.107300000000000006e-01 1.670854999999999890e+01 1.759260000000000046e+00 3.254440000000000222e+00 1.670709000000000088e+01 1.700000000000000122e-04 6.299820000000000420e+00 1.669935999999999865e+01 7.045219999999999594e+00 2.028000000000000080e-01 1.670758999999999972e+01 5.274140000000000050e+00 3.248170000000000002e+00 1.670783000000000129e+01 3.521020000000000039e+00 6.293339999999999712e+00 1.670103999999999900e+01 1.299999999999999940e-03 2.036490000000000133e+00 1.329421999999999926e+01 -1.760950000000000015e+00 5.083319999999999617e+00 1.330630999999999986e+01 -3.519909999999999872e+00 8.132550000000000168e+00 1.328593000000000046e+01 3.512880000000000003e+00 2.031740000000000101e+00 1.328425999999999974e+01 1.760829999999999895e+00 5.074600000000000222e+00 1.329684999999999917e+01 -2.720000000000000195e-03 8.130559999999999121e+00 1.329748000000000019e+01 7.037139999999999951e+00 2.035089999999999844e+00 1.329996000000000045e+01 5.277409999999999712e+00 5.090309999999999668e+00 1.329473999999999911e+01 3.523400000000000087e+00 8.124879999999999214e+00 1.328860000000000063e+01 3.429999999999999889e-03 2.041800000000000004e-01 2.033782000000000068e+01 -1.760550000000000059e+00 3.249420000000000197e+00 2.033045999999999864e+01 -3.517609999999999904e+00 6.306490000000000151e+00 2.033573000000000164e+01 3.521199999999999886e+00 2.097700000000000120e-01 2.032741000000000042e+01 1.755030000000000090e+00 3.259549999999999947e+00 2.032574999999999932e+01 2.799999999999999972e-03 6.304170000000000051e+00 2.034397999999999840e+01 7.035120000000000040e+00 1.935099999999999876e-01 2.033024999999999949e+01 5.273139999999999716e+00 3.251430000000000042e+00 2.033484999999999943e+01 3.523540000000000116e+00 6.301230000000000331e+00 2.033436999999999983e+01 -5.272429999999999950e+00 9.135170000000000456e+00 1.148231999999999964e+01 -1.759109999999999951e+00 3.047750000000000181e+00 1.148334999999999972e+01 -3.511249999999999982e+00 6.096529999999999561e+00 1.148090999999999973e+01 -1.757460000000000022e+00 9.136459999999999582e+00 1.149014000000000024e+01 1.759130000000000082e+00 3.043880000000000141e+00 1.147249000000000052e+01 2.480000000000000000e-03 6.089100000000000179e+00 1.147261999999999915e+01 7.041159999999999641e+00 4.680000000000000132e-03 1.148054999999999914e+01 5.283330000000000304e+00 3.050079999999999902e+00 1.148067999999999955e+01 3.520169999999999799e+00 6.100419999999999732e+00 1.147249000000000052e+01 1.749970000000000026e+00 1.212530000000000108e+00 1.852573999999999899e+01 -5.239999999999999866e-03 4.265249999999999986e+00 1.851489000000000118e+01 -1.760350000000000081e+00 7.318450000000000344e+00 1.851311000000000107e+01 5.277540000000000120e+00 1.217340000000000089e+00 1.852543000000000006e+01 3.521389999999999798e+00 4.269160000000000288e+00 1.851330000000000098e+01 1.763989999999999947e+00 7.316830000000000389e+00 1.852139999999999986e+01 8.794930000000000803e+00 1.231039999999999912e+00 1.851816000000000173e+01 7.041310000000000180e+00 4.258180000000000298e+00 1.852169999999999916e+01 5.275109999999999744e+00 7.311099999999999710e+00 1.852310999999999908e+01
4.510000000000000120e-03 2.032799999999999940e+00 9.672670000000000101e+00 -1.761710000000000109e+00 5.076260000000000439e+00 9.669439999999999813e+00 -3.520360000000000156e+00 8.122859999999999303e+00 9.649369999999999337e+00 3.512589999999999879e+00 2.038240000000000052e+00 9.674279999999999546e+00 1.751789999999999958e+00 5.075639999999999930e+00 9.674409999999999954e+00 7.599999999999999985e-03 8.132960000000000633e+00 9.672069999999999723e+00 7.028730000000000366e+00 2.028560000000000141e+00 9.667830000000000368e+00 5.276089999999999947e+00 5.084130000000000038e+00 9.665530000000000399e+00 3.522120000000000140e+00 8.122519999999999740e+00 9.662219999999999587e+00 1.788999999999999965e-02 2.055500000000000105e-01 1.669831999999999894e+01 -1.751670000000000060e+00 3.256219999999999892e+00 1.670784000000000091e+01 -3.516119999999999912e+00 6.300159999999999982e+00 1.671155999999999864e+01 3.523410000000000153e+00 2.131899999999999906e-01 1.670927999999999969e+01 1.758999999999999897e+00 3.255300000000000082e+00 1.670735000000000170e+01 2.400000000000000061e-04 6.299730000000000274e+00 1.669707999999999970e+01 7.046940000000000204e+00 2.026300000000000046e-01 1.670801000000000158e+01 5.272219999999999906e+00 3.246980000000000199e+00 1.670832000000000050e+01 3.521370000000000111e+00 6.291120000000000267e+00 1.669929000000000130e+01 1.729999999999999984e-03 2.037889999999999979e+00 1.329405000000000037e+01 -1.761249999999999982e+00 5.084220000000000184e+00 1.331012999999999913e+01 -3.519859999999999989e+00 8.133699999999999264e+00 1.328308999999999962e+01 3.510540000000000216e+00 2.031600000000000072e+00 1.328082999999999991e+01 1.761109999999999953e+00 5.072619999999999685e+00 1.329753000000000007e+01 -3.589999999999999875e-03 8.131050000000000111e+00 1.329840000000000089e+01 7.036200000000000010e+00 2.036059999999999981e+00 1.330170999999999992e+01 5.276559999999999917e+00 5.093530000000000335e+00 1.329473999999999911e+01 3.524529999999999941e+00 8.123530000000000584e+00 1.328659000000000034e+01 4.519999999999999712e-03 2.044799999999999951e-01 2.033989000000000047e+01 -1.760729999999999906e+00 3.248699999999999921e+00 2.033013000000000048e+01 -3.516809999999999992e+00 6.308600000000000207e+00 2.033708999999999989e+01 3.521580000000000155e+00 2.119099999999999873e-01 2.032607000000000141e+01 1.753379999999999939e+00 3.262160000000000171e+00 2.032384000000000057e+01 3.710000000000000190e-03 6.305530000000000079e+00 2.034804000000000102e+01 7.033520000000000216e+00 1.903100000000000069e-01 2.032983000000000118e+01 5.270859999999999879e+00 3.251360000000000028e+00 2.033595000000000041e+01 3.524709999999999788e+00 6.301599999999999646e+00 2.033530999999999977e+01 -5.269949999999999690e+00 9.131909999999999528e+00 1.148273999999999972e+01 -1.758860000000000090e+00 3.047550000000000203e+00 1.148419999999999952e+01 -3.508399999999999963e+00 6.096449999999999925e+00 1.148090999999999973e+01 -1.756650000000000045e+00 9.133609999999999118e+00 1.149306999999999945e+01 1.758829999999999893e+00 3.042429999999999968e+00 1.146982999999999997e+01 3.269999999999999903e-03 6.086599999999999788e+00 1.147003999999999913e+01 7.041559999999999597e+00 6.219999999999999835e-03 1.148049999999999926e+01 5.284390000000000143e+00 3.050679999999999836e+00 1.148066000000000031e+01 3.520199999999999996e+00 6.101560000000000095e+00 1.146978999999999971e+01 1.746729999999999894e+00 1.210339999999999971e+00 1.852832000000000079e+01 -6.969999999999999633e-03 4.264509999999999579e+00 1.851398000000000010e+01 -1.760420000000000096e+00 7.319189999999999863e+00 1.851163999999999987e+01 5.276740000000000208e+00 1.216679999999999984e+00 1.852789999999999893e+01 3.521830000000000016e+00 4.269619999999999749e+00 1.851186999999999827e+01 1.765290000000000026e+00 7.316959999999999908e+00 1.852254999999999896e+01 8.793340000000000600e+00 1.234790000000000054e+00 1.851829000000000036e+01 7.041719999999999757e+00 4.255069999999999908e+00 1.852299999999999969e+01 5.273520000000000429e+00 7.309470000000000134e+00 1.852483000000000146e+01
5.579999999999999891e-03 2.032869999999999955e+00 9.673590000000000799e+00 -1.762119999999999909e+00 5.075140000000000207e+00 9.669539999999999580e+00 -3.520389999999999908e+00 8.121299999999999741e+00 9.644579999999999487e+00 3.510800000000000143e+00 2.039660000000000029e+00 9.675610000000000710e+00 1.749789999999999957e+00 5.074379999999999669e+00 9.675689999999999458e+00 9.469999999999999252e-03 8.133900000000000574e+00 9.672860000000000014e+00 7.025979999999999670e+00 2.027670000000000083e+00 9.667569999999999553e+00 5.275159999999999627e+00 5.084979999999999833e+00 9.664699999999999847e+00 3.522650000000000059e+00 8.120929999999999538e+00 9.660560000000000258e+00 2.224999999999999895e-02 2.060599999999999932e-01 1.669640000000000057e+01 -1.749649999999999928e+00 3.257319999999999993e+00 1.670815999999999946e+01 -3.515190000000000037e+00 6.300119999999999720e+00 1.671286999999999878e+01 3.524230000000000196e+00 2.156200000000000061e-01 1.671001000000000047e+01 1.758739999999999970e+00 3.256130000000000191e+00 1.670761999999999858e+01 3.200000000000000262e-04 6.299619999999999997e+00 1.669482999999999961e+01 7.048650000000000304e+00 2.024600000000000011e-01 1.670843999999999951e+01 5.270330000000000403e+00 3.245769999999999822e+00 1.670880999999999972e+01 3.521700000000000053e+00 6.288899999999999935e+00 1.669754999999999967e+01 2.170000000000000054e-03 2.039280000000000204e+00 1.329387999999999970e+01 -1.761530000000000040e+00 5.085119999999999862e+00 1.331390999999999991e+01 -3.519810000000000105e+00 8.134829999999999117e+00 1.328030000000000044e+01 3.508220000000000116e+00 2.031470000000000109e+00 1.327743000000000073e+01 1.761400000000000077e+00 5.070660000000000167e+00 1.329817000000000071e+01 -4.429999999999999910e-03 8.131520000000000081e+00 1.329931000000000019e+01 7.035260000000000069e+00 2.037040000000000184e+00 1.330344999999999978e+01 5.275719999999999743e+00 5.096739999999999604e+00 1.329471999999999987e+01 3.525630000000000042e+00 8.122199999999999420e+00 1.328458999999999968e+01 5.550000000000000246e-03 2.047799999999999898e-01 2.034196000000000026e+01 -1.760920000000000041e+00 3.247990000000000155e+00 2.032984000000000080e+01 -3.516000000000000014e+00 6.310679999999999623e+00 2.033842999999999890e+01 3.521939999999999849e+00 2.140299999999999980e-01 2.032476000000000127e+01 1.751740000000000075e+00 3.264759999999999884e+00 2.032192999999999827e+01 4.610000000000000382e-03 6.306869999999999976e+00 2.035204999999999842e+01 7.031950000000000145e+00 1.871500000000000108e-01 2.032944000000000173e+01 5.268600000000000172e+00 3.251290000000000013e+00 2.033705000000000140e+01 3.525869999999999838e+00 6.301960000000000228e+00 2.033625999999999934e+01 -5.267520000000000202e+00 9.128719999999999501e+00 1.148307999999999929e+01 -1.758650000000000047e+00 3.047349999999999781e+00 1.148503999999999969e+01 -3.505599999999999827e+00 6.096379999999999910e+00 1.148089000000000048e+01 -1.755880000000000107e+00 9.130800000000000693e+00 1.149582999999999977e+01 1.758510000000000018e+00 3.041040000000000187e+00 1.146724999999999994e+01 4.020000000000000136e-03 6.084170000000000300e+00 1.146757999999999988e+01 7.041979999999999684e+00 7.720000000000000299e-03 1.148046000000000078e+01 5.285420000000000229e+00 3.051299999999999901e+00 1.148065000000000069e+01 3.520189999999999930e+00 6.102649999999999686e+00 1.146715000000000018e+01 1.743579999999999908e+00 1.208220000000000072e+00 1.853083000000000169e+01 -8.680000000000000215e-03 4.263840000000000074e+00 1.851311000000000107e+01 -1.760440000000000005e+00 7.319930000000000270e+00 1.851022000000000034e+01 5.275960000000000427e+00 1.216050000000000075e+00 1.853031000000000006e+01 3.522250000000000103e+00 4.270080000000000098e+00 1.851049000000000078e+01 1.766580000000000039e+00 7.317040000000000433e+00 1.852364999999999995e+01 8.791829999999999146e+00 1.238399999999999945e+00 1.851841999999999899e+01 7.042110000000000092e+00 4.252030000000000420e+00 1.852429000000000059e+01 5.271959999999999980e+00 7.307890000000000441e+00 1.852648999999999901e+01
6.620000000000000016e-03 2.032910000000000217e+00 9.674490000000000478e+00 -1.762529999999999930e+00 5.073999999999999844e+00 9.669629999999999725e+00 -3.520399999999999974e+00 8.119749999999999801e+00 9.639839999999999520e+00 3.509049999999999780e+00 2.041020000000000056e+00 9.676920000000000854e+00 1.747810000000000086e+00 5.073129999999999917e+00 9.676909999999999457e+00 1.132999999999999979e-02 8.134829999999999117e+00 9.673650000000000304e+00 7.023259999999999614e+00 2.026790000000000092e+00 9.667299999999999116e+00 5.274259999999999948e+00 5.085820000000000007e+00 9.663880000000000692e+00 3.523169999999999913e+00 8.119389999999999219e+00 9.658910000000000551e+00 2.653000000000000150e-02 2.065400000000000014e-01 1.669453000000000031e+01 -1.747670000000000057e+00 3.258389999999999898e+00 1.670843999999999951e+01 -3.514279999999999848e+00 6.300040000000000084e+00 1.671418999999999855e+01 3.525030000000000108e+00 2.180300000000000016e-01 1.671075000000000088e+01 1.758480000000000043e+00 3.256909999999999972e+00 1.670790999999999826e+01 4.099999999999999912e-04 6.299520000000000231e+00 1.669263000000000119e+01 7.050340000000000273e+00 2.022799999999999876e-01 1.670889999999999986e+01 5.268469999999999764e+00 3.244540000000000202e+00 1.670929999999999893e+01 3.522040000000000060e+00 6.286710000000000242e+00 1.669583000000000084e+01 2.599999999999999881e-03 2.040639999999999787e+00 1.329369999999999941e+01 -1.761789999999999967e+00 5.086039999999999672e+00 1.331764000000000081e+01 -3.519740000000000091e+00 8.135930000000000106e+00 1.327759000000000000e+01 3.505930000000000213e+00 2.031369999999999898e+00 1.327406000000000041e+01 1.761689999999999978e+00 5.068719999999999892e+00 1.329876999999999931e+01 -5.230000000000000274e-03 8.131970000000000809e+00 1.330020000000000024e+01 7.034340000000000259e+00 2.038030000000000008e+00 1.330518000000000001e+01 5.274899999999999700e+00 5.099949999999999761e+00 1.329466999999999999e+01 3.526730000000000143e+00 8.120900000000000674e+00 1.328261999999999965e+01 6.530000000000000214e-03 2.050700000000000023e-01 2.034402000000000044e+01 -1.761100000000000110e+00 3.247290000000000010e+00 2.032958999999999961e+01 -3.515190000000000037e+00 6.312719999999999665e+00 2.033973999999999904e+01 3.522269999999999790e+00 2.161099999999999965e-01 2.032348999999999961e+01 1.750110000000000054e+00 3.267339999999999911e+00 2.032002999999999915e+01 5.479999999999999628e-03 6.308200000000000252e+00 2.035597999999999885e+01 7.030400000000000205e+00 1.840299999999999991e-01 2.032905999999999835e+01 5.266350000000000087e+00 3.251230000000000064e+00 2.033815999999999846e+01 3.527010000000000201e+00 6.302299999999999791e+00 2.033721999999999852e+01 -5.265130000000000088e+00 9.125629999999999242e+00 1.148333000000000048e+01 -1.758490000000000109e+00 3.047159999999999869e+00 1.148588999999999949e+01 -3.502870000000000150e+00 6.096320000000000405e+00 1.148085000000000022e+01 -1.755139999999999922e+00 9.128059999999999619e+00 1.149840999999999980e+01 1.758180000000000076e+00 3.039699999999999847e+00 1.146476999999999968e+01 4.720000000000000237e-03 6.081800000000000317e+00 1.146527999999999992e+01 7.042419999999999902e+00 9.199999999999999845e-03 1.148044999999999938e+01 5.286410000000000053e+00 3.051950000000000163e+00 1.148065000000000069e+01 3.520140000000000047e+00 6.103690000000000282e+00 1.146458999999999939e+01 1.740539999999999976e+00 1.206190000000000095e+00 1.853325999999999851e+01 -1.038000000000000034e-02 4.263279999999999959e+00 1.851229999999999976e+01 -1.760410000000000030e+00 7.320660000000000167e+00 1.850885999999999854e+01 5.275210000000000399e+00 1.215440000000000076e+00 1.853262000000000143e+01 3.522639999999999993e+00 4.270539999999999559e+00 1.850917000000000101e+01 1.767840000000000078e+00 7.317040000000000433e+00 1.852468999999999966e+01 8.790430000000000632e+00 1.241870000000000029e+00 1.851852999999999838e+01 7.042480000000000295e+00 4.249069999999999681e+00 1.852556999999999832e+01 5.270439999999999792e+00 7.306390000000000384e+00 1.852807999999999922e+01