9.999999999999999547e-07 -2.144000000000000072e-03 3.649999999999999816e-04 1.999999999999999909e-06 -2.147000000000000037e-03 3.669999999999999760e-04 3.999999999999999819e-06 -2.145999999999999904e-03 3.640000000000000115e-04 0.000000000000000000e+00 -2.148000000000000170e-03 3.649999999999999816e-04 0.000000000000000000e+00 -2.147000000000000037e-03 3.680000000000000003e-04 0.000000000000000000e+00 -2.145999999999999904e-03 3.660000000000000059e-04 9.999999999999999547e-07 -2.148000000000000170e-03 3.640000000000000115e-04 -9.999999999999999547e-07 -2.147000000000000037e-03 3.649999999999999816e-04 -3.000000000000000076e-06 -2.148000000000000170e-03 3.620000000000000171e-04 9.999999999999999547e-07 -4.809900000000000286e-02 -1.810000000000000085e-04 -3.000000000000000076e-06 -4.810199999999999892e-02 -1.789999999999999870e-04 -9.999999999999999547e-07 -4.810199999999999892e-02 -1.800000000000000113e-04 -9.999999999999999547e-07 -4.809700000000000086e-02 -1.789999999999999870e-04 3.000000000000000076e-06 -4.810299999999999992e-02 -1.779999999999999898e-04 9.999999999999999547e-07 -4.810099999999999792e-02 -1.820000000000000057e-04 0.000000000000000000e+00 -4.809999999999999692e-02 -1.779999999999999898e-04 0.000000000000000000e+00 -4.810099999999999792e-02 -1.749999999999999982e-04 0.000000000000000000e+00 -4.810199999999999892e-02 -1.789999999999999870e-04 9.999999999999999547e-07 4.880999999999999922e-02 5.199999999999999680e-05 9.999999999999999547e-07 4.880500000000000116e-02 5.099999999999999960e-05 3.000000000000000076e-06 4.880600000000000216e-02 5.399999999999999798e-05 0.000000000000000000e+00 4.880600000000000216e-02 5.399999999999999798e-05 0.000000000000000000e+00 4.880400000000000016e-02 5.199999999999999680e-05 -9.999999999999999547e-07 4.880600000000000216e-02 5.199999999999999680e-05 -9.999999999999999547e-07 4.880600000000000216e-02 5.500000000000000196e-05 -1.999999999999999909e-06 4.880400000000000016e-02 5.599999999999999916e-05 -1.999999999999999909e-06 4.880400000000000016e-02 5.500000000000000196e-05 9.999999999999999547e-07 -3.980000000000000248e-04 -2.519999999999999996e-04 0.000000000000000000e+00 -4.009999999999999893e-04 -2.539999999999999940e-04 -9.999999999999999547e-07 -4.000000000000000192e-04 -2.530000000000000239e-04 -3.000000000000000076e-06 -3.959999999999999762e-04 -2.550000000000000183e-04 9.999999999999999547e-07 -4.020000000000000136e-04 -2.539999999999999940e-04 9.999999999999999547e-07 -3.980000000000000248e-04 -2.519999999999999996e-04 9.999999999999999547e-07 -3.989999999999999949e-04 -2.539999999999999940e-04 0.000000000000000000e+00 -3.980000000000000248e-04 -2.590000000000000071e-04 0.000000000000000000e+00 -3.989999999999999949e-04 -2.539999999999999940e-04 3.000000000000000076e-06 1.042099999999999971e-02 1.150000000000000035e-04 3.000000000000000076e-06 1.042500000000000024e-02 1.150000000000000035e-04 3.999999999999999819e-06 1.041899999999999944e-02 1.150000000000000035e-04 9.999999999999999547e-07 1.041800000000000018e-02 1.160000000000000007e-04 -1.999999999999999909e-06 1.042299999999999997e-02 1.150000000000000035e-04 0.000000000000000000e+00 1.041800000000000018e-02 1.140000000000000063e-04 -5.000000000000000409e-06 1.041699999999999918e-02 1.150000000000000035e-04 -3.000000000000000076e-06 1.041800000000000018e-02 1.160000000000000007e-04 -5.000000000000000409e-06 1.041399999999999965e-02 1.160000000000000007e-04 5.000000000000000409e-06 -8.571000000000000493e-03 -4.629999999999999784e-04 1.999999999999999909e-06 -8.581000000000000086e-03 -4.620000000000000083e-04 -3.000000000000000076e-06 -8.573000000000000759e-03 -4.609999999999999840e-04 -9.999999999999999547e-07 -8.569000000000000228e-03 -4.640000000000000027e-04 5.000000000000000409e-06 -8.581999999999999351e-03 -4.629999999999999784e-04 3.000000000000000076e-06 -8.574999999999999289e-03 -4.620000000000000083e-04 -3.999999999999999819e-06 -8.573000000000000759e-03 -4.609999999999999840e-04 -7.999999999999999638e-06 -8.580000000000000820e-03 -4.620000000000000083e-04 -1.999999999999999909e-06 -8.580000000000000820e-03 -4.609999999999999840e-04
-2.332499999999999851e-02 -2.690100000000000130e-02 -8.687999999999999542e-03 5.068999999999999721e-03 -8.569000000000000228e-03 -1.062899999999999956e-02 2.426000000000000031e-02 1.637000000000000000e-03 4.625400000000000345e-02 2.767899999999999874e-02 -3.855999999999999706e-02 -6.479000000000000384e-03 2.113900000000000154e-02 1.965000000000000167e-03 -4.215200000000000197e-02 -1.404500000000000019e-02 -1.326699999999999928e-02 -9.529999999999999626e-04 2.996800000000000158e-02 1.306599999999999949e-02 2.102000000000000136e-03 2.213899999999999896e-02 -7.605999999999999914e-03 8.411999999999999339e-03 -1.668999999999999911e-03 2.563800000000000107e-02 7.835999999999999216e-03 -5.694300000000000056e-02 -6.300799999999999457e-02 4.121299999999999963e-02 -2.801800000000000124e-02 -5.445099999999999940e-02 -2.249500000000000111e-02 -1.674300000000000094e-02 -6.376300000000000023e-02 5.648000000000000242e-03 -1.519999999999999997e-02 -5.793700000000000239e-02 1.869999999999999917e-03 -4.547999999999999959e-03 -7.361499999999999988e-02 1.120099999999999915e-02 7.505000000000000386e-03 -4.076400000000000162e-02 3.535399999999999654e-02 -1.308199999999999988e-02 -4.176499999999999657e-02 1.064400000000000068e-02 2.519499999999999865e-02 -5.245699999999999669e-02 -6.530000000000000431e-04 -9.709999999999999664e-04 -2.087400000000000019e-02 1.507400000000000059e-02 -2.069999999999999900e-04 2.373899999999999968e-02 -8.486000000000000487e-03 1.546800000000000085e-02 4.128300000000000025e-02 -4.130199999999999844e-02 8.933999999999999234e-03 2.247100000000000139e-02 5.134500000000000175e-02 2.219600000000000045e-02 5.241599999999999732e-02 2.899200000000000041e-02 4.202000000000000006e-03 5.941300000000000053e-02 -3.373400000000000010e-02 2.670000000000000151e-02 2.297899999999999943e-02 -1.332099999999999951e-02 7.794999999999999846e-03 4.714200000000000335e-02 -9.813000000000000542e-03 1.052999999999999943e-02 3.100800000000000084e-02 -1.644199999999999828e-02 -1.074300000000000081e-02 6.147799999999999793e-02 1.310799999999999986e-02 -4.261100000000000304e-02 -6.556000000000000195e-03 -1.164300000000000057e-02 -9.389999999999999476e-04 1.062600000000000003e-02 2.822500000000000009e-02 2.405000000000000020e-03 -2.734500000000000125e-02 -2.291999999999999940e-02 -1.624700000000000102e-02 -2.612499999999999892e-02 2.721499999999999961e-02 7.511000000000000315e-03 -1.676899999999999918e-02 9.280000000000000054e-03 -1.601299999999999946e-02 -1.322000000000000085e-02 -5.756700000000000012e-02 2.110700000000000076e-02 3.278799999999999770e-02 1.410199999999999995e-02 1.162299999999999965e-02 1.128000000000000096e-03 3.809999999999999910e-04 -1.072799999999999969e-02 -1.375499999999999987e-02 2.459999999999999947e-03 -2.747600000000000042e-02 5.763299999999999673e-02 -4.664000000000000090e-02 -2.613400000000000098e-02 1.310700000000000059e-02 -1.067999999999999939e-03 -3.543500000000000122e-02 1.462899999999999964e-02 -1.527799999999999991e-02 -2.326299999999999896e-02 4.189600000000000268e-02 -1.013089999999999963e-01 -7.166999999999999760e-03 4.038499999999999729e-02 5.670000000000000040e-02 -2.287199999999999997e-02 4.665400000000000102e-02 8.097000000000000031e-02 9.688999999999999696e-03 -1.016899999999999922e-02 1.439499999999999981e-02 -2.332000000000000045e-02 2.435700000000000018e-02 8.647999999999999438e-03 -1.925199999999999828e-02 -2.441099999999999867e-02 4.138499999999999818e-02 5.792900000000000132e-02 4.247399999999999787e-02 -4.739800000000000263e-02 1.070399999999999997e-02 4.643699999999999911e-02 2.507699999999999860e-02 2.821900000000000103e-02 -1.081900000000000049e-02 3.602799999999999753e-02 1.275599999999999998e-02 5.884999999999999606e-03 -4.808300000000000074e-02 -1.330100000000000032e-02 -6.167999999999999872e-03 2.993600000000000080e-02 -1.327500000000000034e-02 -4.642299999999999899e-02 -3.525199999999999861e-02 5.471299999999999775e-02 -8.806799999999999351e-02 -5.745000000000000107e-03 -1.269999999999999948e-02 4.150700000000000223e-02 -9.693000000000000227e-03 2.071599999999999830e-02 2.994799999999999893e-02 -3.937999999999999834e-02
-4.686699999999999894e-02 -5.152400000000000035e-02 -1.815299999999999900e-02 1.008799999999999975e-02 -1.490200000000000032e-02 -2.158799999999999955e-02 4.772499999999999659e-02 5.185999999999999638e-03 9.123900000000000066e-02 5.570399999999999657e-02 -7.457099999999999840e-02 -1.423999999999999919e-02 4.252600000000000130e-02 6.061000000000000415e-03 -8.494100000000000261e-02 -2.800000000000000058e-02 -2.446500000000000064e-02 -2.337999999999999801e-03 5.955699999999999883e-02 2.811999999999999916e-02 3.592000000000000141e-03 4.413099999999999662e-02 -1.311700000000000019e-02 1.617400000000000088e-02 -3.383999999999999855e-03 5.328000000000000097e-02 1.493899999999999915e-02 -1.128360000000000057e-01 -7.791499999999999815e-02 8.086999999999999744e-02 -5.611900000000000222e-02 -6.082499999999999712e-02 -4.494499999999999884e-02 -3.343000000000000138e-02 -7.913699999999999901e-02 1.127200000000000077e-02 -3.017799999999999996e-02 -6.783599999999999353e-02 3.778999999999999807e-03 -9.166000000000000536e-03 -9.853800000000000059e-02 2.213800000000000143e-02 1.477499999999999994e-02 -3.347800000000000081e-02 7.033499999999999475e-02 -2.601600000000000093e-02 -3.551599999999999896e-02 2.115099999999999966e-02 5.031599999999999961e-02 -5.668999999999999734e-02 -1.325999999999999922e-03 -1.801000000000000083e-03 6.249000000000000214e-03 3.002600000000000061e-02 -4.679999999999999915e-04 -1.152000000000000029e-03 -1.665000000000000160e-02 3.037300000000000069e-02 3.376699999999999841e-02 -8.204000000000000181e-02 1.784600000000000075e-02 -4.246999999999999907e-03 1.032409999999999994e-01 4.442999999999999727e-02 5.582899999999999668e-02 5.802299999999999819e-02 8.231999999999999734e-03 6.986599999999999755e-02 -6.670900000000000440e-02 5.331799999999999734e-02 -2.335999999999999969e-03 -2.584399999999999892e-02 1.547399999999999991e-02 4.536500000000000254e-02 -1.960599999999999843e-02 2.107900000000000051e-02 1.328999999999999973e-02 -3.270599999999999896e-02 -2.141099999999999948e-02 7.405499999999999583e-02 2.620099999999999860e-02 -8.477200000000000013e-02 -1.303400000000000045e-02 -2.232200000000000156e-02 -1.796999999999999986e-03 2.175399999999999903e-02 5.678799999999999820e-02 4.721999999999999635e-03 -5.380299999999999666e-02 -4.527400000000000174e-02 -3.261100000000000110e-02 -5.197100000000000330e-02 5.497799999999999909e-02 1.501399999999999957e-02 -3.317200000000000010e-02 1.891299999999999926e-02 -3.164100000000000246e-02 -2.569400000000000156e-02 -1.136250000000000038e-01 4.197800000000000142e-02 6.598600000000000299e-02 2.865600000000000092e-02 2.325699999999999990e-02 2.625999999999999862e-03 9.810000000000001011e-04 -2.147699999999999956e-02 -2.697899999999999951e-02 5.336999999999999730e-03 -5.503000000000000252e-02 1.044830000000000064e-01 -9.354600000000000415e-02 -5.181199999999999695e-02 1.579699999999999854e-02 -2.266999999999999918e-03 -7.041999999999999649e-02 1.877200000000000049e-02 -3.019799999999999915e-02 -4.548300000000000259e-02 7.339600000000000291e-02 -2.016080000000000094e-01 -1.460700000000000019e-02 7.036699999999999899e-02 1.132940000000000058e-01 -4.575400000000000300e-02 8.262200000000000100e-02 1.608040000000000025e-01 1.932199999999999890e-02 -3.045099999999999890e-02 2.858000000000000124e-02 -4.641399999999999693e-02 3.817700000000000260e-02 1.714699999999999905e-02 -3.821100000000000191e-02 -5.886099999999999666e-02 8.214899999999999980e-02 1.153119999999999978e-01 9.291499999999999759e-02 -9.371599999999999375e-02 2.136000000000000051e-02 1.006930000000000047e-01 5.021199999999999969e-02 5.589500000000000024e-02 -1.289900000000000074e-02 7.194899999999999907e-02 2.567300000000000137e-02 2.044299999999999937e-02 -9.540800000000000669e-02 -2.637199999999999961e-02 -3.811000000000000151e-03 6.015800000000000314e-02 -2.630800000000000152e-02 -8.386100000000000498e-02 -6.962000000000000133e-02 1.080870000000000025e-01 -1.668159999999999921e-01 -1.064599999999999921e-02 -2.547200000000000158e-02 9.098499999999999643e-02 -1.907100000000000115e-02 4.155500000000000166e-02 6.781199999999999728e-02 -7.769900000000000417e-02
-7.051799999999999735e-02 -7.574400000000000577e-02 -2.797099999999999934e-02 1.511099999999999943e-02 -2.107300000000000145e-02 -3.241000000000000131e-02 7.023300000000000376e-02 8.550000000000000308e-03 1.351090000000000069e-01 8.389299999999999535e-02 -1.098969999999999947e-01 -2.291899999999999840e-02 6.401099999999999846e-02 1.016500000000000042e-02 -1.276400000000000035e-01 -4.179900000000000282e-02 -3.577600000000000224e-02 -3.831000000000000204e-03 8.866100000000000370e-02 4.297700000000000131e-02 4.898999999999999709e-03 6.577500000000000013e-02 -1.866100000000000050e-02 2.362099999999999964e-02 -5.178000000000000311e-03 8.057499999999999385e-02 2.170300000000000007e-02 -1.674480000000000135e-01 -9.267899999999999749e-02 1.185729999999999978e-01 -8.417199999999999682e-02 -6.725200000000000622e-02 -6.732599999999999696e-02 -4.991600000000000203e-02 -9.408900000000000596e-02 1.651899999999999896e-02 -4.485200000000000298e-02 -7.783500000000000141e-02 5.442999999999999922e-03 -1.379799999999999950e-02 -1.226349999999999940e-01 3.259299999999999697e-02 2.178000000000000075e-02 -2.623699999999999991e-02 1.045760000000000023e-01 -3.874299999999999966e-02 -2.946199999999999861e-02 3.123700000000000088e-02 7.521100000000000008e-02 -6.065399999999999958e-02 -2.210000000000000159e-03 -2.523000000000000069e-03 3.310899999999999954e-02 4.463700000000000306e-02 -8.379999999999999862e-04 -2.575900000000000065e-02 -2.442899999999999933e-02 4.459199999999999969e-02 2.623699999999999991e-02 -1.220460000000000017e-01 2.668399999999999939e-02 -3.115000000000000061e-02 1.554069999999999896e-01 6.663900000000000379e-02 5.897700000000000164e-02 8.704000000000000625e-02 1.202699999999999950e-02 8.016299999999999815e-02 -9.862600000000000533e-02 7.963699999999999946e-02 -2.689799999999999830e-02 -3.751299999999999774e-02 2.296000000000000124e-02 4.346799999999999969e-02 -2.934099999999999903e-02 3.161599999999999827e-02 -4.374000000000000284e-03 -4.860500000000000237e-02 -3.193100000000000105e-02 8.651200000000000556e-02 3.930999999999999772e-02 -1.261170000000000069e-01 -1.972900000000000001e-02 -3.232100000000000251e-02 -2.570999999999999935e-03 3.289700000000000263e-02 8.523899999999999533e-02 6.923000000000000334e-03 -7.966199999999999670e-02 -6.712300000000000211e-02 -4.898399999999999976e-02 -7.775600000000000567e-02 8.290599999999999359e-02 2.253900000000000001e-02 -4.955199999999999882e-02 2.866000000000000145e-02 -4.676899999999999807e-02 -3.775400000000000283e-02 -1.681600000000000039e-01 6.256499999999999562e-02 9.901799999999999491e-02 4.322100000000000247e-02 3.485699999999999910e-02 4.108999999999999805e-03 1.484000000000000076e-03 -3.223600000000000076e-02 -4.003799999999999720e-02 8.262000000000000247e-03 -8.252500000000000113e-02 1.507060000000000066e-01 -1.401320000000000066e-01 -7.683399999999999952e-02 1.848500000000000143e-02 -3.549000000000000071e-03 -1.048140000000000044e-01 2.280599999999999988e-02 -4.451700000000000101e-02 -6.650100000000000455e-02 1.048089999999999994e-01 -2.999359999999999804e-01 -2.228899999999999978e-02 1.001800000000000052e-01 1.693890000000000118e-01 -6.846800000000000108e-02 1.180810000000000054e-01 2.389129999999999865e-01 2.876799999999999843e-02 -5.029700000000000143e-02 4.253699999999999842e-02 -6.914800000000000113e-02 5.171200000000000102e-02 2.553199999999999914e-02 -5.675000000000000183e-02 -9.269099999999999562e-02 1.220650000000000068e-01 1.717740000000000100e-01 1.424559999999999993e-01 -1.390319999999999889e-01 3.199099999999999860e-02 1.537580000000000058e-01 7.475099999999999800e-02 8.285099999999999409e-02 -1.476700000000000061e-02 1.070470000000000033e-01 3.873100000000000154e-02 3.502000000000000252e-02 -1.420379999999999976e-01 -3.911499999999999699e-02 -1.546000000000000065e-03 8.999799999999999467e-02 -3.905399999999999844e-02 -1.206020000000000009e-01 -1.032840000000000008e-01 1.598019999999999996e-01 -2.442749999999999921e-01 -1.510200000000000084e-02 -3.826999999999999846e-02 1.394930000000000059e-01 -2.854299999999999893e-02 6.240699999999999720e-02 1.047970000000000013e-01 -1.151139999999999941e-01
-9.417799999999999783e-02 -9.932900000000000063e-02 -3.809400000000000286e-02 2.015799999999999884e-02 -2.700200000000000169e-02 -4.295100000000000307e-02 9.163699999999999624e-02 1.173300000000000037e-02 1.776429999999999954e-01 1.120720000000000049e-01 -1.442769999999999886e-01 -3.248999999999999805e-02 8.540100000000000469e-02 1.430900000000000054e-02 -1.699160000000000115e-01 -5.532999999999999724e-02 -4.721100000000000296e-02 -5.446999999999999585e-03 1.171399999999999941e-01 5.756599999999999911e-02 6.081999999999999733e-03 8.693499999999999839e-02 -2.422200000000000047e-02 3.073400000000000090e-02 -7.088999999999999815e-03 1.073420000000000069e-01 2.816700000000000106e-02 -2.205429999999999890e-01 -1.071949999999999986e-01 1.541579999999999895e-01 -1.120469999999999938e-01 -7.375099999999999711e-02 -8.934899999999999787e-02 -6.606499999999999873e-02 -1.084849999999999981e-01 2.133699999999999833e-02 -5.913000000000000200e-02 -8.798799999999999677e-02 6.782999999999999967e-03 -1.842999999999999847e-02 -1.456860000000000099e-01 4.250799999999999718e-02 2.846399999999999972e-02 -1.905199999999999949e-02 1.378639999999999866e-01 -5.118999999999999939e-02 -2.367800000000000113e-02 4.082399999999999918e-02 9.975499999999999645e-02 -6.420299999999999618e-02 -3.298000000000000150e-03 -3.115000000000000147e-03 5.956600000000000089e-02 5.884299999999999947e-02 -1.389999999999999960e-03 -5.001900000000000096e-02 -3.178899999999999781e-02 5.797900000000000276e-02 1.871499999999999900e-02 -1.611750000000000127e-01 3.538299999999999779e-02 -5.802700000000000219e-02 2.074070000000000080e-01 8.876799999999999968e-02 6.176600000000000146e-02 1.159459999999999935e-01 1.554099999999999926e-02 9.031599999999999351e-02 -1.291799999999999893e-01 1.054380000000000039e-01 -5.047200000000000297e-02 -4.834900000000000309e-02 3.019300000000000109e-02 4.143899999999999667e-02 -3.899199999999999888e-02 4.210699999999999860e-02 -2.194400000000000170e-02 -6.400999999999999746e-02 -4.219200000000000034e-02 9.881299999999999806e-02 5.238600000000000201e-02 -1.663179999999999936e-01 -2.657500000000000140e-02 -4.171799999999999814e-02 -3.272999999999999868e-03 4.395400000000000001e-02 1.132879999999999998e-01 8.949999999999999623e-03 -1.047970000000000013e-01 -8.841799999999999660e-02 -6.523299999999999932e-02 -1.033189999999999942e-01 1.108429999999999971e-01 3.005700000000000038e-02 -6.585000000000000575e-02 3.855599999999999999e-02 -6.130599999999999938e-02 -4.932999999999999885e-02 -2.209270000000000123e-01 8.280200000000000060e-02 1.317059999999999897e-01 5.757500000000000118e-02 4.643400000000000305e-02 5.566999999999999900e-03 1.825000000000000016e-03 -4.294100000000000000e-02 -5.282699999999999896e-02 1.113899999999999960e-02 -1.097719999999999946e-01 1.959509999999999863e-01 -1.859290000000000109e-01 -1.009950000000000014e-01 2.115300000000000166e-02 -4.941000000000000079e-03 -1.384380000000000055e-01 2.672899999999999929e-02 -5.811000000000000193e-02 -8.618800000000000072e-02 1.359509999999999885e-01 -3.954010000000000025e-01 -3.017600000000000143e-02 1.295969999999999900e-01 2.244500000000000106e-01 -9.083199999999999608e-02 1.527729999999999921e-01 3.145830000000000015e-01 3.790899999999999825e-02 -6.956400000000000083e-02 5.612400000000000028e-02 -9.134699999999999764e-02 6.480500000000000149e-02 3.371099999999999791e-02 -7.470499999999999363e-02 -1.256140000000000034e-01 1.607790000000000052e-01 2.268340000000000078e-01 1.907200000000000006e-01 -1.829689999999999928e-01 4.252000000000000224e-02 2.051969999999999905e-01 9.849900000000000322e-02 1.088820000000000066e-01 -1.640199999999999991e-02 1.410760000000000070e-01 5.190299999999999775e-02 4.952999999999999764e-02 -1.875549999999999995e-01 -5.138600000000000112e-02 5.890000000000000053e-04 1.192389999999999978e-01 -5.146400000000000280e-02 -1.563170000000000115e-01 -1.359289999999999943e-01 2.095339999999999980e-01 -3.198369999999999824e-01 -1.905300000000000049e-02 -5.102600000000000191e-02 1.866669999999999996e-01 -3.803999999999999743e-02 8.315000000000000169e-02 1.406600000000000072e-01 -1.512860000000000038e-01
-1.177340000000000053e-01 -1.220500000000000057e-01 -4.846700000000000313e-02 2.527499999999999886e-02 -3.261300000000000310e-02 -5.306700000000000306e-02 1.118380000000000069e-01 1.476300000000000008e-02 2.186420000000000030e-01 1.400589999999999891e-01 -1.774729999999999919e-01 -4.287200000000000039e-02 1.064839999999999953e-01 1.854199999999999945e-02 -2.114020000000000066e-01 -6.851000000000000145e-02 -5.879199999999999704e-02 -7.163000000000000096e-03 1.448679999999999968e-01 7.184100000000000208e-02 7.204000000000000334e-03 1.074620000000000020e-01 -2.978400000000000145e-02 3.751399999999999874e-02 -9.143999999999999351e-03 1.333850000000000036e-01 3.435699999999999865e-02 -2.718900000000000206e-01 -1.213650000000000007e-01 1.874709999999999988e-01 -1.396040000000000059e-01 -8.032000000000000250e-02 -1.107589999999999963e-01 -8.174700000000000022e-02 -1.221980000000000011e-01 2.568700000000000150e-02 -7.292300000000000171e-02 -9.831900000000000361e-02 7.727000000000000361e-03 -2.307000000000000023e-02 -1.675020000000000120e-01 5.182699999999999807e-02 3.478699999999999848e-02 -1.192499999999999984e-02 1.700160000000000005e-01 -6.330800000000000316e-02 -1.824800000000000033e-02 4.983800000000000036e-02 1.238479999999999998e-01 -6.722699999999999509e-02 -4.615000000000000178e-03 -3.566000000000000159e-03 8.550599999999999867e-02 7.255899999999999850e-02 -2.186000000000000009e-03 -7.386800000000000310e-02 -3.869000000000000217e-02 7.043299999999999561e-02 1.121300000000000074e-02 -1.992899999999999949e-01 4.390700000000000158e-02 -8.463900000000000590e-02 2.587729999999999753e-01 1.107609999999999983e-01 6.409199999999999620e-02 1.445919999999999983e-01 1.873400000000000065e-02 1.003509999999999958e-01 -1.581210000000000115e-01 1.304760000000000086e-01 -7.285300000000000109e-02 -5.842699999999999977e-02 3.710100000000000203e-02 3.928100000000000341e-02 -4.852100000000000163e-02 5.251000000000000112e-02 -3.939999999999999752e-02 -7.879500000000000393e-02 -5.208999999999999742e-02 1.109190000000000037e-01 6.539200000000000568e-02 -2.050460000000000060e-01 -3.350500000000000006e-02 -5.058800000000000102e-02 -3.910000000000000281e-03 5.484399999999999692e-02 1.406850000000000045e-01 1.074800000000000061e-02 -1.290939999999999865e-01 -1.090880000000000044e-01 -8.123400000000000065e-02 -1.284869999999999901e-01 1.386149999999999882e-01 3.751999999999999780e-02 -8.200699999999999656e-02 4.864799999999999680e-02 -7.516599999999999671e-02 -6.036899999999999905e-02 -2.716959999999999931e-01 1.026119999999999949e-01 1.638539999999999996e-01 7.151399999999999424e-02 5.799300000000000288e-02 6.984999999999999890e-03 1.971999999999999795e-03 -5.352400000000000213e-02 -6.522899999999999532e-02 1.387700000000000045e-02 -1.365419999999999967e-01 2.398689999999999989e-01 -2.304319999999999979e-01 -1.240990000000000010e-01 2.380300000000000124e-02 -6.478000000000000251e-03 -1.710969999999999991e-01 3.052900000000000058e-02 -7.085700000000000331e-02 -1.044240000000000029e-01 1.666120000000000101e-01 -4.871159999999999934e-01 -3.821299999999999697e-02 1.583789999999999920e-01 2.779099999999999904e-01 -1.126479999999999981e-01 1.864520000000000066e-01 3.870930000000000204e-01 4.659499999999999753e-02 -8.812899999999999900e-02 6.921199999999999575e-02 -1.128640000000000060e-01 7.729700000000000459e-02 4.159399999999999903e-02 -9.195299999999999307e-02 -1.573670000000000069e-01 1.979249999999999898e-01 2.800540000000000251e-01 2.373429999999999984e-01 -2.251410000000000078e-01 5.285900000000000321e-02 2.546169999999999822e-01 1.212440000000000045e-01 1.338110000000000133e-01 -1.779800000000000132e-02 1.737710000000000088e-01 6.513599999999999945e-02 6.385399999999999410e-02 -2.315210000000000046e-01 -6.306000000000000494e-02 2.566999999999999837e-03 1.476480000000000015e-01 -6.350999999999999701e-02 -1.907050000000000134e-01 -1.672619999999999940e-01 2.570009999999999795e-01 -3.929270000000000262e-01 -2.244200000000000014e-02 -6.365099999999999925e-02 2.321499999999999952e-01 -4.749500000000000249e-02 1.036620000000000041e-01 1.751820000000000044e-01 -1.858980000000000077e-01
-1.410810000000000120e-01 -1.436759999999999982e-01 -5.902000000000000302e-02 3.048199999999999868e-02 -3.783099999999999657e-02 -6.263699999999999823e-02 1.307409999999999961e-01 1.766099999999999962e-02 2.579960000000000031e-01 1.676719999999999877e-01 -2.092529999999999946e-01 -5.400900000000000145e-02 1.270709999999999895e-01 2.289700000000000069e-02 -2.517670000000000186e-01 -8.123299999999999965e-02 -7.052799999999999347e-02 -9.003999999999999851e-03 1.717569999999999930e-01 8.574500000000000177e-02 8.344000000000000722e-03 1.272369999999999890e-01 -3.532400000000000123e-02 4.396800000000000014e-02 -1.138899999999999982e-02 1.585540000000000005e-01 4.036000000000000004e-02 -3.213349999999999818e-01 -1.350830000000000086e-01 2.184790000000000065e-01 -1.667240000000000111e-01 -8.698400000000000576e-02 -1.312679999999999958e-01 -9.682799999999999740e-02 -1.351169999999999871e-01 2.954800000000000135e-02 -8.617099999999999760e-02 -1.088930000000000037e-01 8.234000000000000000e-03 -2.770200000000000093e-02 -1.879109999999999947e-01 6.054899999999999866e-02 4.068499999999999894e-02 -4.863000000000000135e-03 2.008790000000000020e-01 -7.504700000000000260e-02 -1.320999999999999952e-02 5.822299999999999698e-02 1.473750000000000060e-01 -6.957800000000000096e-02 -6.133000000000000430e-03 -3.850999999999999823e-03 1.107950000000000046e-01 8.578199999999999714e-02 -3.288000000000000124e-03 -9.726799999999999335e-02 -4.511400000000000132e-02 8.182899999999999896e-02 3.745000000000000065e-03 -2.363399999999999945e-01 5.218799999999999828e-02 -1.107800000000000035e-01 3.090840000000000254e-01 1.325780000000000014e-01 6.585499999999999687e-02 1.729330000000000034e-01 2.157799999999999996e-02 1.102810000000000040e-01 -1.851919999999999955e-01 1.545519999999999949e-01 -9.383700000000000374e-02 -6.782799999999999940e-02 4.363800000000000318e-02 3.696900000000000186e-02 -5.794599999999999751e-02 6.281299999999999384e-02 -5.672100000000000058e-02 -9.285300000000000498e-02 -6.153299999999999742e-02 1.228100000000000025e-01 7.827399999999999636e-02 -2.420130000000000059e-01 -4.042699999999999766e-02 -5.909799999999999776e-02 -4.498000000000000262e-03 6.545399999999999829e-02 1.671209999999999918e-01 1.226799999999999939e-02 -1.524580000000000102e-01 -1.291400000000000048e-01 -9.686000000000000165e-02 -1.531150000000000011e-01 1.660139999999999949e-01 4.491900000000000059e-02 -9.797599999999999365e-02 5.892800000000000121e-02 -8.829900000000000249e-02 -7.082499999999999907e-02 -3.203090000000000104e-01 1.219549999999999940e-01 1.953169999999999906e-01 8.480200000000000238e-02 6.954000000000000459e-02 8.354999999999999580e-03 1.827999999999999981e-03 -6.391900000000000359e-02 -7.716900000000000148e-02 1.635400000000000048e-02 -1.626559999999999950e-01 2.821279999999999899e-01 -2.732209999999999916e-01 -1.459900000000000087e-01 2.639899999999999886e-02 -8.181000000000000771e-03 -2.026650000000000118e-01 3.420499999999999929e-02 -8.268699999999999661e-02 -1.211379999999999957e-01 1.966219999999999912e-01 -5.743489999999999984e-01 -4.635299999999999837e-02 1.863140000000000074e-01 3.292590000000000239e-01 -1.337289999999999868e-01 2.188869999999999982e-01 4.558579999999999854e-01 5.474299999999999999e-02 -1.058579999999999938e-01 8.165999999999999648e-02 -1.335349999999999870e-01 8.904299999999999715e-02 4.907199999999999757e-02 -1.083469999999999989e-01 -1.876780000000000115e-01 2.331979999999999886e-01 3.310219999999999829e-01 2.819969999999999977e-01 -2.652030000000000221e-01 6.293799999999999395e-02 3.016449999999999965e-01 1.428599999999999870e-01 1.574579999999999869e-01 -1.893299999999999844e-02 2.049620000000000053e-01 7.837299999999999822e-02 7.791199999999999515e-02 -2.735319999999999974e-01 -7.399899999999999534e-02 4.342000000000000373e-03 1.750359999999999971e-01 -7.514999999999999458e-02 -2.234929999999999972e-01 -1.969740000000000102e-01 3.019839999999999747e-01 -4.629780000000000006e-01 -2.521599999999999883e-02 -7.607600000000000473e-02 2.756129999999999969e-01 -5.679499999999999826e-02 1.238199999999999995e-01 2.081689999999999929e-01 -2.186579999999999913e-01