 vasp.6.1.1 19Jun20 (build Dec 21 2021 08:45:49) complex                        
  
 executed on             LinuxIFC date 2023.10.08  15:47:44
 running on   40 total cores
 distrk:  each k-point on   40 cores,    1 groups
 distr:  one band on NCORE=   1 cores,   40 groups


--------------------------------------------------------------------------------------------------------


 INCAR:
 POTCAR:   PAW_PBE Te 08Apr2002                   
 POTCAR:   PAW_PBE Mo 08Apr2002                   
 -----------------------------------------------------------------------------
|                                                                             |
|           W    W    AA    RRRRR   N    N  II  N    N   GGGG   !!!           |
|           W    W   A  A   R    R  NN   N  II  NN   N  G    G  !!!           |
|           W    W  A    A  R    R  N N  N  II  N N  N  G       !!!           |
|           W WW W  AAAAAA  RRRRR   N  N N  II  N  N N  G  GGG   !            |
|           WW  WW  A    A  R   R   N   NN  II  N   NN  G    G                |
|           W    W  A    A  R    R  N    N  II  N    N   GGGG   !!!           |
|                                                                             |
|     For optimal performance we recommend to set                             |
|       NCORE = 4 - approx SQRT(number of cores).                             |
|     NCORE specifies how many cores store one orbital (NPAR=cpu/NCORE).      |
|     This setting can greatly improve the performance of VASP for DFT.       |
|     The default, NCORE=1 might be grossly inefficient on modern             |
|     multi-core architectures or massively parallel machines. Do your        |
|     own testing!!!!                                                         |
|     Unfortunately you need to use the default for GW and RPA                |
|     calculations (for HF NCORE is supported but not extensively tested      |
|     yet).                                                                   |
|                                                                             |
 -----------------------------------------------------------------------------

 POTCAR:   PAW_PBE Te 08Apr2002                   
   VRHFIN =Te: s2p4                                                                                 
   LEXCH  = PE                                                                                      
   EATOM  =   223.2721 eV,   16.4100 Ry                                                             
                                                                                                    
   TITEL  = PAW_PBE Te 08Apr2002                                                                    
   LULTRA =        F    use ultrasoft PP ?                                                          
   IUNSCR =        1    unscreen: 0-lin 1-nonlin 2-no                                               
   RPACOR =    2.200    partial core radius                                                         
   POMASS =  127.600; ZVAL   =    6.000    mass and valenz                                          
   RCORE  =    2.300    outmost cutoff radius                                                       
   RWIGS  =    2.900; RWIGS  =    1.535    wigner-seitz radius (au A)                               
   ENMAX  =  174.982; ENMIN  =  131.236 eV                                                          
   ICORE  =        3    local potential                                                             
   LCOR   =        T    correct aug charges                                                         
   LPAW   =        T    paw PP                                                                      
   EAUG   =  368.792                                                                                
   DEXC   =    -.169                                                                                
   RMAX   =    3.486    core radius for proj-oper                                                   
   RAUG   =    1.300    factor for augmentation sphere                                              
   RDEP   =    2.397    radius for radial grids                                                     
   QCUT   =   -3.586; QGAM   =    7.172    optimization parameters                                  
                                                                                                    
   Description                                                                                      
     l     E      TYP  RCUT    TYP  RCUT                                                            
     0   .000     23  2.300                                                                         
     0   .000     23  2.300                                                                         
     1   .000     23  2.300                                                                         
     1   .000     23  2.300                                                                         
     2   .000     23  2.300                                                                         
     3  -.100     23  2.300                                                                         
  local pseudopotential read in
  partial core-charges read in
  atomic valenz-charges read in
  non local Contribution for L=           0  read in
    real space projection operators read in
  non local Contribution for L=           0  read in
    real space projection operators read in
  non local Contribution for L=           1  read in
    real space projection operators read in
  non local Contribution for L=           1  read in
    real space projection operators read in
  non local Contribution for L=           2  read in
    real space projection operators read in
    PAW grid and wavefunctions read in
 
   number of l-projection  operators is LMAX  =           5
   number of lm-projection operators is LMMAX =          13
 
 POTCAR:   PAW_PBE Mo 08Apr2002                   
   VRHFIN =Mo: 4p5s4d                                                                               
   LEXCH  = PE                                                                                      
   EATOM  =   217.5180 eV,   15.9871 Ry                                                             
                                                                                                    
   TITEL  = PAW_PBE Mo 08Apr2002                                                                    
   LULTRA =        F    use ultrasoft PP ?                                                          
   IUNSCR =        1    unscreen: 0-lin 1-nonlin 2-no                                               
   RPACOR =    2.200    partial core radius                                                         
   POMASS =   95.940; ZVAL   =    6.000    mass and valenz                                          
   RCORE  =    2.750    outmost cutoff radius                                                       
   RWIGS  =    2.750; RWIGS  =    1.455    wigner-seitz radius (au A)                               
   ENMAX  =  224.584; ENMIN  =  168.438 eV                                                          
   RCLOC  =    2.111    cutoff for local pot                                                        
   LCOR   =        T    correct aug charges                                                         
   LPAW   =        T    paw PP                                                                      
   EAUG   =  345.278                                                                                
   DEXC   =    -.088                                                                                
   RMAX   =    3.077    core radius for proj-oper                                                   
   RAUG   =    1.300    factor for augmentation sphere                                              
   RDEP   =    2.815    radius for radial grids                                                     
   QCUT   =   -4.063; QGAM   =    8.126    optimization parameters                                  
                                                                                                    
   Description                                                                                      
     l     E      TYP  RCUT    TYP  RCUT                                                            
     2   .000     23  2.500                                                                         
     2   .000     23  2.500                                                                         
     0   .000     23  2.600                                                                         
     0  1.000     23  2.600                                                                         
     1   .400     23  2.750                                                                         
     1  2.000     23  2.750                                                                         
     3   .000      7   .000                                                                         
  local pseudopotential read in
  partial core-charges read in
  atomic valenz-charges read in
  non local Contribution for L=           2  read in
    real space projection operators read in
  non local Contribution for L=           2  read in
    real space projection operators read in
  non local Contribution for L=           0  read in
    real space projection operators read in
  non local Contribution for L=           0  read in
    real space projection operators read in
  non local Contribution for L=           1  read in
    real space projection operators read in
  non local Contribution for L=           1  read in
    real space projection operators read in
    PAW grid and wavefunctions read in
 
   number of l-projection  operators is LMAX  =           6
   number of lm-projection operators is LMMAX =          18
 
 -----------------------------------------------------------------------------
|                                                                             |
|               ----> ADVICE to this user running VASP <----                  |
|                                                                             |
|     You have a (more or less) 'large supercell' and for larger cells it     |
|     might be more efficient to use real-space projection operators.         |
|     Therefore, try LREAL= Auto in the INCAR file.                           |
|     Mind: If you want to do very accurate calculations, keep the            |
|     reciprocal projection scheme (i.e. LREAL=.FALSE.).                      |
|                                                                             |
 -----------------------------------------------------------------------------

 PAW_PBE Te 08Apr2002                   :
 energy of atom  1       EATOM= -223.2721
 kinetic energy error for atom=    0.0006 (will be added to EATOM!!)
 PAW_PBE Mo 08Apr2002                   :
 energy of atom  2       EATOM= -217.5180
 kinetic energy error for atom=    0.0009 (will be added to EATOM!!)
 
 
 POSCAR: Te Mo
  positions in cartesian coordinates
  No initial velocities read in
 exchange correlation table for  LEXCH =        8
   RHO(1)=    0.500       N(1)  =     2000
   RHO(2)=  100.500       N(2)  =     4000
 


--------------------------------------------------------------------------------------------------------


 ion  position               nearest neighbor table
   1  0.110  0.222  0.321-  41 2.66  38 2.71  37 2.73   9 3.43   5 3.45   7 3.46   4 3.47   2 3.48
                             3 3.48  19 3.64
   2  0.111  0.555  0.321-  42 2.66  39 2.71  38 2.73   6 3.44   7 3.45   5 3.46   8 3.46   1 3.48
                             3 3.49  20 3.64
   3  0.111  0.889  0.321-  40 2.66  37 2.71  39 2.72   8 3.44   4 3.45   9 3.46   6 3.47   1 3.48
                             2 3.49  21 3.63
   4  0.445  0.222  0.321-  44 2.66  41 2.72  40 2.73   8 3.44   3 3.45   7 3.46   1 3.47   5 3.48
                             6 3.49  22 3.63
   5  0.444  0.555  0.321-  45 2.66  42 2.72  41 2.73   9 3.44   1 3.45   2 3.46   8 3.46   6 3.48
                             4 3.48  23 3.63
   6  0.445  0.888  0.321-  43 2.65  40 2.72  42 2.72   7 3.44   2 3.44   9 3.45   3 3.47   5 3.48
                             4 3.49  24 3.63
   7  0.777  0.222  0.321-  38 2.67  44 2.71  43 2.73   6 3.44   2 3.45   4 3.46   1 3.46   9 3.48
                             8 3.49  25 3.63
   8  0.778  0.556  0.320-  39 2.67  45 2.71  44 2.73   3 3.44   4 3.44   5 3.46   2 3.46   9 3.48
                             7 3.49  26 3.64
   9  0.778  0.889  0.321-  37 2.66  43 2.72  45 2.73   1 3.43   5 3.44   6 3.45   3 3.46   7 3.48
                             8 3.48  27 3.63
  10  0.222  0.055  0.558-  49 2.67  46 2.72  48 2.73  18 3.44  14 3.44  16 3.46  13 3.47  11 3.48
                            12 3.48  28 3.63
  11  0.223  0.389  0.558-  50 2.66  47 2.72  46 2.73  15 3.44  16 3.45  14 3.45  17 3.47  10 3.48
                            12 3.49  29 3.64
  12  0.222  0.722  0.558-  51 2.67  48 2.71  47 2.74  17 3.44  13 3.44  15 3.46  18 3.46  10 3.48
                            11 3.49  30 3.64
  13  0.556  0.055  0.559-  52 2.66  49 2.71  51 2.73  17 3.44  12 3.44  16 3.46  10 3.47  15 3.48
                            14 3.49  31 3.63
  14  0.556  0.389  0.558-  53 2.66  50 2.71  49 2.73  18 3.44  10 3.44  11 3.45  17 3.46  15 3.48
                            13 3.49  32 3.63
  15  0.555  0.722  0.559-  54 2.67  51 2.72  50 2.72  11 3.44  16 3.44  12 3.46  18 3.46  14 3.48
                            13 3.48  33 3.63
  16  0.889  0.055  0.559-  46 2.66  52 2.72  54 2.73  15 3.44  11 3.45  10 3.46  13 3.46  18 3.48
                            17 3.49  34 3.63
  17  0.889  0.389  0.558-  47 2.67  53 2.72  52 2.73  13 3.44  12 3.44  14 3.46  11 3.47  18 3.49
                            16 3.49  35 3.63
  18  0.889  0.722  0.558-  48 2.66  54 2.71  53 2.73  14 3.44  10 3.44  15 3.46  12 3.46  16 3.48
                            17 3.49  36 3.64
  19  0.112  0.223  0.442-  37 2.68  38 2.70  41 2.71  23 3.43  27 3.45  22 3.45  25 3.47  21 3.49
                            20 3.49   1 3.64
  20  0.111  0.556  0.442-  38 2.68  39 2.70  42 2.72  25 3.44  24 3.44  26 3.46  23 3.46  21 3.48
                            19 3.49   2 3.64
  21  0.111  0.889  0.442-  39 2.67  37 2.71  40 2.73  26 3.44  22 3.44  27 3.46  24 3.46  20 3.48
                            19 3.49   3 3.63
  22  0.444  0.222  0.442-  40 2.67  41 2.71  44 2.72  21 3.44  26 3.45  19 3.45  25 3.46  24 3.48
                            23 3.48   4 3.63
  23  0.444  0.555  0.442-  41 2.67  42 2.71  45 2.73  19 3.43  27 3.45  26 3.46  20 3.46  22 3.48
                            24 3.49   5 3.63
  24  0.444  0.889  0.442-  42 2.68  40 2.71  43 2.72  25 3.44  20 3.44  21 3.46  27 3.46  22 3.48
                            23 3.49   6 3.63
  25  0.778  0.222  0.442-  43 2.67  44 2.71  38 2.73  24 3.44  20 3.44  22 3.46  19 3.47  27 3.48
                            26 3.48   7 3.63
  26  0.778  0.556  0.442-  44 2.67  45 2.71  39 2.73  21 3.44  22 3.45  20 3.46  23 3.46  25 3.48
                            27 3.49   8 3.64
  27  0.778  0.889  0.442-  45 2.68  43 2.71  37 2.72  23 3.45  19 3.45  21 3.46  24 3.46  25 3.48
                            26 3.49   9 3.63
  28  0.222  0.056  0.679-  48 2.68  46 2.70  49 2.73  36 3.44  32 3.44  34 3.46  31 3.46  29 3.48
                            30 3.49  10 3.63
  29  0.223  0.389  0.679-  46 2.67  47 2.70  50 2.73  33 3.44  34 3.45  32 3.46  35 3.47  28 3.48
                            30 3.48  11 3.64
  30  0.222  0.722  0.679-  47 2.67  48 2.71  51 2.72  35 3.44  31 3.44  36 3.46  33 3.46  29 3.48
                            28 3.49  12 3.64
  31  0.555  0.056  0.679-  51 2.67  49 2.71  52 2.72  35 3.44  30 3.44  34 3.46  28 3.46  32 3.48
                            33 3.49  13 3.63
  32  0.556  0.389  0.679-  49 2.67  50 2.71  53 2.72  28 3.44  36 3.44  29 3.46  35 3.46  33 3.48
                            31 3.48  14 3.63
  33  0.556  0.722  0.679-  50 2.67  51 2.71  54 2.72  29 3.44  34 3.44  36 3.46  30 3.46  32 3.48
                            31 3.49  15 3.63
  34  0.889  0.056  0.679-  54 2.68  52 2.71  46 2.72  33 3.44  29 3.45  28 3.46  31 3.46  36 3.48
                            35 3.49  16 3.63
  35  0.889  0.389  0.679-  52 2.67  53 2.71  47 2.72  30 3.44  31 3.44  32 3.46  29 3.47  36 3.48
                            34 3.49  17 3.63
  36  0.889  0.722  0.679-  53 2.68  54 2.70  48 2.72  28 3.44  32 3.44  30 3.46  33 3.46  34 3.48
                            35 3.48  18 3.64
  37  1.000  1.000  0.381-   9 2.66  19 2.68  21 2.71   3 2.71  27 2.72   1 2.73  41 3.44  45 3.44
                            40 3.46  43 3.47  38 3.48  39 3.49
  38  0.001  0.333  0.381-   7 2.67  20 2.68  19 2.70   1 2.71  25 2.73   2 2.73  42 3.44  41 3.45
                            43 3.45  44 3.47  37 3.48  39 3.49
  39  0.000  0.667  0.381-   8 2.67  21 2.67  20 2.70   2 2.71   3 2.72  26 2.73  40 3.44  44 3.44
                            42 3.45  45 3.47  37 3.49  38 3.49
  40  0.334  0.000  0.381-   3 2.66  22 2.67  24 2.71   6 2.72  21 2.73   4 2.73  39 3.44  44 3.44
                            43 3.45  37 3.46  42 3.48  41 3.49
  41  0.333  0.333  0.381-   1 2.66  23 2.67  22 2.71  19 2.71   4 2.72   5 2.73  37 3.44  45 3.44
                            38 3.45  44 3.47  42 3.48  40 3.49
  42  0.333  0.667  0.381-   2 2.66  24 2.68  23 2.71   5 2.72  20 2.72   6 2.72  43 3.44  38 3.44
                            39 3.45  45 3.47  41 3.48  40 3.48
  43  0.666  1.000  0.381-   6 2.65  25 2.67  27 2.71   9 2.72  24 2.72   7 2.73  42 3.44  38 3.45
                            40 3.45  37 3.47  45 3.49  44 3.49
  44  0.667  0.334  0.381-   4 2.66  26 2.67  25 2.71   7 2.71  22 2.72   8 2.73  40 3.44  39 3.44
                            41 3.47  38 3.47  45 3.48  43 3.49
  45  0.667  0.667  0.381-   5 2.66  27 2.68  26 2.71   8 2.71  23 2.73   9 2.73  37 3.44  41 3.44
                            39 3.47  42 3.47  44 3.48  43 3.49
  46  0.111  0.167  0.619-  16 2.66  29 2.67  28 2.70  10 2.72  34 2.72  11 2.73  50 3.44  54 3.45
                            52 3.46  49 3.47  47 3.47  48 3.49
  47  0.111  0.500  0.619-  17 2.67  30 2.67  29 2.70  11 2.72  35 2.72  12 2.74  52 3.44  51 3.44
                            50 3.46  53 3.47  46 3.47  48 3.49
  48  0.111  0.833  0.619-  18 2.66  28 2.68  30 2.71  12 2.71  36 2.72  10 2.73  53 3.44  54 3.45
                            49 3.45  51 3.46  47 3.49  46 3.49
  49  0.445  0.167  0.619-  10 2.67  32 2.67  31 2.71  13 2.71  28 2.73  14 2.73  53 3.44  48 3.45
                            52 3.46  46 3.47  50 3.48  51 3.48
  50  0.445  0.500  0.619-  11 2.66  33 2.67  14 2.71  32 2.71  15 2.72  29 2.73  54 3.44  46 3.44
                            47 3.46  53 3.46  49 3.48  51 3.49
  51  0.444  0.834  0.619-  31 2.67  12 2.67  33 2.71  30 2.72  15 2.72  13 2.73  52 3.44  47 3.44
                            48 3.46  54 3.47  49 3.48  50 3.49
  52  0.778  0.167  0.619-  13 2.66  35 2.67  34 2.71  16 2.72  31 2.72  17 2.73  51 3.44  47 3.44
                            49 3.46  46 3.46  53 3.48
  53  0.778  0.500  0.619-  14 2.66  36 2.68  35 2.71  17 2.72  32 2.72  18 2.73  49 3.44  48 3.44
                            50 3.46  47 3.47  54 3.48  52 3.48
  54  0.778  0.833  0.619-  15 2.67  34 2.68  36 2.70  18 2.71  33 2.72  16 2.73  50 3.44  46 3.45
                            48 3.45  51 3.47  53 3.48
 

IMPORTANT INFORMATION: All symmetrisations will be switched off!
NOSYMM: (Re-)initialisation of all symmetry stuff for point group C_1.


----------------------------------------------------------------------------------------

                                     Primitive cell                                     

  volume of cell :    2806.3639

  direct lattice vectors                    reciprocal lattice vectors
    10.383962409  0.000000000  0.000000000     0.096302352  0.056911162  0.002543691
    -5.318268430  8.999319926  0.000000000     0.000000000  0.111119508  0.002310541
    -0.424204775 -0.624445534 30.031096090     0.000000000  0.000000000  0.033298818

  length of vectors
    10.383962409 10.453312309 30.040582789     0.111890543  0.111143527  0.033298818

  position of ions in fractional coordinates (direct lattice)
     0.110400006  0.221604607  0.320554315
     0.111213851  0.555093096  0.320566910
     0.110788245  0.888565839  0.320652585
     0.444735011  0.222199254  0.320663713
     0.444495909  0.555431081  0.320670000
     0.444798502  0.888452760  0.320727673
     0.777312653  0.221796950  0.320673188
     0.777950369  0.555835082  0.320463962
     0.777742131  0.889059494  0.320593620
     0.222147943  0.055464782  0.558423372
     0.222920252  0.388903147  0.558256439
     0.222214979  0.722233436  0.558317844
     0.555884159  0.055464462  0.558618068
     0.555636605  0.389090467  0.558433976
     0.555240070  0.721880901  0.558550508
     0.889039555  0.054962474  0.558500357
     0.889086105  0.388723112  0.558371202
     0.888642268  0.722012290  0.558450091
     0.111767911  0.222764214  0.441604599
     0.110873961  0.555876250  0.441647125
     0.110887575  0.888838690  0.441607600
     0.444074901  0.222038624  0.441537633
     0.444181130  0.555323079  0.441541528
     0.444473562  0.889314263  0.441678076
     0.777780047  0.222224774  0.441529304
     0.777816103  0.555570291  0.441523816
     0.777748881  0.889084765  0.441549031
     0.222080807  0.055950020  0.679220803
     0.222803316  0.389303118  0.679499611
     0.222007324  0.722220681  0.679326028
     0.555499922  0.055521549  0.679399557
     0.555764402  0.388968635  0.679420505
     0.555503900  0.722046392  0.679286480
     0.889101298  0.055555040  0.679399796
     0.888870018  0.388861953  0.679327849
     0.889104410  0.722345716  0.679485401
     0.999847054  0.999942309  0.381088686
     0.000625582  0.333240574  0.381108158
     0.000460651  0.666790918  0.381046224
     0.333533412  0.000124398  0.381106038
     0.332564741  0.333464030  0.381171361
     0.332951421  0.666710296  0.381083115
     0.665867923  0.999610981  0.381190148
     0.666634720  0.333519686  0.381166969
     0.666582678  0.666520366  0.380921343
     0.111284524  0.167290672  0.619025706
     0.111466099  0.499725742  0.619053232
     0.110582066  0.832889341  0.618742342
     0.445097828  0.167403659  0.618867858
     0.444757625  0.500280009  0.618799666
     0.444309768  0.833811875  0.619153969
     0.777681876  0.166895697  0.618991646
     0.777743848  0.500067809  0.618876522
     0.778251078  0.832840901  0.618991190

  ion indices of the primitive-cell ions
   primitive index   ion index
                 1           1
                 2           2
                 3           3
                 4           4
                 5           5
                 6           6
                 7           7
                 8           8
                 9           9
                10          10
                11          11
                12          12
                13          13
                14          14
                15          15
                16          16
                17          17
                18          18
                19          19
                20          20
                21          21
                22          22
                23          23
                24          24
                25          25
                26          26
                27          27
                28          28
                29          29
                30          30
                31          31
                32          32
                33          33
                34          34
                35          35
                36          36
                37          37
                38          38
                39          39
                40          40
                41          41
                42          42
                43          43
                44          44
                45          45
                46          46
                47          47
                48          48
                49          49
                50          50
                51          51
                52          52
                53          53
                54          54

----------------------------------------------------------------------------------------

 
 

Automatic generation of k-mesh.
 generate k-points for:    3    3    1
Space group operators:
 irot       det(A)        alpha          n_x          n_y          n_z        tau_x        tau_y        tau_z
    1     1.000000     0.000000     1.000000     0.000000     0.000000     0.000000     0.000000     0.000000
 
 Subroutine IBZKPT returns following result:
 ===========================================
 
 Found      5 irreducible k-points:
 
 Following reciprocal coordinates:
            Coordinates               Weight
  0.000000  0.000000  0.000000      1.000000
  0.333333 -0.000000  0.000000      2.000000
  0.000000  0.333333  0.000000      2.000000
  0.333333  0.333333 -0.000000      2.000000
 -0.333333  0.333333  0.000000      2.000000
 
 Following cartesian coordinates:
            Coordinates               Weight
  0.000000  0.000000  0.000000      1.000000
  0.032101  0.018970  0.000848      2.000000
  0.000000  0.037040  0.000770      2.000000
  0.032101  0.056010  0.001618      2.000000
 -0.032101  0.018069 -0.000078      2.000000
 


--------------------------------------------------------------------------------------------------------




 Dimension of arrays:
   k-points           NKPTS =      5   k-points in BZ     NKDIM =      5   number of bands    NBANDS=    200
   number of dos      NEDOS =    301   number of ions     NIONS =     54
   non local maximal  LDIM  =      6   non local SUM 2l+1 LMDIM =     18
   total plane-waves  NPLWV = ******
   max r-space proj   IRMAX =      1   max aug-charges    IRDMAX=  35336
   dimension x,y,z NGX =    80 NGY =   80 NGZ =  240
   dimension x,y,z NGXF=   160 NGYF=  160 NGZF=  480
   support grid    NGXF=   160 NGYF=  160 NGZF=  480
   ions per type =              36  18
   NGX,Y,Z   is equivalent  to a cutoff of  12.81, 12.72, 13.28 a.u.
   NGXF,Y,Z  is equivalent  to a cutoff of  25.62, 25.45, 26.56 a.u.

 SYSTEM =  dpgen_md                                
 POSCAR =  Te Mo                                   

 Startparameter for this run:
   NWRITE =      2    write-flag & timer
   PREC   = a         normal or accurate (medium, high low for compatibility)
   ISTART =      0    job   : 0-new  1-cont  2-samecut
   ICHARG =      2    charge: 1-file 2-atom 10-const
   ISPIN  =      1    spin polarized calculation?
   LNONCOLLINEAR =      F non collinear calculations
   LSORBIT =      F    spin-orbit coupling
   INIWAV =      1    electr: 0-lowe 1-rand  2-diag
   LASPH  =      F    aspherical Exc in radial PAW
   METAGGA=      F    non-selfconsistent MetaGGA calc.

 Electronic Relaxation 1
   ENCUT  =  550.0 eV  40.42 Ry    6.36 a.u.  19.86 19.99 57.44*2*pi/ulx,y,z
   ENINI  =  550.0     initial cutoff
   ENAUG  =  368.8 eV  augmentation charge cutoff
   NELM   =    100;   NELMIN=  6; NELMDL= -5     # of ELM steps 
   EDIFF  = 0.1E-05   stopping-criterion for ELM
   LREAL  =      F    real-space projection
   NLSPLINE    = F    spline interpolate recip. space projectors
   LCOMPAT=      F    compatible to vasp.4.4
   GGA_COMPAT  = T    GGA compatible to vasp.4.4-vasp.4.6
   LMAXPAW     = -100 max onsite density
   LMAXMIX     =    2 max onsite mixed and CHGCAR
   VOSKOWN=      0    Vosko Wilk Nusair interpolation
   ROPT   =    0.00000   0.00000
 Ionic relaxation
   EDIFFG = 0.1E-04   stopping-criterion for IOM
   NSW    =     10    number of steps for IOM
   NBLOCK =      1;   KBLOCK =      1    inner block; outer block 
   IBRION =      0    ionic relax: 0-MD 1-quasi-New 2-CG
   NFREE  =      0    steps in history (QN), initial steepest desc. (CG)
   ISIF   =      2    stress and relaxation
   IWAVPR =     11    prediction:  0-non 1-charg 2-wave 3-comb
   ISYM   =      0    0-nonsym 1-usesym 2-fastsym
   LCORR  =      T    Harris-Foulkes like correction to forces

   POTIM  = 2.0000    time-step for ionic-motion
   TEIN   =  100.0    initial temperature
   TEBEG  =  100.0;   TEEND  = 100.0 temperature during run
   SMASS  =   0.04    Nose mass-parameter (am)
   estimated Nose-frequenzy (Omega)   =  0.79E+14 period in steps = 0.40E+02 mass=   0.327E-28a.u.
   SCALEE = 1.0000    scale energy and forces
   NPACO  =    256;   APACO  = 16.0  distance and # of slots for P.C.
   PSTRESS=    0.0 pullay stress

  Mass of Ions in am
   POMASS = 127.60 95.94
  Ionic Valenz
   ZVAL   =   6.00  6.00
  Atomic Wigner-Seitz radii
   RWIGS  =  -1.00 -1.00
  virtual crystal weights 
   VCA    =   1.00  1.00
   NELECT =     324.0000    total number of electrons
   NUPDOWN=      -1.0000    fix difference up-down

 DOS related values:
   EMIN   =  10.00;   EMAX   =-10.00  energy-range for DOS
   EFERMI =   0.00
   ISMEAR =     0;   SIGMA  =   0.10  broadening in eV -4-tet -1-fermi 0-gaus

 Electronic relaxation 2 (details)
   IALGO  =     68    algorithm
   LDIAG  =      T    sub-space diagonalisation (order eigenvalues)
   LSUBROT=      F    optimize rotation matrix (better conditioning)
   TURBO    =      0    0=normal 1=particle mesh
   IRESTART =      0    0=no restart 2=restart with 2 vectors
   NREBOOT  =      0    no. of reboots
   NMIN     =      0    reboot dimension
   EREF     =   0.00    reference energy to select bands
   IMIX   =      4    mixing-type and parameters
     AMIX     =   0.40;   BMIX     =  1.00
     AMIX_MAG =   1.60;   BMIX_MAG =  1.00
     AMIN     =   0.10
     WC   =   100.;   INIMIX=   1;  MIXPRE=   1;  MAXMIX= -45

 Intra band minimization:
   WEIMIN = 0.0010     energy-eigenvalue tresh-hold
   EBREAK =  0.13E-08  absolut break condition
   DEPER  =   0.30     relativ break condition  

   TIME   =   0.40     timestep for ELM

  volume/ion in A,a.u.               =      51.97       350.71
  Fermi-wavevector in a.u.,A,eV,Ry     =   0.797153  1.506401  8.645868  0.635453
  Thomas-Fermi vector in A             =   1.903815
 
 Write flags
   LWAVE        =      F    write WAVECAR
   LDOWNSAMPLE  =      F    k-point downsampling of WAVECAR
   LCHARG       =      F    write CHGCAR
   LVTOT        =      F    write LOCPOT, total local potential
   LVHAR        =      F    write LOCPOT, Hartree potential only
   LELF         =      F    write electronic localiz. function (ELF)
   LORBIT       =      0    0 simple, 1 ext, 2 COOP (PROOUT), +10 PAW based schemes


 Dipole corrections
   LMONO  =      F    monopole corrections only (constant potential shift)
   LDIPOL =      F    correct potential (dipole corrections)
   IDIPOL =      0    1-x, 2-y, 3-z, 4-all directions 
   EPSILON=  1.0000000 bulk dielectric constant

 Exchange correlation treatment:
   GGA     =    --    GGA type
   LEXCH   =     8    internal setting for exchange type
   VOSKOWN=      0    Vosko Wilk Nusair interpolation
   LHFCALC =     F    Hartree Fock is set to
   LHFONE  =     F    Hartree Fock one center treatment
   AEXX    =    0.0000 exact exchange contribution

 Linear response parameters
   LEPSILON=     F    determine dielectric tensor
   LRPA    =     F    only Hartree local field effects (RPA)
   LNABLA  =     F    use nabla operator in PAW spheres
   LVEL    =     F    velocity operator in full k-point grid
   LINTERFAST=   F  fast interpolation
   KINTER  =     0    interpolate to denser k-point grid
   CSHIFT  =0.1000    complex shift for real part using Kramers Kronig
   OMEGAMAX=  -1.0    maximum frequency
   DEG_THRESHOLD= 0.2000000E-02 threshold for treating states as degnerate
   RTIME   =   -0.100 relaxation time in fs
  (WPLASMAI=    0.000 imaginary part of plasma frequency in eV, 0.658/RTIME)
   DFIELD  = 0.0000000 0.0000000 0.0000000 field for delta impulse in time
 
 Orbital magnetization related:
   ORBITALMAG=     F  switch on orbital magnetization
   LCHIMAG   =     F  perturbation theory with respect to B field
   DQ        =  0.001000  dq finite difference perturbation B field
   LLRAUG    =     F  two centre corrections for induced B field



--------------------------------------------------------------------------------------------------------


 molecular dynamics for ions
   using nose mass (canonical ensemble)
 charge density and potential will be updated during run
 non-spin polarized calculation
 RMM-DIIS sequential band-by-band and
  variant of blocked Davidson during initial phase
 perform sub-space diagonalisation
    before iterative eigenvector-optimisation
 modified Broyden-mixing scheme, WC =      100.0
 initial mixing is a Kerker type mixing with AMIX =  0.4000 and BMIX =      1.0000
 Hartree-type preconditioning will be used
 using additional bands           38
 reciprocal scheme for non local part
 use partial core corrections
 calculate Harris-corrections to forces 
   (improved forces if not selfconsistent)
 use gradient corrections 
 use of overlap-Matrix (Vanderbilt PP)
 Gauss-broadening in eV      SIGMA  =   0.10


--------------------------------------------------------------------------------------------------------


  energy-cutoff  :      550.00
  volume of cell :     2806.36
      direct lattice vectors                 reciprocal lattice vectors
    10.383962409  0.000000000  0.000000000     0.096302352  0.056911162  0.002543691
    -5.318268430  8.999319926  0.000000000     0.000000000  0.111119508  0.002310541
    -0.424204775 -0.624445534 30.031096090     0.000000000  0.000000000  0.033298818

  length of vectors
    10.383962409 10.453312309 30.040582789     0.111890543  0.111143527  0.033298818


 
 k-points in units of 2pi/SCALE and weight: read from INCAR                         
   0.00000000  0.00000000  0.00000000       0.111
   0.03210078  0.01897039  0.00084790       0.222
   0.00000000  0.03703984  0.00077018       0.222
   0.03210078  0.05601022  0.00161808       0.222
  -0.03210078  0.01806945 -0.00007772       0.222
 
 k-points in reciprocal lattice and weights: read from INCAR                         
   0.00000000  0.00000000  0.00000000       0.111
   0.33333333 -0.00000000  0.00000000       0.222
   0.00000000  0.33333333  0.00000000       0.222
   0.33333333  0.33333333 -0.00000000       0.222
  -0.33333333  0.33333333  0.00000000       0.222
 
 position of ions in fractional coordinates (direct lattice) 
   0.11040001  0.22160461  0.32055431
   0.11121385  0.55509310  0.32056691
   0.11078825  0.88856584  0.32065258
   0.44473501  0.22219925  0.32066371
   0.44449591  0.55543108  0.32067000
   0.44479850  0.88845276  0.32072767
   0.77731265  0.22179695  0.32067319
   0.77795037  0.55583508  0.32046396
   0.77774213  0.88905949  0.32059362
   0.22214794  0.05546478  0.55842337
   0.22292025  0.38890315  0.55825644
   0.22221498  0.72223344  0.55831784
   0.55588416  0.05546446  0.55861807
   0.55563661  0.38909047  0.55843398
   0.55524007  0.72188090  0.55855051
   0.88903956  0.05496247  0.55850036
   0.88908610  0.38872311  0.55837120
   0.88864227  0.72201229  0.55845009
   0.11176791  0.22276421  0.44160460
   0.11087396  0.55587625  0.44164712
   0.11088757  0.88883869  0.44160760
   0.44407490  0.22203862  0.44153763
   0.44418113  0.55532308  0.44154153
   0.44447356  0.88931426  0.44167808
   0.77778005  0.22222477  0.44152930
   0.77781610  0.55557029  0.44152382
   0.77774888  0.88908476  0.44154903
   0.22208081  0.05595002  0.67922080
   0.22280332  0.38930312  0.67949961
   0.22200732  0.72222068  0.67932603
   0.55549992  0.05552155  0.67939956
   0.55576440  0.38896863  0.67942051
   0.55550390  0.72204639  0.67928648
   0.88910130  0.05555504  0.67939980
   0.88887002  0.38886195  0.67932785
   0.88910441  0.72234572  0.67948540
   0.99984705  0.99994231  0.38108869
   0.00062558  0.33324057  0.38110816
   0.00046065  0.66679092  0.38104622
   0.33353341  0.00012440  0.38110604
   0.33256474  0.33346403  0.38117136
   0.33295142  0.66671030  0.38108311
   0.66586792  0.99961098  0.38119015
   0.66663472  0.33351969  0.38116697
   0.66658268  0.66652037  0.38092134
   0.11128452  0.16729067  0.61902571
   0.11146610  0.49972574  0.61905323
   0.11058207  0.83288934  0.61874234
   0.44509783  0.16740366  0.61886786
   0.44475763  0.50028001  0.61879967
   0.44430977  0.83381187  0.61915397
   0.77768188  0.16689570  0.61899165
   0.77774385  0.50006781  0.61887652
   0.77825108  0.83284090  0.61899119
 
 position of ions in cartesian coordinates  (Angst):
  -0.16814394  1.79412205  9.62659742
  -1.93327965  4.79528378  9.62697568
  -3.71123304  7.79625819  9.62954859
   3.30036928  1.79940515  9.62988276
   1.52566748  4.79826104  9.63007159
  -0.24231355  7.79519366  9.63180357
   6.75597855  1.79577877  9.63016733
   4.98618488  4.80202544  9.62388405
   3.21179067  7.80073756  9.62777782
   1.77491343  0.15044034 16.77006595
   0.00968914  3.15126310 16.76505276
  -1.77040039  6.15097067 16.76689683
   5.24033686  0.15031588 16.77591288
   3.46353172  3.15283799 16.77038439
   1.68949581  6.14765281 16.77388398
   8.70252961  0.14587184 16.77237789
   6.92803910  3.14957125 16.76849921
   5.15087554  6.14889793 16.77086833
  -0.21145688  1.72896841 13.26187016
  -1.99233689  4.72672364 13.26314724
  -3.76296239  7.72318384 13.26196027
   3.24309370  1.72248041 13.25985910
   1.47169893  4.72181142 13.25997605
  -0.30157716  7.72741967 13.26407674
   6.70728893  1.72416084 13.25960896
   4.93484472  4.72404721 13.25944415
   3.16041650  7.72543492 13.26020137
   1.72039282  0.07937574 20.39774520
  -0.04508420  3.07915281 20.40611812
  -1.82382109  6.07529286 20.40090522
   5.18480727  0.07540816 20.40311339
   3.41418362  3.07619209 20.40374247
   1.64013852  6.07374908 20.39971754
   8.64873321  0.07570941 20.40312056
   6.87374648  3.07528988 20.40095991
   5.10255741  6.07631857 20.40569136
   4.90275297  8.76083162 11.44451096
  -1.92743470  2.76095725 11.44509573
  -3.70303134  5.76272218 11.44323577
   3.30106983 -0.23686047 11.44503205
   1.51819384  2.76292873 11.44699376
  -0.25004656  5.76197360 11.44434364
   1.43644528  8.75778653 11.44755797
   4.98686980  2.76343235 11.44686186
   3.21544660  5.76036538 11.43948545
   0.00328396  1.11895444 18.59002045
  -1.76282120  4.11062680 18.59084711
  -3.54372253  7.10906675 18.58151074
   3.46905482  1.12006982 18.58528011
   1.69522531  4.11577317 18.58323223
  -0.08338751  7.11711189 18.59387235
   6.92524403  1.11542121 18.58899760
   5.15403766  4.11381552 18.58554029
   3.38947944  7.10847544 18.58898392
 


--------------------------------------------------------------------------------------------------------


 k-point   1 :   0.0000 0.0000 0.0000  plane waves:   82165
 k-point   2 :   0.3333-0.0000 0.0000  plane waves:   82157
 k-point   3 :   0.0000 0.3333 0.0000  plane waves:   82209
 k-point   4 :   0.3333 0.3333-0.0000  plane waves:   82234
 k-point   5 :  -0.3333 0.3333 0.0000  plane waves:   82216

 maximum and minimum number of plane-waves per node :     82234    82157

 maximum number of plane-waves:     82234
 maximum index in each direction: 
   IXMAX=   20   IYMAX=   19   IZMAX=   57
   IXMIN=  -20   IYMIN=  -20   IZMIN=  -57


 serial   3D FFT for wavefunctions
 parallel 3D FFT for charge:
    minimum data exchange during FFTs selected (reduces bandwidth)


 total amount of memory used by VASP MPI-rank0   348864. kBytes
=======================================================================

   base      :      30000. kBytes
   nonl-proj :     189480. kBytes
   fftplans  :      16533. kBytes
   grid      :      78796. kBytes
   one-center:        839. kBytes
   wavefun   :      33216. kBytes
 
     INWAV:  cpu time    0.0001: real time    0.0001
 Broyden mixing: mesh for mixing (old mesh)
   NGX = 39   NGY = 39   NGZ =115
  (NGX  =160   NGY  =160   NGZ  =480)
  gives a total of 174915 points

 initial charge density was supplied:
 charge density of overlapping atoms calculated
 number of electron     324.0000000 magnetization 
 keeping initial charge density in first step


--------------------------------------------------------------------------------------------------------


 Maximum index for augmentation-charges         1163 (set IRDMAX)


--------------------------------------------------------------------------------------------------------


 First call to EWALD:  gamma=   0.126
 Maximum number of real-space cells 4x 4x 2
 Maximum number of reciprocal cells 2x 2x 5

    FEWALD:  cpu time    0.0021: real time    0.0022


--------------------------------------- Iteration      1(   1)  ---------------------------------------


    POTLOK:  cpu time    0.2678: real time    0.2691
    SETDIJ:  cpu time    0.0106: real time    0.0108
     EDDAV:  cpu time   46.5262: real time   46.6281
       DOS:  cpu time    0.0009: real time    0.0010
    --------------------------------------------
      LOOP:  cpu time   46.8055: real time   46.9090

 eigenvalue-minimisations  :  2000
 total energy-change (2. order) : 0.2143627E+04  (-0.1163043E+05)
 number of electron     324.0000000 magnetization 
 augmentation part      324.0000000 magnetization 

 Free energy of the ion-electron system (eV)
  ---------------------------------------------------
  alpha Z        PSCENC =       255.72812692
  Ewald energy   TEWEN  =     65101.52851421
  -Hartree energ DENC   =    -76820.39521971
  -exchange      EXHF   =         0.00000000
  -V(xc)+E(xc)   XCENC  =     -2095.95040867
  PAW double counting   =      7476.04436201    -4809.59211051
  entropy T*S    EENTRO =        -0.11948953
  eigenvalues    EBANDS =      1083.30034816
  atomic energy  EATOM  =     11953.08265402
  Solvation  Ediel_sol  =         0.00000000
  ---------------------------------------------------
  free energy    TOTEN  =      2143.62677690 eV

  energy without entropy =     2143.74626643  energy(sigma->0) =     2143.68652166


--------------------------------------------------------------------------------------------------------




--------------------------------------- Iteration      1(   2)  ---------------------------------------


     EDDAV:  cpu time   63.5659: real time   63.6921
       DOS:  cpu time    0.0006: real time    0.0006
    --------------------------------------------
      LOOP:  cpu time   63.5665: real time   63.6927

 eigenvalue-minimisations  :  2960
 total energy-change (2. order) :-0.2235771E+04  (-0.2165066E+04)
 number of electron     324.0000000 magnetization 
 augmentation part      324.0000000 magnetization 

 Free energy of the ion-electron system (eV)
  ---------------------------------------------------
  alpha Z        PSCENC =       255.72812692
  Ewald energy   TEWEN  =     65101.52851421
  -Hartree energ DENC   =    -76820.39521971
  -exchange      EXHF   =         0.00000000
  -V(xc)+E(xc)   XCENC  =     -2095.95040867
  PAW double counting   =      7476.04436201    -4809.59211051
  entropy T*S    EENTRO =        -0.02641733
  eigenvalues    EBANDS =     -1152.56380185
  atomic energy  EATOM  =     11953.08265402
  Solvation  Ediel_sol  =         0.00000000
  ---------------------------------------------------
  free energy    TOTEN  =       -92.14430091 eV

  energy without entropy =      -92.11788358  energy(sigma->0) =      -92.13109225


--------------------------------------------------------------------------------------------------------




--------------------------------------- Iteration      1(   3)  ---------------------------------------


     EDDAV:  cpu time   56.3528: real time   56.4520
       DOS:  cpu time    0.0004: real time    0.0004
    --------------------------------------------
      LOOP:  cpu time   56.3532: real time   56.4524

 eigenvalue-minimisations  :  2560
 total energy-change (2. order) :-0.2318252E+03  (-0.2283714E+03)
 number of electron     324.0000000 magnetization 
 augmentation part      324.0000000 magnetization 

 Free energy of the ion-electron system (eV)
  ---------------------------------------------------
  alpha Z        PSCENC =       255.72812692
  Ewald energy   TEWEN  =     65101.52851421
  -Hartree energ DENC   =    -76820.39521971
  -exchange      EXHF   =         0.00000000
  -V(xc)+E(xc)   XCENC  =     -2095.95040867
  PAW double counting   =      7476.04436201    -4809.59211051
  entropy T*S    EENTRO =        -0.00000000
  eigenvalues    EBANDS =     -1384.41538384
  atomic energy  EATOM  =     11953.08265402
  Solvation  Ediel_sol  =         0.00000000
  ---------------------------------------------------
  free energy    TOTEN  =      -323.96946557 eV

  energy without entropy =     -323.96946557  energy(sigma->0) =     -323.96946557


--------------------------------------------------------------------------------------------------------




--------------------------------------- Iteration      1(   4)  ---------------------------------------


     EDDAV:  cpu time   65.0177: real time   65.1721
       DOS:  cpu time    0.0004: real time    0.0004
    --------------------------------------------
      LOOP:  cpu time   65.0180: real time   65.1725

 eigenvalue-minimisations  :  3040
 total energy-change (2. order) :-0.1067251E+02  (-0.1058875E+02)
 number of electron     324.0000000 magnetization 
 augmentation part      324.0000000 magnetization 

 Free energy of the ion-electron system (eV)
  ---------------------------------------------------
  alpha Z        PSCENC =       255.72812692
  Ewald energy   TEWEN  =     65101.52851421
  -Hartree energ DENC   =    -76820.39521971
  -exchange      EXHF   =         0.00000000
  -V(xc)+E(xc)   XCENC  =     -2095.95040867
  PAW double counting   =      7476.04436201    -4809.59211051
  entropy T*S    EENTRO =        -0.00000000
  eigenvalues    EBANDS =     -1395.08789009
  atomic energy  EATOM  =     11953.08265402
  Solvation  Ediel_sol  =         0.00000000
  ---------------------------------------------------
  free energy    TOTEN  =      -334.64197182 eV

  energy without entropy =     -334.64197182  energy(sigma->0) =     -334.64197182


--------------------------------------------------------------------------------------------------------




--------------------------------------- Iteration      1(   5)  ---------------------------------------


     EDDAV:  cpu time   64.2242: real time   64.3547
       DOS:  cpu time    0.0004: real time    0.0004
    CHARGE:  cpu time    1.1149: real time    1.1162
    MIXING:  cpu time    0.0073: real time    0.0075
    --------------------------------------------
      LOOP:  cpu time   65.3467: real time   65.4788

 eigenvalue-minimisations  :  3000
 total energy-change (2. order) :-0.3296620E+00  (-0.3289375E+00)
 number of electron     323.9999995 magnetization 
 augmentation part      -25.0005069 magnetization 

 Broyden mixing:
  rms(total) = 0.18300E+01    rms(broyden)= 0.18300E+01
  rms(prec ) = 0.19335E+01
  weight for this iteration     100.00

 Free energy of the ion-electron system (eV)
  ---------------------------------------------------
  alpha Z        PSCENC =       255.72812692
  Ewald energy   TEWEN  =     65101.52851421
  -Hartree energ DENC   =    -76820.39521971
  -exchange      EXHF   =         0.00000000
  -V(xc)+E(xc)   XCENC  =     -2095.95040867
  PAW double counting   =      7476.04436201    -4809.59211051
  entropy T*S    EENTRO =        -0.00000000
  eigenvalues    EBANDS =     -1395.41755211
  atomic energy  EATOM  =     11953.08265402
  Solvation  Ediel_sol  =         0.00000000
  ---------------------------------------------------
  free energy    TOTEN  =      -334.97163385 eV

  energy without entropy =     -334.97163385  energy(sigma->0) =     -334.97163385


--------------------------------------------------------------------------------------------------------




--------------------------------------- Iteration      1(   6)  ---------------------------------------


    POTLOK:  cpu time    0.2352: real time    0.2355
    SETDIJ:  cpu time    0.0107: real time    0.0107
    EDDIAG:  cpu time    2.4021: real time    2.4090
  RMM-DIIS:  cpu time   39.5101: real time   39.6148
    ORTHCH:  cpu time    0.2011: real time    0.2013
       DOS:  cpu time    0.0004: real time    0.0004
    CHARGE:  cpu time    1.1125: real time    1.1177
    MIXING:  cpu time    0.0074: real time    0.0076
    --------------------------------------------
      LOOP:  cpu time   43.4796: real time   43.5971

 eigenvalue-minimisations  :  2106
 total energy-change (2. order) : 0.9019254E+01  (-0.3861042E+01)
 number of electron     323.9999995 magnetization 
 augmentation part      -20.5363940 magnetization 

 Broyden mixing:
  rms(total) = 0.69146E+00    rms(broyden)= 0.69145E+00
  rms(prec ) = 0.78396E+00
  weight for this iteration     100.00

 eigenvalues of (default mixing * dielectric matrix)
  average eigenvalue GAMMA=   1.1792
  1.1792

 Free energy of the ion-electron system (eV)
  ---------------------------------------------------
  alpha Z        PSCENC =       255.72812692
  Ewald energy   TEWEN  =     65101.52851421
  -Hartree energ DENC   =    -76817.40217550
  -exchange      EXHF   =         0.00000000
  -V(xc)+E(xc)   XCENC  =     -2089.66024106
  PAW double counting   =      7746.62629684    -5092.14409384
  entropy T*S    EENTRO =        -0.00000000
  eigenvalues    EBANDS =     -1383.71146135
  atomic energy  EATOM  =     11953.08265402
  Solvation  Ediel_sol  =         0.00000000
  ---------------------------------------------------
  free energy    TOTEN  =      -325.95237976 eV

  energy without entropy =     -325.95237976  energy(sigma->0) =     -325.95237976


--------------------------------------------------------------------------------------------------------




--------------------------------------- Iteration      1(   7)  ---------------------------------------


    POTLOK:  cpu time    0.2352: real time    0.2354
    SETDIJ:  cpu time    0.0107: real time    0.0107
    EDDIAG:  cpu time    2.4197: real time    2.4269
  RMM-DIIS:  cpu time   37.3544: real time   37.4352
    ORTHCH:  cpu time    0.2008: real time    0.2009
       DOS:  cpu time    0.0004: real time    0.0004
    CHARGE:  cpu time    1.1151: real time    1.1163
    MIXING:  cpu time    0.0067: real time    0.0067
    --------------------------------------------
      LOOP:  cpu time   41.3429: real time   41.4325

 eigenvalue-minimisations  :  2013
 total energy-change (2. order) : 0.2796908E+01  (-0.9881812E+00)
 number of electron     323.9999994 magnetization 
 augmentation part      -21.8326920 magnetization 

 Broyden mixing:
  rms(total) = 0.43284E+00    rms(broyden)= 0.43284E+00
  rms(prec ) = 0.45684E+00
  weight for this iteration     100.00

 eigenvalues of (default mixing * dielectric matrix)
  average eigenvalue GAMMA=   1.4740
  0.7662  2.1818

 Free energy of the ion-electron system (eV)
  ---------------------------------------------------
  alpha Z        PSCENC =       255.72812692
  Ewald energy   TEWEN  =     65101.52851421
  -Hartree energ DENC   =    -76905.08453372
  -exchange      EXHF   =         0.00000000
  -V(xc)+E(xc)   XCENC  =     -2087.56602952
  PAW double counting   =      8079.93505080    -5431.86792107
  entropy T*S    EENTRO =        -0.00000000
  eigenvalues    EBANDS =     -1288.91133362
  atomic energy  EATOM  =     11953.08265402
  Solvation  Ediel_sol  =         0.00000000
  ---------------------------------------------------
  free energy    TOTEN  =      -323.15547197 eV

  energy without entropy =     -323.15547197  energy(sigma->0) =     -323.15547197


--------------------------------------------------------------------------------------------------------




--------------------------------------- Iteration      1(   8)  ---------------------------------------


    POTLOK:  cpu time    0.2347: real time    0.2349
    SETDIJ:  cpu time    0.0107: real time    0.0107
    EDDIAG:  cpu time    2.4025: real time    2.4052
  RMM-DIIS:  cpu time   37.0191: real time   37.0992
    ORTHCH:  cpu time    0.1983: real time    0.1985
       DOS:  cpu time    0.0004: real time    0.0004
    CHARGE:  cpu time    1.1170: real time    1.1182
    MIXING:  cpu time    0.0065: real time    0.0065
    --------------------------------------------
      LOOP:  cpu time   40.9893: real time   41.0737

 eigenvalue-minimisations  :  2001
 total energy-change (2. order) : 0.3815228E+00  (-0.5652144E+00)
 number of electron     323.9999994 magnetization 
 augmentation part      -21.3659774 magnetization 

 Broyden mixing:
  rms(total) = 0.98476E-01    rms(broyden)= 0.98475E-01
  rms(prec ) = 0.11115E+00
  weight for this iteration     100.00

 eigenvalues of (default mixing * dielectric matrix)
  average eigenvalue GAMMA=   1.3791
  2.1024  1.2557  0.7791

 Free energy of the ion-electron system (eV)
  ---------------------------------------------------
  alpha Z        PSCENC =       255.72812692
  Ewald energy   TEWEN  =     65101.52851421
  -Hartree energ DENC   =    -76955.20184270
  -exchange      EXHF   =         0.00000000
  -V(xc)+E(xc)   XCENC  =     -2083.94389366
  PAW double counting   =      8375.13946929    -5733.11297418
  entropy T*S    EENTRO =        -0.00000000
  eigenvalues    EBANDS =     -1235.99400312
  atomic energy  EATOM  =     11953.08265402
  Solvation  Ediel_sol  =         0.00000000
  ---------------------------------------------------
  free energy    TOTEN  =      -322.77394922 eV

  energy without entropy =     -322.77394922  energy(sigma->0) =     -322.77394922


--------------------------------------------------------------------------------------------------------




--------------------------------------- Iteration      1(   9)  ---------------------------------------


    POTLOK:  cpu time    0.2386: real time    0.2389
    SETDIJ:  cpu time    0.0107: real time    0.0107
    EDDIAG:  cpu time    2.3974: real time    2.4028
  RMM-DIIS:  cpu time   43.3803: real time   43.4541
    ORTHCH:  cpu time    0.2026: real time    0.2054
       DOS:  cpu time    0.0004: real time    0.0004
    CHARGE:  cpu time    1.1109: real time    1.1155
    MIXING:  cpu time    0.0082: real time    0.0082
    --------------------------------------------
      LOOP:  cpu time   47.3491: real time   47.4360

 eigenvalue-minimisations  :  2271
 total energy-change (2. order) :-0.8173650E-01  (-0.1311502E+00)
 number of electron     323.9999994 magnetization 
 augmentation part      -21.0139445 magnetization 

 Broyden mixing:
  rms(total) = 0.10332E+00    rms(broyden)= 0.10332E+00
  rms(prec ) = 0.11484E+00
  weight for this iteration     100.00

 eigenvalues of (default mixing * dielectric matrix)
  average eigenvalue GAMMA=   1.2827
  1.9656  1.9656  0.7391  0.4605

 Free energy of the ion-electron system (eV)
  ---------------------------------------------------
  alpha Z        PSCENC =       255.72812692
  Ewald energy   TEWEN  =     65101.52851421
  -Hartree energ DENC   =    -76958.51428619
  -exchange      EXHF   =         0.00000000
  -V(xc)+E(xc)   XCENC  =     -2083.54318703
  PAW double counting   =      8393.69883312    -5751.97698208
  entropy T*S    EENTRO =        -0.00000000
  eigenvalues    EBANDS =     -1232.85935869
  atomic energy  EATOM  =     11953.08265402
  Solvation  Ediel_sol  =         0.00000000
  ---------------------------------------------------
  free energy    TOTEN  =      -322.85568572 eV

  energy without entropy =     -322.85568572  energy(sigma->0) =     -322.85568572


--------------------------------------------------------------------------------------------------------




--------------------------------------- Iteration      1(  10)  ---------------------------------------


    POTLOK:  cpu time    0.2347: real time    0.2349
    SETDIJ:  cpu time    0.0108: real time    0.0108
    EDDIAG:  cpu time    2.3813: real time    2.3837
  RMM-DIIS:  cpu time   44.2442: real time   44.3360
    ORTHCH:  cpu time    0.2025: real time    0.2028
       DOS:  cpu time    0.0004: real time    0.0004
    CHARGE:  cpu time    1.1143: real time    1.1152
    MIXING:  cpu time    0.0068: real time    0.0068
    --------------------------------------------
      LOOP:  cpu time   48.1948: real time   48.2905

 eigenvalue-minimisations  :  2351
 total energy-change (2. order) : 0.1174202E-01  (-0.2620701E-01)
 number of electron     323.9999994 magnetization 
 augmentation part      -21.0069488 magnetization 

 Broyden mixing:
  rms(total) = 0.58624E-01    rms(broyden)= 0.58624E-01
  rms(prec ) = 0.66884E-01
  weight for this iteration     100.00

 eigenvalues of (default mixing * dielectric matrix)
  average eigenvalue GAMMA=   1.3253
  2.2187  2.2187  0.8995  0.8995  0.3902

 Free energy of the ion-electron system (eV)
  ---------------------------------------------------
  alpha Z        PSCENC =       255.72812692
  Ewald energy   TEWEN  =     65101.52851421
  -Hartree energ DENC   =    -76965.46716109
  -exchange      EXHF   =         0.00000000
  -V(xc)+E(xc)   XCENC  =     -2083.36141755
  PAW double counting   =      8417.58549083    -5775.93736981
  entropy T*S    EENTRO =        -0.00000000
  eigenvalues    EBANDS =     -1226.00278123
  atomic energy  EATOM  =     11953.08265402
  Solvation  Ediel_sol  =         0.00000000
  ---------------------------------------------------
  free energy    TOTEN  =      -322.84394370 eV

  energy without entropy =     -322.84394370  energy(sigma->0) =     -322.84394370


--------------------------------------------------------------------------------------------------------




--------------------------------------- Iteration      1(  11)  ---------------------------------------


    POTLOK:  cpu time    0.2362: real time    0.2364
    SETDIJ:  cpu time    0.0120: real time    0.0121
    EDDIAG:  cpu time    2.3947: real time    2.4001
  RMM-DIIS:  cpu time   39.7039: real time   39.7922
    ORTHCH:  cpu time    0.1980: real time    0.1981
       DOS:  cpu time    0.0004: real time    0.0004
    CHARGE:  cpu time    1.1104: real time    1.1115
    MIXING:  cpu time    0.0071: real time    0.0071
    --------------------------------------------
      LOOP:  cpu time   43.6626: real time   43.7578

 eigenvalue-minimisations  :  2132
 total energy-change (2. order) : 0.8119558E-02  (-0.1288209E-01)
 number of electron     323.9999994 magnetization 
 augmentation part      -21.2641957 magnetization 

 Broyden mixing:
  rms(total) = 0.26950E-01    rms(broyden)= 0.26950E-01
  rms(prec ) = 0.30899E-01
  weight for this iteration     100.00

 eigenvalues of (default mixing * dielectric matrix)
  average eigenvalue GAMMA=   1.2847
  2.4984  1.6565  1.6565  0.7551  0.7551  0.3863

 Free energy of the ion-electron system (eV)
  ---------------------------------------------------
  alpha Z        PSCENC =       255.72812692
  Ewald energy   TEWEN  =     65101.52851421
  -Hartree energ DENC   =    -76980.25247032
  -exchange      EXHF   =         0.00000000
  -V(xc)+E(xc)   XCENC  =     -2083.19336777
  PAW double counting   =      8456.03897095    -5814.50282550
  entropy T*S    EENTRO =        -0.00000000
  eigenvalues    EBANDS =     -1211.26542665
  atomic energy  EATOM  =     11953.08265402
  Solvation  Ediel_sol  =         0.00000000
  ---------------------------------------------------
  free energy    TOTEN  =      -322.83582415 eV

  energy without entropy =     -322.83582415  energy(sigma->0) =     -322.83582415


--------------------------------------------------------------------------------------------------------




--------------------------------------- Iteration      1(  12)  ---------------------------------------


    POTLOK:  cpu time    0.2366: real time    0.2400
    SETDIJ:  cpu time    0.0107: real time    0.0107
    EDDIAG:  cpu time    2.3972: real time    2.4010
  RMM-DIIS:  cpu time   44.4542: real time   44.5470
    ORTHCH:  cpu time    0.1986: real time    0.1988
       DOS:  cpu time    0.0004: real time    0.0004
    CHARGE:  cpu time    1.1085: real time    1.1132
    MIXING:  cpu time    0.0077: real time    0.0077
    --------------------------------------------
      LOOP:  cpu time   48.4139: real time   48.5187

 eigenvalue-minimisations  :  2376
 total energy-change (2. order) : 0.5067538E-03  (-0.2449167E-02)
 number of electron     323.9999994 magnetization 
 augmentation part      -21.2360743 magnetization 

 Broyden mixing:
  rms(total) = 0.17313E-01    rms(broyden)= 0.17313E-01
  rms(prec ) = 0.20638E-01
  weight for this iteration     100.00

 eigenvalues of (default mixing * dielectric matrix)
  average eigenvalue GAMMA=   1.2678
  2.5059  1.9669  1.9669  0.8139  0.8139  0.3831  0.4241

 Free energy of the ion-electron system (eV)
  ---------------------------------------------------
  alpha Z        PSCENC =       255.72812692
  Ewald energy   TEWEN  =     65101.52851421
  -Hartree energ DENC   =    -76983.65637162
  -exchange      EXHF   =         0.00000000
  -V(xc)+E(xc)   XCENC  =     -2083.09859258
  PAW double counting   =      8458.42058909    -5816.88847889
  entropy T*S    EENTRO =        -0.00000000
  eigenvalues    EBANDS =     -1207.95175855
  atomic energy  EATOM  =     11953.08265402
  Solvation  Ediel_sol  =         0.00000000
  ---------------------------------------------------
  free energy    TOTEN  =      -322.83531739 eV

  energy without entropy =     -322.83531739  energy(sigma->0) =     -322.83531739


--------------------------------------------------------------------------------------------------------




--------------------------------------- Iteration      1(  13)  ---------------------------------------


    POTLOK:  cpu time    0.2392: real time    0.2404
    SETDIJ:  cpu time    0.0105: real time    0.0105
    EDDIAG:  cpu time    2.4166: real time    2.4192
  RMM-DIIS:  cpu time   45.1111: real time   45.2012
    ORTHCH:  cpu time    0.1966: real time    0.1967
       DOS:  cpu time    0.0004: real time    0.0004
    CHARGE:  cpu time    1.1064: real time    1.1110
    MIXING:  cpu time    0.0085: real time    0.0085
    --------------------------------------------
      LOOP:  cpu time   49.0893: real time   49.1879

 eigenvalue-minimisations  :  2404
 total energy-change (2. order) :-0.2328398E-03  (-0.1417577E-02)
 number of electron     323.9999994 magnetization 
 augmentation part      -21.1638358 magnetization 

 Broyden mixing:
  rms(total) = 0.11145E-01    rms(broyden)= 0.11145E-01
  rms(prec ) = 0.13703E-01
  weight for this iteration     100.00

 eigenvalues of (default mixing * dielectric matrix)
  average eigenvalue GAMMA=   1.3151
  2.5774  2.5774  1.8801  1.0949  0.7913  0.7913  0.3814  0.4272

 Free energy of the ion-electron system (eV)
  ---------------------------------------------------
  alpha Z        PSCENC =       255.72812692
  Ewald energy   TEWEN  =     65101.52851421
  -Hartree energ DENC   =    -76986.65498127
  -exchange      EXHF   =         0.00000000
  -V(xc)+E(xc)   XCENC  =     -2083.03822720
  PAW double counting   =      8456.36471064    -5814.79257127
  entropy T*S    EENTRO =        -0.00000000
  eigenvalues    EBANDS =     -1205.05377628
  atomic energy  EATOM  =     11953.08265402
  Solvation  Ediel_sol  =         0.00000000
  ---------------------------------------------------
  free energy    TOTEN  =      -322.83555023 eV

  energy without entropy =     -322.83555023  energy(sigma->0) =     -322.83555023


--------------------------------------------------------------------------------------------------------




--------------------------------------- Iteration      1(  14)  ---------------------------------------


    POTLOK:  cpu time    0.2401: real time    0.2403
    SETDIJ:  cpu time    0.0105: real time    0.0105
    EDDIAG:  cpu time    2.4100: real time    2.4123
  RMM-DIIS:  cpu time   41.9234: real time   42.0020
    ORTHCH:  cpu time    0.1958: real time    0.1960
       DOS:  cpu time    0.0004: real time    0.0004
    CHARGE:  cpu time    1.1109: real time    1.1120
    MIXING:  cpu time    0.0088: real time    0.0088
    --------------------------------------------
      LOOP:  cpu time   45.9000: real time   45.9824

 eigenvalue-minimisations  :  2215
 total energy-change (2. order) :-0.3651762E-03  (-0.3133890E-03)
 number of electron     323.9999994 magnetization 
 augmentation part      -21.1801166 magnetization 

 Broyden mixing:
  rms(total) = 0.43733E-02    rms(broyden)= 0.43733E-02
  rms(prec ) = 0.65631E-02
  weight for this iteration     100.00

 eigenvalues of (default mixing * dielectric matrix)
  average eigenvalue GAMMA=   1.3673
  3.2647  2.5472  1.6977  1.6977  0.7997  0.7997  0.6947  0.3815  0.4232

 Free energy of the ion-electron system (eV)
  ---------------------------------------------------
  alpha Z        PSCENC =       255.72812692
  Ewald energy   TEWEN  =     65101.52851421
  -Hartree energ DENC   =    -76992.84023419
  -exchange      EXHF   =         0.00000000
  -V(xc)+E(xc)   XCENC  =     -2083.03361714
  PAW double counting   =      8455.56763521    -5813.89616830
  entropy T*S    EENTRO =        -0.00000000
  eigenvalues    EBANDS =     -1198.97282614
  atomic energy  EATOM  =     11953.08265402
  Solvation  Ediel_sol  =         0.00000000
  ---------------------------------------------------
  free energy    TOTEN  =      -322.83591541 eV

  energy without entropy =     -322.83591541  energy(sigma->0) =     -322.83591541


--------------------------------------------------------------------------------------------------------




--------------------------------------- Iteration      1(  15)  ---------------------------------------


    POTLOK:  cpu time    0.2400: real time    0.2402
    SETDIJ:  cpu time    0.0108: real time    0.0108
    EDDIAG:  cpu time    2.3982: real time    2.4020
  RMM-DIIS:  cpu time   42.5227: real time   42.6257
    ORTHCH:  cpu time    0.2010: real time    0.2013
       DOS:  cpu time    0.0004: real time    0.0004
    CHARGE:  cpu time    1.1138: real time    1.1150
    MIXING:  cpu time    0.0077: real time    0.0077
    --------------------------------------------
      LOOP:  cpu time   46.4946: real time   46.6030

 eigenvalue-minimisations  :  2279
 total energy-change (2. order) :-0.1047536E-02  (-0.1886674E-03)
 number of electron     323.9999994 magnetization 
 augmentation part      -21.2011053 magnetization 

 Broyden mixing:
  rms(total) = 0.55888E-02    rms(broyden)= 0.55888E-02
  rms(prec ) = 0.65996E-02
  weight for this iteration     100.00

 eigenvalues of (default mixing * dielectric matrix)
  average eigenvalue GAMMA=   1.3576
  3.3768  2.4535  1.9125  1.9125  0.7642  0.7642  0.7945  0.7945  0.3817  0.4212

 Free energy of the ion-electron system (eV)
  ---------------------------------------------------
  alpha Z        PSCENC =       255.72812692
  Ewald energy   TEWEN  =     65101.52851421
  -Hartree energ DENC   =    -76997.02799540
  -exchange      EXHF   =         0.00000000
  -V(xc)+E(xc)   XCENC  =     -2083.02304173
  PAW double counting   =      8455.81926408    -5814.13737826
  entropy T*S    EENTRO =        -0.00000000
  eigenvalues    EBANDS =     -1194.80710677
  atomic energy  EATOM  =     11953.08265402
  Solvation  Ediel_sol  =         0.00000000
  ---------------------------------------------------
  free energy    TOTEN  =      -322.83696294 eV

  energy without entropy =     -322.83696294  energy(sigma->0) =     -322.83696294


--------------------------------------------------------------------------------------------------------




--------------------------------------- Iteration      1(  16)  ---------------------------------------


    POTLOK:  cpu time    0.2374: real time    0.2376
    SETDIJ:  cpu time    0.0120: real time    0.0120
    EDDIAG:  cpu time    2.4294: real time    2.4337
  RMM-DIIS:  cpu time   39.7561: real time   39.8493
    ORTHCH:  cpu time    0.2033: real time    0.2035
       DOS:  cpu time    0.0004: real time    0.0004
    CHARGE:  cpu time    1.1135: real time    1.1147
    MIXING:  cpu time    0.0075: real time    0.0075
    --------------------------------------------
      LOOP:  cpu time   43.7596: real time   43.8588

 eigenvalue-minimisations  :  2141
 total energy-change (2. order) :-0.1256051E-02  (-0.6584101E-04)
 number of electron     323.9999994 magnetization 
 augmentation part      -21.1915862 magnetization 

 Broyden mixing:
  rms(total) = 0.29001E-02    rms(broyden)= 0.29001E-02
  rms(prec ) = 0.37622E-02
  weight for this iteration     100.00

 eigenvalues of (default mixing * dielectric matrix)
  average eigenvalue GAMMA=   1.4060
  3.8235  2.5407  2.5407  1.7473  1.2405  0.7975  0.7975  0.7311  0.3815  0.4212
  0.4447

 Free energy of the ion-electron system (eV)
  ---------------------------------------------------
  alpha Z        PSCENC =       255.72812692
  Ewald energy   TEWEN  =     65101.52851421
  -Hartree energ DENC   =    -76999.53377598
  -exchange      EXHF   =         0.00000000
  -V(xc)+E(xc)   XCENC  =     -2083.00202061
  PAW double counting   =      8454.67274880    -5813.01822788
  entropy T*S    EENTRO =        -0.00000000
  eigenvalues    EBANDS =     -1192.29623847
  atomic energy  EATOM  =     11953.08265402
  Solvation  Ediel_sol  =         0.00000000
  ---------------------------------------------------
  free energy    TOTEN  =      -322.83821899 eV

  energy without entropy =     -322.83821899  energy(sigma->0) =     -322.83821899


--------------------------------------------------------------------------------------------------------




--------------------------------------- Iteration      1(  17)  ---------------------------------------


    POTLOK:  cpu time    0.2427: real time    0.2430
    SETDIJ:  cpu time    0.0110: real time    0.0110
    EDDIAG:  cpu time    2.3968: real time    2.4022
  RMM-DIIS:  cpu time   41.0163: real time   41.1189
    ORTHCH:  cpu time    0.1984: real time    0.1985
       DOS:  cpu time    0.0004: real time    0.0004
    CHARGE:  cpu time    1.1177: real time    1.1192
    MIXING:  cpu time    0.0079: real time    0.0079
    --------------------------------------------
      LOOP:  cpu time   44.9913: real time   45.1011

 eigenvalue-minimisations  :  2176
 total energy-change (2. order) :-0.1350785E-02  (-0.6299845E-04)
 number of electron     323.9999994 magnetization 
 augmentation part      -21.1805967 magnetization 

 Broyden mixing:
  rms(total) = 0.27526E-02    rms(broyden)= 0.27526E-02
  rms(prec ) = 0.31341E-02
  weight for this iteration     100.00

 eigenvalues of (default mixing * dielectric matrix)
  average eigenvalue GAMMA=   1.4587
  4.6618  2.6385  2.1612  1.7600  1.7600  0.9573  0.7943  0.7943  0.7692  0.3814
  0.4219  0.4043

 Free energy of the ion-electron system (eV)
  ---------------------------------------------------
  alpha Z        PSCENC =       255.72812692
  Ewald energy   TEWEN  =     65101.52851421
  -Hartree energ DENC   =    -77002.33327165
  -exchange      EXHF   =         0.00000000
  -V(xc)+E(xc)   XCENC  =     -2082.98343565
  PAW double counting   =      8453.43739417    -5811.79916122
  entropy T*S    EENTRO =        -0.00000000
  eigenvalues    EBANDS =     -1189.50039058
  atomic energy  EATOM  =     11953.08265402
  Solvation  Ediel_sol  =         0.00000000
  ---------------------------------------------------
  free energy    TOTEN  =      -322.83956978 eV

  energy without entropy =     -322.83956978  energy(sigma->0) =     -322.83956978


--------------------------------------------------------------------------------------------------------




--------------------------------------- Iteration      1(  18)  ---------------------------------------


    POTLOK:  cpu time    0.2387: real time    0.2390
    SETDIJ:  cpu time    0.0114: real time    0.0115
    EDDIAG:  cpu time    2.3938: real time    2.3966
  RMM-DIIS:  cpu time   40.3885: real time   40.4842
    ORTHCH:  cpu time    0.1966: real time    0.1967
       DOS:  cpu time    0.0004: real time    0.0004
    CHARGE:  cpu time    1.1190: real time    1.1202
    MIXING:  cpu time    0.0077: real time    0.0077
    --------------------------------------------
      LOOP:  cpu time   44.3562: real time   44.4564

 eigenvalue-minimisations  :  2132
 total energy-change (2. order) :-0.5108167E-03  (-0.1477693E-04)
 number of electron     323.9999994 magnetization 
 augmentation part      -21.1859777 magnetization 

 Broyden mixing:
  rms(total) = 0.98813E-03    rms(broyden)= 0.98813E-03
  rms(prec ) = 0.12609E-02
  weight for this iteration     100.00

 eigenvalues of (default mixing * dielectric matrix)
  average eigenvalue GAMMA=   1.4827
  5.3122  2.7286  2.0162  2.0162  2.0120  0.9679  0.7933  0.7933  0.7444  0.6839
  0.3816  0.4228  0.4031

 Free energy of the ion-electron system (eV)
  ---------------------------------------------------
  alpha Z        PSCENC =       255.72812692
  Ewald energy   TEWEN  =     65101.52851421
  -Hartree energ DENC   =    -77003.44029233
  -exchange      EXHF   =         0.00000000
  -V(xc)+E(xc)   XCENC  =     -2082.98730461
  PAW double counting   =      8453.58735026    -5811.92829210
  entropy T*S    EENTRO =        -0.00000000
  eigenvalues    EBANDS =     -1188.41083697
  atomic energy  EATOM  =     11953.08265402
  Solvation  Ediel_sol  =         0.00000000
  ---------------------------------------------------
  free energy    TOTEN  =      -322.84008060 eV

  energy without entropy =     -322.84008060  energy(sigma->0) =     -322.84008060


--------------------------------------------------------------------------------------------------------




--------------------------------------- Iteration      1(  19)  ---------------------------------------


    POTLOK:  cpu time    0.2416: real time    0.2432
    SETDIJ:  cpu time    0.0111: real time    0.0111
    EDDIAG:  cpu time    2.4044: real time    2.4068
  RMM-DIIS:  cpu time   46.0222: real time   46.1180
    ORTHCH:  cpu time    0.1959: real time    0.1960
       DOS:  cpu time    0.0004: real time    0.0004
    CHARGE:  cpu time    1.1165: real time    1.1177
    MIXING:  cpu time    0.0103: real time    0.0103
    --------------------------------------------
      LOOP:  cpu time   50.0022: real time   50.1036

 eigenvalue-minimisations  :  2413
 total energy-change (2. order) :-0.4636203E-03  (-0.8945115E-05)
 number of electron     323.9999994 magnetization 
 augmentation part      -21.1880159 magnetization 

 Broyden mixing:
  rms(total) = 0.90452E-03    rms(broyden)= 0.90451E-03
  rms(prec ) = 0.10966E-02
  weight for this iteration     100.00

 eigenvalues of (default mixing * dielectric matrix)
  average eigenvalue GAMMA=   1.6003
  6.9704  3.0192  2.4142  1.9592  1.9592  1.0484  1.0484  0.8015  0.8015  0.7673
  0.4263  0.4166  0.3816  0.3902

 Free energy of the ion-electron system (eV)
  ---------------------------------------------------
  alpha Z        PSCENC =       255.72812692
  Ewald energy   TEWEN  =     65101.52851421
  -Hartree energ DENC   =    -77004.09782670
  -exchange      EXHF   =         0.00000000
  -V(xc)+E(xc)   XCENC  =     -2082.98680184
  PAW double counting   =      8453.75231766    -5812.08998924
  entropy T*S    EENTRO =        -0.00000000
  eigenvalues    EBANDS =     -1187.75753924
  atomic energy  EATOM  =     11953.08265402
  Solvation  Ediel_sol  =         0.00000000
  ---------------------------------------------------
  free energy    TOTEN  =      -322.84054422 eV

  energy without entropy =     -322.84054422  energy(sigma->0) =     -322.84054422


--------------------------------------------------------------------------------------------------------




--------------------------------------- Iteration      1(  20)  ---------------------------------------


    POTLOK:  cpu time    0.2567: real time    0.2570
    SETDIJ:  cpu time    0.0108: real time    0.0108
    EDDIAG:  cpu time    2.3934: real time    2.4000
  RMM-DIIS:  cpu time   39.3683: real time   39.4524
    ORTHCH:  cpu time    0.2003: real time    0.2021
       DOS:  cpu time    0.0004: real time    0.0004
    CHARGE:  cpu time    1.1124: real time    1.1150
    MIXING:  cpu time    0.0081: real time    0.0081
    --------------------------------------------
      LOOP:  cpu time   43.3505: real time   43.4458

 eigenvalue-minimisations  :  2091
 total energy-change (2. order) :-0.3251077E-03  (-0.4120944E-05)
 number of electron     323.9999994 magnetization 
 augmentation part      -21.1864200 magnetization 

 Broyden mixing:
  rms(total) = 0.41049E-03    rms(broyden)= 0.41049E-03
  rms(prec ) = 0.49113E-03
  weight for this iteration     100.00

 eigenvalues of (default mixing * dielectric matrix)
  average eigenvalue GAMMA=   1.6496
  6.9309  3.3227  2.5821  2.1364  2.1364  1.5762  1.1345  0.9289  0.7952  0.7952
  0.7936  0.4249  0.4182  0.3815  0.3871

 Free energy of the ion-electron system (eV)
  ---------------------------------------------------
  alpha Z        PSCENC =       255.72812692
  Ewald energy   TEWEN  =     65101.52851421
  -Hartree energ DENC   =    -77004.66357426
  -exchange      EXHF   =         0.00000000
  -V(xc)+E(xc)   XCENC  =     -2082.98361266
  PAW double counting   =      8453.82489539    -5812.16751301
  entropy T*S    EENTRO =        -0.00000000
  eigenvalues    EBANDS =     -1187.19035995
  atomic energy  EATOM  =     11953.08265402
  Solvation  Ediel_sol  =         0.00000000
  ---------------------------------------------------
  free energy    TOTEN  =      -322.84086932 eV

  energy without entropy =     -322.84086932  energy(sigma->0) =     -322.84086932


--------------------------------------------------------------------------------------------------------




--------------------------------------- Iteration      1(  21)  ---------------------------------------


    POTLOK:  cpu time    0.2404: real time    0.2406
    SETDIJ:  cpu time    0.0105: real time    0.0106
    EDDIAG:  cpu time    2.3877: real time    2.3917
  RMM-DIIS:  cpu time   39.9176: real time   39.9947
    ORTHCH:  cpu time    0.1976: real time    0.1978
       DOS:  cpu time    0.0004: real time    0.0004
    CHARGE:  cpu time    1.1166: real time    1.1176
    MIXING:  cpu time    0.0081: real time    0.0082
    --------------------------------------------
      LOOP:  cpu time   43.8790: real time   43.9615

 eigenvalue-minimisations  :  1984
 total energy-change (2. order) :-0.1742360E-03  (-0.1515612E-05)
 number of electron     323.9999994 magnetization 
 augmentation part      -21.1861129 magnetization 

 Broyden mixing:
  rms(total) = 0.45590E-03    rms(broyden)= 0.45590E-03
  rms(prec ) = 0.51260E-03
  weight for this iteration     100.00

 eigenvalues of (default mixing * dielectric matrix)
  average eigenvalue GAMMA=   1.6667
  7.2293  3.7381  2.7166  2.1475  2.1475  1.9472  0.9818  0.9818  0.8016  0.8016
  0.8539  0.7062  0.4247  0.4192  0.3815  0.3880

 Free energy of the ion-electron system (eV)
  ---------------------------------------------------
  alpha Z        PSCENC =       255.72812692
  Ewald energy   TEWEN  =     65101.52851421
  -Hartree energ DENC   =    -77004.84330498
  -exchange      EXHF   =         0.00000000
  -V(xc)+E(xc)   XCENC  =     -2082.98393816
  PAW double counting   =      8453.96051210    -5812.30447582
  entropy T*S    EENTRO =        -0.00000000
  eigenvalues    EBANDS =     -1187.00913185
  atomic energy  EATOM  =     11953.08265402
  Solvation  Ediel_sol  =         0.00000000
  ---------------------------------------------------
[...]
 -0.000  -0.000   0.000  -0.000  -0.000   0.011   0.000   0.000
  0.000  -0.000  -0.000   0.000  -0.000   0.000   0.011   0.000
 -0.000  -0.000  -0.000  -0.000   0.000   0.000   0.000   0.011
  0.000   0.000   0.001   0.000   0.000  -0.000  -0.000  -0.000
 -0.000   0.000   0.016   0.001   0.000   0.000  -0.000  -0.000
 -0.010  -0.000  -0.000   0.021  -0.000   0.000   0.000   0.000
  0.000   0.000   0.000   0.001   0.017  -0.000  -0.000   0.000
 -0.000   0.000  -0.001   0.000   0.001  -0.000  -0.000  -0.000
 total augmentation occupancy for first ion, spin component:           1
  1.930   0.249   0.002  -0.198   0.002  -0.004  -0.055  -0.005   0.000   0.001   0.008   0.001   0.001
  0.249   1.483   0.004   0.968   0.008   0.002  -0.395  -0.009   0.002  -0.001  -0.026   0.000  -0.000
  0.002   0.004   1.340   0.011   0.003  -0.500  -0.001  -0.005   0.003   0.121  -0.000   0.002   0.045
 -0.198   0.968   0.011   1.519   0.010  -0.002  -0.572  -0.005   0.003   0.001   0.042   0.003   0.004
  0.002   0.008   0.003   0.010   1.350  -0.005  -0.004  -0.512   0.045   0.002   0.000   0.125  -0.000
 -0.004   0.002  -0.500  -0.002  -0.005   0.344  -0.001   0.002  -0.002  -0.041   0.000  -0.000  -0.007
 -0.055  -0.395  -0.001  -0.572  -0.004  -0.001   0.317   0.001   0.000  -0.001  -0.050  -0.001   0.000
 -0.005  -0.009  -0.005  -0.005  -0.512   0.002   0.001   0.343  -0.009  -0.000   0.001  -0.042  -0.001
  0.000   0.002   0.003   0.003   0.045  -0.002   0.000  -0.009   0.023   0.000  -0.001  -0.000  -0.000
  0.001  -0.001   0.121   0.001   0.002  -0.041  -0.001  -0.000   0.000   0.020   0.001   0.000  -0.001
  0.008  -0.026  -0.000   0.042   0.000   0.000  -0.050   0.001  -0.001   0.001   0.022   0.000  -0.000
  0.001   0.000   0.002   0.003   0.125  -0.000  -0.001  -0.042  -0.000   0.000   0.000   0.021   0.000
  0.001  -0.000   0.045   0.004  -0.000  -0.007   0.000  -0.001  -0.000  -0.001  -0.000   0.000   0.023


------------------------ aborting loop because EDIFF is reached ----------------------------------------


    CHARGE:  cpu time    1.1134: real time    1.1146
    FORLOC:  cpu time    0.0738: real time    0.0739
    FORNL :  cpu time   12.6955: real time   12.7125
    STRESS:  cpu time   68.0693: real time   68.1880
    FORCOR:  cpu time    0.2716: real time    0.2718
    FORHAR:  cpu time    0.1146: real time    0.1147
    MIXING:  cpu time    0.0069: real time    0.0069
    OFIELD:  cpu time    0.0000: real time    0.0000

  Number of pair interactions contributing to vdW energy:  280208
  Edisp (eV):  -19.86233
    FORVDW:  cpu time    0.0303: real time    0.0303

  FORCE on cell =-STRESS in cart. coord.  units (eV):
  Direction    XX          YY          ZZ          XY          YZ          ZX
  --------------------------------------------------------------------------------------
  Alpha Z   255.72813   255.72813   255.72813
  Ewald   74318.58642 74320.95894-83588.28284    23.20217    46.45037    27.34821
  Hartree 76607.83224 76611.49492-76263.24465     6.97010     7.30979     2.53853
  E(xc)   -1362.57405 -1362.09783 -1381.81076    -0.24063    -1.26922    -1.16154
  Local  ************************154776.58373   -29.07704   -51.27693   -28.98808
  n-local  3573.47481  3570.79279  3763.42350    -1.26692     8.13328     8.16497
  augment  -760.33653  -759.92429  -802.30501     0.69789    -1.04775    -1.33816
  Kinetic  3316.32447  3318.06245  3267.50793     6.86509     9.15703     4.82859
  Fock        0.00000     0.00000     0.00000     0.00000     0.00000     0.00000
  vdW       -13.22529   -12.69741   -10.35309     0.23034     0.58375    -0.37927
  -------------------------------------------------------------------------------------
  Total      29.41943    29.99562    17.24694     7.38100    18.04032    11.01325
  in kB      16.79580    17.12476     9.84642     4.21388    10.29937     6.28756
  external pressure =       14.59 kB  Pullay stress =        0.00 kB

  kinetic pressure (ideal gas correction) =      0.22 kB
  total pressure  =     14.81 kB
  Total+kin.    17.005      17.373      10.059       4.202      10.293       6.290

 VOLUME and BASIS-vectors are now :
 -----------------------------------------------------------------------------
  energy-cutoff  :      550.00
  volume of cell :     2806.36
      direct lattice vectors                 reciprocal lattice vectors
    10.383962409  0.000000000  0.000000000     0.096302352  0.056911162  0.002543691
    -5.318268430  8.999319926  0.000000000     0.000000000  0.111119508  0.002310541
    -0.424204775 -0.624445534 30.031096090     0.000000000  0.000000000  0.033298818

  length of vectors
    10.383962409 10.453312309 30.040582789     0.111890543  0.111143527  0.033298818


 FORCES acting on ions
    electron-ion (+dipol)            ewald-force                    non-local-force                 convergence-correction
 -----------------------------------------------------------------------------------------------
   0.870E+00 -.553E+00 0.871E+03   -.831E+00 0.574E+00 -.876E+03   -.302E+00 -.237E+00 0.461E+01   -.573E-04 0.134E-02 0.161E-03
   0.268E+01 -.157E+01 0.870E+03   -.261E+01 0.175E+01 -.875E+03   -.489E+00 -.290E+00 0.516E+01   -.759E-03 -.153E-02 -.808E-03
   -.395E+01 0.215E+01 0.870E+03   0.407E+01 -.215E+01 -.875E+03   0.180E+00 -.241E+00 0.510E+01   0.233E-03 -.194E-03 -.110E-02
   0.241E+00 -.138E+01 0.868E+03   -.213E+00 0.142E+01 -.874E+03   -.584E-01 -.649E-01 0.486E+01   -.260E-03 0.630E-03 0.292E-03
   -.201E+01 0.673E+00 0.869E+03   0.212E+01 -.604E+00 -.874E+03   0.114E-01 -.269E+00 0.479E+01   0.530E-03 -.134E-02 -.314E-03
   0.296E+01 0.181E+01 0.871E+03   -.292E+01 -.177E+01 -.876E+03   -.407E+00 -.394E+00 0.481E+01   0.675E-03 0.130E-02 -.883E-03
   0.110E+01 0.198E+01 0.872E+03   -.100E+01 -.191E+01 -.877E+03   -.163E+00 -.560E+00 0.500E+01   0.314E-03 0.153E-03 0.284E-03
   0.289E+01 0.164E+01 0.869E+03   -.285E+01 -.159E+01 -.875E+03   -.366E+00 -.274E+00 0.488E+01   0.246E-03 -.651E-03 -.107E-03
   0.346E+01 0.656E+00 0.869E+03   -.345E+01 -.606E+00 -.875E+03   -.419E+00 -.105E+00 0.474E+01   -.955E-03 0.162E-03 -.508E-03
   0.984E+00 -.207E+01 -.116E+03   -.875E+00 0.225E+01 0.111E+03   -.346E+00 -.318E+00 0.474E+01   0.578E-03 -.794E-03 0.105E-02
   -.125E+01 0.171E+01 -.118E+03   0.131E+01 -.161E+01 0.113E+03   -.151E+00 -.369E+00 0.532E+01   -.103E-02 -.741E-04 0.205E-03
   0.179E+01 -.133E-01 -.116E+03   -.174E+01 0.181E+00 0.111E+03   -.386E+00 -.259E+00 0.510E+01   -.323E-03 0.321E-03 0.132E-02
   0.143E+01 0.170E+01 -.116E+03   -.144E+01 -.158E+01 0.111E+03   -.255E+00 -.430E+00 0.511E+01   0.150E-03 0.140E-03 0.778E-03
   0.437E+01 0.718E+00 -.118E+03   -.434E+01 -.510E+00 0.113E+03   -.483E+00 -.561E+00 0.484E+01   0.567E-03 -.117E-02 -.966E-04
   -.587E+00 0.132E+01 -.117E+03   0.651E+00 -.121E+01 0.112E+03   -.856E-01 -.292E+00 0.494E+01   -.910E-03 0.873E-03 -.137E-03
   0.117E+01 -.369E+00 -.117E+03   -.106E+01 0.505E+00 0.112E+03   -.449E+00 -.158E+00 0.512E+01   -.706E-03 0.647E-03 -.766E-04
   -.917E-01 -.175E+01 -.116E+03   0.160E+00 0.190E+01 0.111E+03   -.174E+00 -.571E-01 0.498E+01   0.505E-03 -.780E-03 0.487E-04
   0.224E+01 0.205E+01 -.116E+03   -.217E+01 -.194E+01 0.111E+03   -.348E+00 -.431E+00 0.511E+01   0.115E-02 0.642E-03 0.596E-04
   -.309E+01 -.266E+01 0.115E+03   0.306E+01 0.258E+01 -.110E+03   0.340E+00 0.238E+00 -.480E+01   -.476E-03 0.113E-02 -.403E-04
   -.143E+01 -.268E+01 0.118E+03   0.142E+01 0.269E+01 -.113E+03   0.161E+00 0.215E+00 -.553E+01   -.961E-03 -.148E-02 0.554E-03
   -.285E+01 0.783E+00 0.119E+03   0.286E+01 -.929E+00 -.114E+03   0.350E+00 0.299E+00 -.478E+01   0.359E-03 -.268E-03 0.126E-02
   0.178E+01 -.364E+01 0.117E+03   -.190E+01 0.355E+01 -.111E+03   0.243E+00 0.453E+00 -.511E+01   0.634E-04 0.439E-03 -.296E-03
   -.116E+01 -.380E+00 0.118E+03   0.117E+01 0.312E+00 -.113E+03   0.161E+00 0.232E+00 -.532E+01   0.647E-03 -.108E-02 -.138E-03
   0.133E+01 0.492E+01 0.116E+03   -.142E+01 -.512E+01 -.111E+03   0.168E+00 -.787E-01 -.513E+01   0.704E-03 0.156E-02 0.109E-02
   0.713E+00 -.126E+01 0.114E+03   -.739E+00 0.119E+01 -.109E+03   0.204E+00 0.187E+00 -.517E+01   0.403E-03 -.181E-03 0.102E-03
   0.378E+01 -.370E+00 0.117E+03   -.387E+01 0.244E+00 -.112E+03   -.322E-01 0.366E+00 -.514E+01   0.442E-03 -.528E-03 0.507E-04
   0.162E+01 0.376E+01 0.116E+03   -.168E+01 -.392E+01 -.111E+03   0.107E-01 0.121E+00 -.495E+01   -.102E-02 0.533E-03 0.844E-03
   -.735E+00 -.241E+01 -.870E+03   0.736E+00 0.240E+01 0.876E+03   0.264E+00 0.163E+00 -.478E+01   0.575E-03 -.909E-03 -.723E-03
   -.186E+01 0.178E+01 -.868E+03   0.180E+01 -.187E+01 0.873E+03   0.361E+00 0.423E-01 -.497E+01   -.876E-03 0.249E-03 0.213E-03
   0.128E+01 -.523E+00 -.870E+03   -.134E+01 0.524E+00 0.876E+03   0.101E+00 0.107E+00 -.477E+01   -.371E-03 0.445E-03 -.643E-03
   -.515E+00 -.190E+01 -.868E+03   0.457E+00 0.188E+01 0.873E+03   0.153E+00 0.235E+00 -.482E+01   -.566E-04 -.174E-03 -.100E-02
   0.202E+00 0.163E+00 -.867E+03   -.238E+00 -.181E+00 0.872E+03   0.215E+00 0.113E+00 -.515E+01   0.147E-03 -.996E-03 0.552E-04
   -.258E+01 -.139E+01 -.872E+03   0.262E+01 0.132E+01 0.877E+03   0.300E+00 0.426E+00 -.518E+01   -.101E-02 0.515E-03 0.679E-03
   0.146E+01 -.560E+00 -.869E+03   -.147E+01 0.498E+00 0.875E+03   0.318E-01 0.294E+00 -.507E+01   -.502E-03 0.625E-03 0.192E-03
   0.144E+01 0.322E-01 -.872E+03   -.148E+01 -.917E-01 0.878E+03   0.854E-01 0.232E+00 -.502E+01   0.794E-03 -.338E-03 -.362E-04
   0.189E+01 0.142E+01 -.869E+03   -.193E+01 -.148E+01 0.874E+03   0.114E+00 0.765E-01 -.513E+01   0.126E-02 0.749E-03 0.345E-03
   -.202E+01 0.836E+00 0.491E+03   0.201E+01 -.789E+00 -.491E+03   0.186E-01 -.116E+00 -.166E+00   -.656E-03 0.890E-03 0.226E-03
   0.924E+00 -.500E+01 0.493E+03   -.103E+01 0.509E+01 -.493E+03   -.264E-01 0.400E+00 0.749E-01   -.385E-03 -.384E-03 0.229E-03
   -.595E+01 0.972E+00 0.494E+03   0.619E+01 -.103E+01 -.495E+03   0.133E+00 -.198E+00 -.465E-01   -.445E-03 -.124E-02 0.297E-03
   -.127E+00 0.329E+01 0.494E+03   0.115E+00 -.346E+01 -.494E+03   -.229E+00 -.168E+00 -.129E+00   0.465E-03 0.108E-02 0.343E-03
   -.401E+01 -.320E+01 0.493E+03   0.410E+01 0.327E+01 -.493E+03   0.170E-01 0.396E-01 0.325E+00   -.210E-05 -.111E-05 -.522E-04
   0.165E+01 -.549E+00 0.495E+03   -.172E+01 0.722E+00 -.495E+03   0.377E-01 -.412E-01 0.507E+00   0.378E-03 -.607E-03 0.866E-04
   -.688E+00 -.886E-02 0.492E+03   0.796E+00 0.136E+00 -.493E+03   0.128E+00 0.204E+00 -.775E-01   0.787E-04 0.117E-02 0.447E-03
   0.151E+01 -.108E+01 0.493E+03   -.149E+01 0.106E+01 -.493E+03   -.259E+00 -.109E+00 0.959E-01   0.248E-03 -.183E-03 0.145E-03
   0.215E+00 0.440E+01 0.493E+03   -.173E+00 -.452E+01 -.493E+03   0.783E-01 -.281E+00 0.296E+00   -.538E-04 -.617E-03 0.117E-03
   -.504E+00 -.391E+01 -.496E+03   0.471E+00 0.401E+01 0.496E+03   0.763E-01 0.327E+00 -.190E+00   -.100E-03 -.341E-03 -.141E-03
   -.718E+00 0.102E+01 -.496E+03   0.657E+00 -.104E+01 0.496E+03   -.984E-01 0.915E-01 -.306E+00   -.405E-03 0.320E-03 -.286E-04
   -.561E+00 0.211E+01 -.493E+03   0.648E+00 -.213E+01 0.493E+03   0.511E-01 -.530E-01 -.124E-01   0.108E-02 0.384E-03 0.125E-03
   -.517E+00 -.347E+01 -.490E+03   0.599E+00 0.354E+01 0.490E+03   -.135E-01 0.551E+00 0.202E+00   0.361E-03 -.101E-02 -.170E-04
   -.171E+01 0.195E+01 -.491E+03   0.175E+01 -.190E+01 0.491E+03   -.238E+00 -.153E+00 0.149E+00   -.823E-03 -.106E-03 0.163E-03
   -.317E+01 -.113E+01 -.496E+03   0.323E+01 0.116E+01 0.496E+03   0.288E+00 0.221E+00 -.215E+00   -.988E-03 0.763E-03 -.819E-04
   -.246E+01 0.160E+01 -.493E+03   0.259E+01 -.159E+01 0.493E+03   0.209E+00 -.308E+00 0.899E-01   -.288E-03 -.140E-03 -.251E-03
   -.590E+00 -.232E+01 -.493E+03   0.768E+00 0.248E+01 0.493E+03   0.123E+00 0.240E+00 0.257E+00   0.940E-03 -.442E-03 -.169E-03
   0.425E+00 0.163E+01 -.493E+03   -.412E+00 -.170E+01 0.493E+03   -.124E+00 0.576E-02 0.208E+00   0.731E-04 0.922E-03 -.101E-03
 -----------------------------------------------------------------------------------------------
   0.129E+01 0.945E+00 0.517E+00   -.471E-13 -.140E-13 0.108E-11   -.129E+01 -.940E+00 -.518E+00   -.440E-03 0.437E-03 0.401E-02
 
 
 POSITION                                       TOTAL-FORCE (eV/Angst)
 -----------------------------------------------------------------------------------
     -0.16241      1.78481      9.64192        -0.254577     -0.211403     -0.592775
     -1.92550      4.76700      9.60540        -0.407688     -0.115491     -0.026637
     -3.75641      7.80698      9.62185         0.279918     -0.227196     -0.133239
      3.29341      1.78146      9.64274        -0.027883     -0.028690     -0.407156
      1.49339      4.79485      9.63657         0.113514     -0.193825     -0.481006
     -0.23485      7.81484      9.62419        -0.351912     -0.330548     -0.361981
      6.74475      1.80900      9.60710        -0.071416     -0.481368     -0.129189
      4.99856      4.79712      9.63005        -0.311421     -0.218157     -0.356219
      3.22729      7.78659      9.64625        -0.391234     -0.049782     -0.479615
      1.76306      0.13958     16.78258        -0.240523     -0.110174     -0.533648
     -0.00097      3.15715     16.76453        -0.099586     -0.222391      0.016485
     -1.76686      6.13128     16.76767        -0.320456     -0.054009     -0.117013
      5.24998      0.14456     16.75351        -0.249525     -0.264362     -0.101673
      3.49041      3.14959     16.78461        -0.437734     -0.313463     -0.488349
      1.66419      6.16048     16.77335        -0.033804     -0.134240     -0.294564
      8.70971      0.13925     16.76069        -0.321996      0.014629     -0.104075
      6.93046      3.13343     16.76022        -0.103107      0.128764     -0.175118
      5.15707      6.16053     16.75628        -0.267856     -0.264102     -0.138212
     -0.22405      1.73696     13.25005         0.291302      0.120138      0.493205
     -1.98813      4.70869     13.28467         0.141629      0.172371     -0.295880
     -3.77482      7.73389     13.23284         0.345944      0.117591      0.547043
      3.25046      1.72072     13.25847         0.125139      0.320304      0.207944
      1.46416      4.73433     13.26066         0.157522      0.124733     -0.023374
     -0.29922      7.75367     13.27102         0.075421     -0.296530      0.090224
      6.70270      1.71894     13.28944         0.168782      0.069387     -0.006194
      4.96053      4.72602     13.26262        -0.111596      0.196728      0.140740
      3.17878      7.74043     13.25602        -0.046372     -0.072393      0.343762
      1.71199      0.08283     20.39775         0.253187      0.137884      0.415502
     -0.04700      3.10676     20.39957         0.295845     -0.038458      0.249695
     -1.83254      6.09290     20.40348         0.036602      0.106738      0.408206
      5.19405      0.07863     20.38888         0.092973      0.212389      0.363758
      3.41538      3.06728     20.39585         0.172098      0.080634      0.063536
      1.62201      6.06440     20.43571         0.318807      0.336580     -0.045965
      8.64121      0.07707     20.41143         0.015456      0.222530      0.113644
      6.87679      3.08745     20.42752         0.045518      0.167732      0.105620
      5.09840      6.09104     20.41158         0.069811      0.016847      0.018661
     -0.16239     -0.22334     11.45763         0.031995     -0.097552     -0.211281
      8.44998      2.72056     11.44286        -0.111316      0.553816      0.080430
     -3.70547      5.76913     11.44234         0.377679     -0.256744     -0.105139
      3.31764     -0.22969     11.44854        -0.258228     -0.329993     -0.257491
      1.52841      2.75834     11.42943         0.127875      0.121181      0.468725
     -0.25420      5.76714     11.41641        -0.019856      0.098854      0.724421
      1.43978      8.75316     11.45563         0.243091      0.322926     -0.133751
      5.01878      2.76836     11.44473        -0.266990     -0.125340      0.091585
      3.22053      5.77322     11.43100         0.120802     -0.411668      0.393665
      0.00363      1.09843     18.60215         0.056979      0.460381     -0.193467
     -1.76552      4.10945     18.60892        -0.136747      0.080608     -0.380014
     -3.54540      7.11494     18.58585         0.131838     -0.106365      0.016141
      3.47057      1.06761     18.56836         0.067375      0.674638      0.320809
      1.71801      4.12932     18.57672        -0.211995     -0.158139      0.168300
     -0.09214      7.09572     18.60422         0.378755      0.261099     -0.224123
      6.92426      1.13667     18.57802         0.342226     -0.347520      0.188196
      5.16808      4.10099     18.57469         0.285508      0.400710      0.451476
      3.38047      7.11440     18.57715        -0.111360     -0.054069      0.318770
 -----------------------------------------------------------------------------------
    total drift:                               -0.001587      0.006221      0.003393


--------------------------------------------------------------------------------------------------------



  FREE ENERGIE OF THE ION-ELECTRON SYSTEM (eV)
  ---------------------------------------------------
  free  energy   TOTEN  =      -342.58399226 eV

  energy  without entropy=     -342.58399226  energy(sigma->0) =     -342.58399226
 
 d Force =-0.2217044E-01[-0.242E-01,-0.202E-01]  d Energy =-0.2217128E-01 0.840E-06
 d Force = 0.1009471E+02[ 0.101E+02, 0.101E+02]  d Ewald  = 0.1009471E+02 0.614E-06


--------------------------------------------------------------------------------------------------------


    POTLOK:  cpu time    0.2518: real time    0.2520


--------------------------------------------------------------------------------------------------------


           RANDOM_SEED =         264224582              324                0
   IONSTEP:  cpu time    0.0001: real time    0.0001

  ENERGY OF THE ELECTRON-ION-THERMOSTAT SYSTEM (eV)
  ---------------------------------------------------
% ion-electron   TOTEN  =      -342.583992  see above
  kinetic energy EKIN   =         0.578780
  kin. lattice  EKIN_LAT=         0.000000  (temperature   84.48 K)
  nose potential ES     =        -0.021340
  nose kinetic   EPS    =         0.002444
  ---------------------------------------------------
  total energy   ETOTAL =      -342.024109 eV

  maximum distance moved by ions :      0.61E-03


 mean value of Nose-termostat <S>:     0.977 mean value of <T> :    84.483
 mean temperature <T/S>/<1/S>  :    84.483

    WAVPRE:  cpu time    0.0945: real time    0.0968
    FEWALD:  cpu time    0.0010: real time    0.0010
    ORTHCH:  cpu time    7.6034: real time    7.6197
    POTLOK:  cpu time    0.2505: real time    0.2507
    EDDIAG:  cpu time    2.3981: real time    2.4009
     LOOP+:  cpu time  418.9532: real time  419.8640
    4ORBIT:  cpu time    0.0000: real time    0.0000

 total amount of memory used by VASP MPI-rank0   348864. kBytes
=======================================================================

   base      :      30000. kBytes
   nonl-proj :     189480. kBytes
   fftplans  :      16533. kBytes
   grid      :      78796. kBytes
   one-center:        839. kBytes
   wavefun   :      33216. kBytes
 
  
  
 General timing and accounting informations for this job:
 ========================================================
  
                  Total CPU time used (sec):     5319.198
                            User time (sec):     5306.987
                          System time (sec):       12.211
                         Elapsed time (sec):     5330.494
  
                   Maximum memory used (kb):      774752.
                   Average memory used (kb):           0.
  
                          Minor page faults:       403818
                          Major page faults:            0
                 Voluntary context switches:          775
