 vasp.6.1.1 19Jun20 (build Dec 21 2021 08:45:49) complex                        
  
 executed on             LinuxIFC date 2023.10.08  14:25:12
 running on   40 total cores
 distrk:  each k-point on   40 cores,    1 groups
 distr:  one band on NCORE=   1 cores,   40 groups


--------------------------------------------------------------------------------------------------------


 INCAR:
 POTCAR:   PAW_PBE Te 08Apr2002                   
 POTCAR:   PAW_PBE Mo 08Apr2002                   
 -----------------------------------------------------------------------------
|                                                                             |
|           W    W    AA    RRRRR   N    N  II  N    N   GGGG   !!!           |
|           W    W   A  A   R    R  NN   N  II  NN   N  G    G  !!!           |
|           W    W  A    A  R    R  N N  N  II  N N  N  G       !!!           |
|           W WW W  AAAAAA  RRRRR   N  N N  II  N  N N  G  GGG   !            |
|           WW  WW  A    A  R   R   N   NN  II  N   NN  G    G                |
|           W    W  A    A  R    R  N    N  II  N    N   GGGG   !!!           |
|                                                                             |
|     For optimal performance we recommend to set                             |
|       NCORE = 4 - approx SQRT(number of cores).                             |
|     NCORE specifies how many cores store one orbital (NPAR=cpu/NCORE).      |
|     This setting can greatly improve the performance of VASP for DFT.       |
|     The default, NCORE=1 might be grossly inefficient on modern             |
|     multi-core architectures or massively parallel machines. Do your        |
|     own testing!!!!                                                         |
|     Unfortunately you need to use the default for GW and RPA                |
|     calculations (for HF NCORE is supported but not extensively tested      |
|     yet).                                                                   |
|                                                                             |
 -----------------------------------------------------------------------------

 POTCAR:   PAW_PBE Te 08Apr2002                   
   VRHFIN =Te: s2p4                                                                                 
   LEXCH  = PE                                                                                      
   EATOM  =   223.2721 eV,   16.4100 Ry                                                             
                                                                                                    
   TITEL  = PAW_PBE Te 08Apr2002                                                                    
   LULTRA =        F    use ultrasoft PP ?                                                          
   IUNSCR =        1    unscreen: 0-lin 1-nonlin 2-no                                               
   RPACOR =    2.200    partial core radius                                                         
   POMASS =  127.600; ZVAL   =    6.000    mass and valenz                                          
   RCORE  =    2.300    outmost cutoff radius                                                       
   RWIGS  =    2.900; RWIGS  =    1.535    wigner-seitz radius (au A)                               
   ENMAX  =  174.982; ENMIN  =  131.236 eV                                                          
   ICORE  =        3    local potential                                                             
   LCOR   =        T    correct aug charges                                                         
   LPAW   =        T    paw PP                                                                      
   EAUG   =  368.792                                                                                
   DEXC   =    -.169                                                                                
   RMAX   =    3.486    core radius for proj-oper                                                   
   RAUG   =    1.300    factor for augmentation sphere                                              
   RDEP   =    2.397    radius for radial grids                                                     
   QCUT   =   -3.586; QGAM   =    7.172    optimization parameters                                  
                                                                                                    
   Description                                                                                      
     l     E      TYP  RCUT    TYP  RCUT                                                            
     0   .000     23  2.300                                                                         
     0   .000     23  2.300                                                                         
     1   .000     23  2.300                                                                         
     1   .000     23  2.300                                                                         
     2   .000     23  2.300                                                                         
     3  -.100     23  2.300                                                                         
  local pseudopotential read in
  partial core-charges read in
  atomic valenz-charges read in
  non local Contribution for L=           0  read in
    real space projection operators read in
  non local Contribution for L=           0  read in
    real space projection operators read in
  non local Contribution for L=           1  read in
    real space projection operators read in
  non local Contribution for L=           1  read in
    real space projection operators read in
  non local Contribution for L=           2  read in
    real space projection operators read in
    PAW grid and wavefunctions read in
 
   number of l-projection  operators is LMAX  =           5
   number of lm-projection operators is LMMAX =          13
 
 POTCAR:   PAW_PBE Mo 08Apr2002                   
   VRHFIN =Mo: 4p5s4d                                                                               
   LEXCH  = PE                                                                                      
   EATOM  =   217.5180 eV,   15.9871 Ry                                                             
                                                                                                    
   TITEL  = PAW_PBE Mo 08Apr2002                                                                    
   LULTRA =        F    use ultrasoft PP ?                                                          
   IUNSCR =        1    unscreen: 0-lin 1-nonlin 2-no                                               
   RPACOR =    2.200    partial core radius                                                         
   POMASS =   95.940; ZVAL   =    6.000    mass and valenz                                          
   RCORE  =    2.750    outmost cutoff radius                                                       
   RWIGS  =    2.750; RWIGS  =    1.455    wigner-seitz radius (au A)                               
   ENMAX  =  224.584; ENMIN  =  168.438 eV                                                          
   RCLOC  =    2.111    cutoff for local pot                                                        
   LCOR   =        T    correct aug charges                                                         
   LPAW   =        T    paw PP                                                                      
   EAUG   =  345.278                                                                                
   DEXC   =    -.088                                                                                
   RMAX   =    3.077    core radius for proj-oper                                                   
   RAUG   =    1.300    factor for augmentation sphere                                              
   RDEP   =    2.815    radius for radial grids                                                     
   QCUT   =   -4.063; QGAM   =    8.126    optimization parameters                                  
                                                                                                    
   Description                                                                                      
     l     E      TYP  RCUT    TYP  RCUT                                                            
     2   .000     23  2.500                                                                         
     2   .000     23  2.500                                                                         
     0   .000     23  2.600                                                                         
     0  1.000     23  2.600                                                                         
     1   .400     23  2.750                                                                         
     1  2.000     23  2.750                                                                         
     3   .000      7   .000                                                                         
  local pseudopotential read in
  partial core-charges read in
  atomic valenz-charges read in
  non local Contribution for L=           2  read in
    real space projection operators read in
  non local Contribution for L=           2  read in
    real space projection operators read in
  non local Contribution for L=           0  read in
    real space projection operators read in
  non local Contribution for L=           0  read in
    real space projection operators read in
  non local Contribution for L=           1  read in
    real space projection operators read in
  non local Contribution for L=           1  read in
    real space projection operators read in
    PAW grid and wavefunctions read in
 
   number of l-projection  operators is LMAX  =           6
   number of lm-projection operators is LMMAX =          18
 
 -----------------------------------------------------------------------------
|                                                                             |
|               ----> ADVICE to this user running VASP <----                  |
|                                                                             |
|     You have a (more or less) 'large supercell' and for larger cells it     |
|     might be more efficient to use real-space projection operators.         |
|     Therefore, try LREAL= Auto in the INCAR file.                           |
|     Mind: If you want to do very accurate calculations, keep the            |
|     reciprocal projection scheme (i.e. LREAL=.FALSE.).                      |
|                                                                             |
 -----------------------------------------------------------------------------

 PAW_PBE Te 08Apr2002                   :
 energy of atom  1       EATOM= -223.2721
 kinetic energy error for atom=    0.0006 (will be added to EATOM!!)
 PAW_PBE Mo 08Apr2002                   :
 energy of atom  2       EATOM= -217.5180
 kinetic energy error for atom=    0.0009 (will be added to EATOM!!)
 
 
 POSCAR: Te Mo
  positions in cartesian coordinates
  No initial velocities read in
 exchange correlation table for  LEXCH =        8
   RHO(1)=    0.500       N(1)  =     2000
   RHO(2)=  100.500       N(2)  =     4000
 


--------------------------------------------------------------------------------------------------------


 ion  position               nearest neighbor table
   1  0.111  0.221  0.313-  38 2.75  41 2.76  37 2.80   4 3.52   7 3.53   3 3.58   9 3.60   2 3.60
                             5 3.61
   2  0.111  0.556  0.313-  39 2.74  42 2.75  38 2.81   5 3.53   8 3.53   3 3.59   6 3.59   1 3.60
                             7 3.61
   3  0.110  0.888  0.313-  37 2.74  40 2.76  39 2.80   9 3.52   6 3.53   1 3.58   2 3.59   8 3.59
                             4 3.61
   4  0.444  0.222  0.313-  41 2.75  44 2.76  40 2.80   1 3.52   7 3.53   5 3.59   6 3.59   3 3.61
                             8 3.61
   5  0.444  0.555  0.313-  42 2.74  45 2.75  41 2.80   2 3.53   8 3.53   4 3.59   6 3.59   9 3.60
                             1 3.61  23 3.68
   6  0.444  0.889  0.313-  40 2.74  43 2.75  42 2.80   9 3.53   3 3.53   5 3.59   4 3.59   2 3.59
                             7 3.60
   7  0.777  0.223  0.313-  44 2.74  38 2.76  43 2.81   4 3.53   1 3.53   8 3.59   9 3.60   6 3.60
                             2 3.61
   8  0.778  0.556  0.313-  45 2.75  39 2.76  44 2.81   5 3.53   2 3.53   9 3.58   3 3.59   7 3.59
                             4 3.61
   9  0.777  0.888  0.313-  43 2.75  37 2.76  45 2.80   3 3.52   6 3.53   8 3.58   5 3.60   7 3.60
                             1 3.60
  10  0.111  0.278  0.566-  47 2.75  50 2.76  46 2.81  16 3.52  13 3.53  12 3.59  11 3.59  18 3.60
                            14 3.60
  11  0.112  0.611  0.566-  51 2.75  48 2.75  47 2.80  14 3.52  17 3.53  12 3.59  10 3.59  15 3.59
                            16 3.61
  12  0.111  0.944  0.566-  46 2.75  49 2.75  48 2.80  18 3.52  15 3.53  11 3.59  10 3.59  17 3.60
                            13 3.60
  13  0.444  0.278  0.566-  50 2.74  53 2.76  49 2.80  10 3.53  16 3.53  15 3.59  14 3.59  12 3.60
                            17 3.60
  14  0.445  0.611  0.567-  51 2.74  54 2.76  50 2.79  11 3.52  17 3.53  15 3.59  13 3.59  18 3.60
                            10 3.60  32 3.68
  15  0.444  0.944  0.566-  49 2.74  52 2.76  51 2.80  12 3.53  18 3.53  14 3.59  13 3.59  11 3.59
                            16 3.60
  16  0.778  0.277  0.566-  53 2.75  47 2.75  52 2.80  10 3.52  13 3.53  18 3.59  17 3.60  15 3.60
                            11 3.61
  17  0.778  0.611  0.566-  54 2.74  48 2.76  53 2.80  14 3.53  11 3.53  18 3.58  12 3.60  16 3.60
                            13 3.60
  18  0.778  0.944  0.566-  52 2.74  46 2.75  54 2.81  12 3.52  15 3.53  17 3.58  16 3.59  10 3.60
                            14 3.60
  19  0.111  0.223  0.434-  38 2.77  41 2.77  37 2.78  25 3.52  22 3.53  20 3.58  23 3.60  21 3.60
                            27 3.60
  20  0.111  0.555  0.434-  39 2.77  42 2.77  38 2.78  26 3.53  23 3.53  19 3.58  21 3.59  25 3.59
                            24 3.60
  21  0.110  0.888  0.434-  37 2.77  39 2.77  40 2.77  27 3.52  24 3.53  20 3.59  26 3.59  19 3.60
                            22 3.61
  22  0.444  0.222  0.434-  41 2.76  44 2.77  40 2.77  19 3.53  25 3.53  23 3.58  24 3.59  26 3.60
                            21 3.61
  23  0.445  0.555  0.433-  41 2.76  45 2.76  42 2.77  26 3.52  20 3.53  22 3.58  19 3.60  24 3.60
                            27 3.60   5 3.68
  24  0.444  0.889  0.434-  40 2.76  43 2.77  42 2.77  21 3.53  27 3.53  22 3.59  23 3.60  20 3.60
                            25 3.61
  25  0.778  0.223  0.434-  38 2.76  44 2.76  43 2.77  19 3.52  22 3.53  26 3.59  27 3.59  20 3.59
                            24 3.61
  26  0.778  0.556  0.434-  39 2.77  45 2.77  44 2.77  23 3.52  20 3.53  27 3.59  25 3.59  21 3.59
                            22 3.60
  27  0.778  0.889  0.434-  37 2.76  43 2.77  45 2.77  21 3.52  24 3.53  26 3.59  25 3.59  19 3.60
                            23 3.60
  28  0.111  0.278  0.687-  46 2.77  50 2.77  47 2.77  31 3.53  34 3.53  29 3.59  30 3.59  36 3.60
                            32 3.60
  29  0.111  0.611  0.687-  48 2.76  51 2.76  47 2.77  35 3.53  32 3.53  30 3.59  28 3.59  34 3.60
                            33 3.60
  30  0.110  0.944  0.687-  48 2.76  46 2.76  49 2.78  36 3.52  33 3.54  29 3.59  28 3.59  35 3.60
                            31 3.61
  31  0.444  0.278  0.687-  50 2.77  53 2.77  49 2.77  34 3.52  28 3.53  32 3.59  33 3.59  35 3.59
                            30 3.61
  32  0.445  0.611  0.687-  54 2.76  50 2.77  51 2.77  35 3.52  29 3.53  31 3.59  33 3.59  36 3.60
                            28 3.60  14 3.68
  33  0.445  0.945  0.687-  52 2.77  49 2.77  51 2.77  36 3.52  30 3.54  31 3.59  32 3.59  34 3.60
                            29 3.60
  34  0.778  0.278  0.687-  53 2.76  47 2.77  52 2.78  31 3.52  28 3.53  35 3.58  36 3.59  33 3.60
                            29 3.60
  35  0.777  0.610  0.687-  54 2.76  53 2.76  48 2.77  32 3.52  29 3.53  34 3.58  31 3.59  36 3.60
                            30 3.60
  36  0.778  0.945  0.687-  46 2.76  52 2.77  54 2.77  33 3.52  30 3.52  34 3.59  28 3.60  35 3.60
                            32 3.60
  37  1.000  1.000  0.373-   3 2.74   9 2.76  27 2.76  21 2.77  19 2.78   1 2.80
  38  1.000  0.333  0.373-   1 2.75   7 2.76  25 2.76  19 2.77  20 2.78   2 2.81
  39  1.000  0.667  0.373-   2 2.74   8 2.76  26 2.77  21 2.77  20 2.77   3 2.80
  40  0.333  1.000  0.373-   6 2.74   3 2.76  24 2.76  22 2.77  21 2.77   4 2.80
  41  0.334  0.334  0.373-   4 2.75  23 2.76  22 2.76   1 2.76  19 2.77   5 2.80
  42  0.334  0.667  0.373-   5 2.74   2 2.75  23 2.77  20 2.77  24 2.77   6 2.80
  43  0.667  1.000  0.373-   9 2.75   6 2.75  27 2.77  24 2.77  25 2.77   7 2.81
  44  0.667  0.334  0.373-   7 2.74   4 2.76  25 2.76  26 2.77  22 2.77   8 2.81
  45  0.667  0.667  0.373-   8 2.75   5 2.75  23 2.76  26 2.77  27 2.77   9 2.80
  46  1.000  0.055  0.627-  12 2.75  18 2.75  30 2.76  36 2.76  28 2.77  10 2.81
  47  0.999  0.389  0.627-  10 2.75  16 2.75  34 2.77  29 2.77  28 2.77  11 2.80
  48  0.000  0.723  0.627-  11 2.75  30 2.76  29 2.76  17 2.76  35 2.77  12 2.80
  49  0.334  0.055  0.627-  15 2.74  12 2.75  33 2.77  31 2.77  30 2.78  13 2.80
  50  0.334  0.389  0.627-  13 2.74  10 2.76  31 2.77  28 2.77  32 2.77  14 2.79
  51  0.333  0.723  0.627-  14 2.74  11 2.75  29 2.76  33 2.77  32 2.77  15 2.80
  52  0.667  0.055  0.627-  18 2.74  15 2.76  36 2.77  33 2.77  34 2.78  16 2.80
  53  0.667  0.389  0.627-  16 2.75  13 2.76  35 2.76  34 2.76  31 2.77  17 2.80
  54  0.667  0.722  0.627-  17 2.74  14 2.76  35 2.76  32 2.76  36 2.77  18 2.81
 

IMPORTANT INFORMATION: All symmetrisations will be switched off!
NOSYMM: (Re-)initialisation of all symmetry stuff for point group C_1.


----------------------------------------------------------------------------------------

                                     Primitive cell                                     

  volume of cell :    3033.4081

  direct lattice vectors                    reciprocal lattice vectors
    10.581142694  0.000000000  0.000000000     0.094507751  0.052868202  0.000452526
    -5.257527332  9.398410917  0.000000000     0.000000000  0.106400966  0.001261208
     0.056204741 -0.361563925 30.503090742     0.000000000  0.000000000  0.032783563

  length of vectors
    10.581142694 10.769016734 30.505285316     0.108291119  0.106408440  0.032783563

  position of ions in fractional coordinates (direct lattice)
     0.110880085  0.221352188  0.312628878
     0.111481736  0.556005355  0.312843339
     0.110217439  0.888437034  0.312864098
     0.444044379  0.222122394  0.312680757
     0.444347279  0.555424618  0.312747002
     0.444267760  0.888803995  0.312780850
     0.777389574  0.222507429  0.312552526
     0.778100495  0.556277357  0.312544792
     0.777213095  0.888357039  0.312513474
     0.110695690  0.277581113  0.566232106
     0.111691921  0.611474580  0.566404709
     0.110888948  0.944334486  0.566409317
     0.444305540  0.277708462  0.566287716
     0.444509040  0.611272029  0.566600661
     0.444165148  0.944295820  0.566186393
     0.777788551  0.277380659  0.566245755
     0.777767942  0.611456180  0.566333951
     0.778111294  0.944361868  0.566319003
     0.111066377  0.222597493  0.433959838
     0.110985879  0.555246670  0.433830869
     0.110332866  0.888095558  0.433750961
     0.444341850  0.222233028  0.433681317
     0.444547658  0.554907490  0.433492090
     0.444267611  0.889235804  0.433725714
     0.778478812  0.222709094  0.433542142
     0.777681984  0.555656732  0.433619170
     0.777816192  0.888920856  0.433693340
     0.111140225  0.277784608  0.687156105
     0.111129931  0.611224423  0.687231238
     0.110269625  0.943821729  0.687265507
     0.444442269  0.277766327  0.687228815
     0.444670704  0.611186187  0.687247912
     0.444979247  0.944714027  0.687442133
     0.777715358  0.278099148  0.687362669
     0.777100867  0.610124951  0.687199777
     0.777764661  0.944775714  0.687334241
     0.999959360  0.999901184  0.373243192
     0.999765959  0.332583933  0.373145700
     0.999987491  0.666635576  0.373198212
     0.333398764  0.999810792  0.373204662
     0.333688321  0.333773341  0.373363378
     0.333611985  0.666704741  0.373214455
     0.666614757  0.999957656  0.373183725
     0.667123111  0.333583222  0.373208174
     0.666663703  0.667023545  0.373136729
     0.999714781  0.055356014  0.626950745
     0.999462784  0.389167814  0.626695430
     0.000465396  0.722772978  0.626995252
     0.333557404  0.055317459  0.626670564
     0.333904443  0.389259620  0.626710774
     0.333054280  0.722883026  0.626803694
     0.666570955  0.055249748  0.626689293
     0.666681285  0.388896153  0.626786618
     0.667231869  0.722024721  0.627003083

  ion indices of the primitive-cell ions
   primitive index   ion index
                 1           1
                 2           2
                 3           3
                 4           4
                 5           5
                 6           6
                 7           7
                 8           8
                 9           9
                10          10
                11          11
                12          12
                13          13
                14          14
                15          15
                16          16
                17          17
                18          18
                19          19
                20          20
                21          21
                22          22
                23          23
                24          24
                25          25
                26          26
                27          27
                28          28
                29          29
                30          30
                31          31
                32          32
                33          33
                34          34
                35          35
                36          36
                37          37
                38          38
                39          39
                40          40
                41          41
                42          42
                43          43
                44          44
                45          45
                46          46
                47          47
                48          48
                49          49
                50          50
                51          51
                52          52
                53          53
                54          54

----------------------------------------------------------------------------------------

 
 

Automatic generation of k-mesh.
 generate k-points for:    3    3    1
Space group operators:
 irot       det(A)        alpha          n_x          n_y          n_z        tau_x        tau_y        tau_z
    1     1.000000     0.000000     1.000000     0.000000     0.000000     0.000000     0.000000     0.000000
 
 Subroutine IBZKPT returns following result:
 ===========================================
 
 Found      5 irreducible k-points:
 
 Following reciprocal coordinates:
            Coordinates               Weight
  0.000000  0.000000  0.000000      1.000000
  0.333333 -0.000000 -0.000000      2.000000
  0.000000  0.333333 -0.000000      2.000000
  0.333333  0.333333  0.000000      2.000000
 -0.333333  0.333333 -0.000000      2.000000
 
 Following cartesian coordinates:
            Coordinates               Weight
  0.000000  0.000000  0.000000      1.000000
  0.031503  0.017623  0.000151      2.000000
  0.000000  0.035467  0.000420      2.000000
  0.031503  0.053090  0.000571      2.000000
 -0.031503  0.017844  0.000270      2.000000
 


--------------------------------------------------------------------------------------------------------




 Dimension of arrays:
   k-points           NKPTS =      5   k-points in BZ     NKDIM =      5   number of bands    NBANDS=    200
   number of dos      NEDOS =    301   number of ions     NIONS =     54
   non local maximal  LDIM  =      6   non local SUM 2l+1 LMDIM =     18
   total plane-waves  NPLWV = ******
   max r-space proj   IRMAX =      1   max aug-charges    IRDMAX=  36038
   dimension x,y,z NGX =    84 NGY =   84 NGZ =  240
   dimension x,y,z NGXF=   168 NGYF=  168 NGZF=  480
   support grid    NGXF=   168 NGYF=  168 NGZF=  480
   ions per type =              36  18
   NGX,Y,Z   is equivalent  to a cutoff of  13.20, 12.97, 13.08 a.u.
   NGXF,Y,Z  is equivalent  to a cutoff of  26.40, 25.93, 26.16 a.u.

 SYSTEM =  dpgen_md                                
 POSCAR =  Te Mo                                   

 Startparameter for this run:
   NWRITE =      2    write-flag & timer
   PREC   = a         normal or accurate (medium, high low for compatibility)
   ISTART =      0    job   : 0-new  1-cont  2-samecut
   ICHARG =      2    charge: 1-file 2-atom 10-const
   ISPIN  =      1    spin polarized calculation?
   LNONCOLLINEAR =      F non collinear calculations
   LSORBIT =      F    spin-orbit coupling
   INIWAV =      1    electr: 0-lowe 1-rand  2-diag
   LASPH  =      F    aspherical Exc in radial PAW
   METAGGA=      F    non-selfconsistent MetaGGA calc.

 Electronic Relaxation 1
   ENCUT  =  550.0 eV  40.42 Ry    6.36 a.u.  20.23 20.59 58.33*2*pi/ulx,y,z
   ENINI  =  550.0     initial cutoff
   ENAUG  =  368.8 eV  augmentation charge cutoff
   NELM   =    100;   NELMIN=  6; NELMDL= -5     # of ELM steps 
   EDIFF  = 0.1E-05   stopping-criterion for ELM
   LREAL  =      F    real-space projection
   NLSPLINE    = F    spline interpolate recip. space projectors
   LCOMPAT=      F    compatible to vasp.4.4
   GGA_COMPAT  = T    GGA compatible to vasp.4.4-vasp.4.6
   LMAXPAW     = -100 max onsite density
   LMAXMIX     =    2 max onsite mixed and CHGCAR
   VOSKOWN=      0    Vosko Wilk Nusair interpolation
   ROPT   =    0.00000   0.00000
 Ionic relaxation
   EDIFFG = 0.1E-04   stopping-criterion for IOM
   NSW    =     10    number of steps for IOM
   NBLOCK =      1;   KBLOCK =      1    inner block; outer block 
   IBRION =      0    ionic relax: 0-MD 1-quasi-New 2-CG
   NFREE  =      0    steps in history (QN), initial steepest desc. (CG)
   ISIF   =      2    stress and relaxation
   IWAVPR =     11    prediction:  0-non 1-charg 2-wave 3-comb
   ISYM   =      0    0-nonsym 1-usesym 2-fastsym
   LCORR  =      T    Harris-Foulkes like correction to forces

   POTIM  = 2.0000    time-step for ionic-motion
   TEIN   =  100.0    initial temperature
   TEBEG  =  100.0;   TEEND  = 100.0 temperature during run
   SMASS  =   0.04    Nose mass-parameter (am)
   estimated Nose-frequenzy (Omega)   =  0.79E+14 period in steps = 0.40E+02 mass=   0.327E-28a.u.
   SCALEE = 1.0000    scale energy and forces
   NPACO  =    256;   APACO  = 16.0  distance and # of slots for P.C.
   PSTRESS=    0.0 pullay stress

  Mass of Ions in am
   POMASS = 127.60 95.94
  Ionic Valenz
   ZVAL   =   6.00  6.00
  Atomic Wigner-Seitz radii
   RWIGS  =  -1.00 -1.00
  virtual crystal weights 
   VCA    =   1.00  1.00
   NELECT =     324.0000    total number of electrons
   NUPDOWN=      -1.0000    fix difference up-down

 DOS related values:
   EMIN   =  10.00;   EMAX   =-10.00  energy-range for DOS
   EFERMI =   0.00
   ISMEAR =     0;   SIGMA  =   0.10  broadening in eV -4-tet -1-fermi 0-gaus

 Electronic relaxation 2 (details)
   IALGO  =     68    algorithm
   LDIAG  =      T    sub-space diagonalisation (order eigenvalues)
   LSUBROT=      F    optimize rotation matrix (better conditioning)
   TURBO    =      0    0=normal 1=particle mesh
   IRESTART =      0    0=no restart 2=restart with 2 vectors
   NREBOOT  =      0    no. of reboots
   NMIN     =      0    reboot dimension
   EREF     =   0.00    reference energy to select bands
   IMIX   =      4    mixing-type and parameters
     AMIX     =   0.40;   BMIX     =  1.00
     AMIX_MAG =   1.60;   BMIX_MAG =  1.00
     AMIN     =   0.10
     WC   =   100.;   INIMIX=   1;  MIXPRE=   1;  MAXMIX= -45

 Intra band minimization:
   WEIMIN = 0.0010     energy-eigenvalue tresh-hold
   EBREAK =  0.13E-08  absolut break condition
   DEPER  =   0.30     relativ break condition  

   TIME   =   0.40     timestep for ELM

  volume/ion in A,a.u.               =      56.17       379.08
  Fermi-wavevector in a.u.,A,eV,Ry     =   0.776747  1.467839  8.208882  0.603336
  Thomas-Fermi vector in A             =   1.879289
 
 Write flags
   LWAVE        =      F    write WAVECAR
   LDOWNSAMPLE  =      F    k-point downsampling of WAVECAR
   LCHARG       =      F    write CHGCAR
   LVTOT        =      F    write LOCPOT, total local potential
   LVHAR        =      F    write LOCPOT, Hartree potential only
   LELF         =      F    write electronic localiz. function (ELF)
   LORBIT       =      0    0 simple, 1 ext, 2 COOP (PROOUT), +10 PAW based schemes


 Dipole corrections
   LMONO  =      F    monopole corrections only (constant potential shift)
   LDIPOL =      F    correct potential (dipole corrections)
   IDIPOL =      0    1-x, 2-y, 3-z, 4-all directions 
   EPSILON=  1.0000000 bulk dielectric constant

 Exchange correlation treatment:
   GGA     =    --    GGA type
   LEXCH   =     8    internal setting for exchange type
   VOSKOWN=      0    Vosko Wilk Nusair interpolation
   LHFCALC =     F    Hartree Fock is set to
   LHFONE  =     F    Hartree Fock one center treatment
   AEXX    =    0.0000 exact exchange contribution

 Linear response parameters
   LEPSILON=     F    determine dielectric tensor
   LRPA    =     F    only Hartree local field effects (RPA)
   LNABLA  =     F    use nabla operator in PAW spheres
   LVEL    =     F    velocity operator in full k-point grid
   LINTERFAST=   F  fast interpolation
   KINTER  =     0    interpolate to denser k-point grid
   CSHIFT  =0.1000    complex shift for real part using Kramers Kronig
   OMEGAMAX=  -1.0    maximum frequency
   DEG_THRESHOLD= 0.2000000E-02 threshold for treating states as degnerate
   RTIME   =   -0.100 relaxation time in fs
  (WPLASMAI=    0.000 imaginary part of plasma frequency in eV, 0.658/RTIME)
   DFIELD  = 0.0000000 0.0000000 0.0000000 field for delta impulse in time
 
 Orbital magnetization related:
   ORBITALMAG=     F  switch on orbital magnetization
   LCHIMAG   =     F  perturbation theory with respect to B field
   DQ        =  0.001000  dq finite difference perturbation B field
   LLRAUG    =     F  two centre corrections for induced B field



--------------------------------------------------------------------------------------------------------


 molecular dynamics for ions
   using nose mass (canonical ensemble)
 charge density and potential will be updated during run
 non-spin polarized calculation
 RMM-DIIS sequential band-by-band and
  variant of blocked Davidson during initial phase
 perform sub-space diagonalisation
    before iterative eigenvector-optimisation
 modified Broyden-mixing scheme, WC =      100.0
 initial mixing is a Kerker type mixing with AMIX =  0.4000 and BMIX =      1.0000
 Hartree-type preconditioning will be used
 using additional bands           38
 reciprocal scheme for non local part
 use partial core corrections
 calculate Harris-corrections to forces 
   (improved forces if not selfconsistent)
 use gradient corrections 
 use of overlap-Matrix (Vanderbilt PP)
 Gauss-broadening in eV      SIGMA  =   0.10


--------------------------------------------------------------------------------------------------------


  energy-cutoff  :      550.00
  volume of cell :     3033.41
      direct lattice vectors                 reciprocal lattice vectors
    10.581142694  0.000000000  0.000000000     0.094507751  0.052868202  0.000452526
    -5.257527332  9.398410917  0.000000000     0.000000000  0.106400966  0.001261208
     0.056204741 -0.361563925 30.503090742     0.000000000  0.000000000  0.032783563

  length of vectors
    10.581142694 10.769016734 30.505285316     0.108291119  0.106408440  0.032783563


 
 k-points in units of 2pi/SCALE and weight: read from INCAR                         
   0.00000000  0.00000000  0.00000000       0.111
   0.03150258  0.01762273  0.00015084       0.222
   0.00000000  0.03546699  0.00042040       0.222
   0.03150258  0.05308972  0.00057124       0.222
  -0.03150258  0.01784425  0.00026956       0.222
 
 k-points in reciprocal lattice and weights: read from INCAR                         
   0.00000000  0.00000000  0.00000000       0.111
   0.33333333 -0.00000000 -0.00000000       0.222
   0.00000000  0.33333333 -0.00000000       0.222
   0.33333333  0.33333333  0.00000000       0.222
  -0.33333333  0.33333333 -0.00000000       0.222
 
 position of ions in fractional coordinates (direct lattice) 
   0.11088009  0.22135219  0.31262888
   0.11148174  0.55600535  0.31284334
   0.11021744  0.88843703  0.31286410
   0.44404438  0.22212239  0.31268076
   0.44434728  0.55542462  0.31274700
   0.44426776  0.88880399  0.31278085
   0.77738957  0.22250743  0.31255253
   0.77810049  0.55627736  0.31254479
   0.77721309  0.88835704  0.31251347
   0.11069569  0.27758111  0.56623211
   0.11169192  0.61147458  0.56640471
   0.11088895  0.94433449  0.56640932
   0.44430554  0.27770846  0.56628772
   0.44450904  0.61127203  0.56660066
   0.44416515  0.94429582  0.56618639
   0.77778855  0.27738066  0.56624576
   0.77776794  0.61145618  0.56633395
   0.77811129  0.94436187  0.56631900
   0.11106638  0.22259749  0.43395984
   0.11098588  0.55524667  0.43383087
   0.11033287  0.88809556  0.43375096
   0.44434185  0.22223303  0.43368132
   0.44454766  0.55490749  0.43349209
   0.44426761  0.88923580  0.43372571
   0.77847881  0.22270909  0.43354214
   0.77768198  0.55565673  0.43361917
   0.77781619  0.88892086  0.43369334
   0.11114023  0.27778461  0.68715610
   0.11112993  0.61122442  0.68723124
   0.11026962  0.94382173  0.68726551
   0.44444227  0.27776633  0.68722881
   0.44467070  0.61118619  0.68724791
   0.44497925  0.94471403  0.68744213
   0.77771536  0.27809915  0.68736267
   0.77710087  0.61012495  0.68719978
   0.77776466  0.94477571  0.68733424
   0.99995936  0.99990118  0.37324319
   0.99976596  0.33258393  0.37314570
   0.99998749  0.66663558  0.37319821
   0.33339876  0.99981079  0.37320466
   0.33368832  0.33377334  0.37336338
   0.33361199  0.66670474  0.37321445
   0.66661476  0.99995766  0.37318373
   0.66712311  0.33358322  0.37320817
   0.66666370  0.66702354  0.37313673
   0.99971478  0.05535601  0.62695075
   0.99946278  0.38916781  0.62669543
   0.00046540  0.72277298  0.62699525
   0.33355740  0.05531746  0.62667056
   0.33390444  0.38925962  0.62671077
   0.33305428  0.72288303  0.62680369
   0.66657096  0.05524975  0.62668929
   0.66668129  0.38889615  0.62678662
   0.66723187  0.72202472  0.62700308
 
 position of ions in cartesian coordinates  (Angst):
   0.02704405  1.96732349  9.53614703
  -1.72602591  5.11245393  9.54268876
  -3.48717110  8.23677595  9.54332196
   3.54825652  1.97454345  9.53772950
   1.79911972  5.10703076  9.53975017
   0.04552904  8.24025490  9.54078266
   7.07339806  1.97820853  9.53381807
   5.32611545  5.11511826  9.53358214
   3.57080598  8.23615090  9.53262684
  -0.25627847  2.40409226 17.27182932
  -2.00118153  5.54209786 17.27709422
  -3.75969770  8.67045037 17.27723479
   3.27302855  2.40526903 17.27352560
   1.52147982  5.54012335 17.28307138
  -0.23306391  8.67016757 17.27043492
   6.80338094  2.40220337 17.27224566
   5.04675665  5.54195051 17.27493591
   3.30012811  8.67074037 17.27447995
   0.02928738  1.93515849 13.23711631
  -1.72048377  5.06157877 13.23318235
  -3.47736001  8.18985828 13.23074491
   3.55762324  1.93183380 13.22862055
   1.81074522  5.05851351 13.22284857
   0.05005489  8.20058391 13.22997483
   7.09066337  1.93635838 13.22437529
   5.33175505  5.06550924 13.22672488
   3.58103404  8.19763561 13.22898732
  -0.24584816  2.36228304 20.96038502
  -1.99902180  5.49606026 20.96267680
  -3.75676232  8.62193403 20.96372212
   3.28096853  2.36208493 20.96260290
   1.53042268  5.49569488 20.96318543
  -0.21983340  8.63025635 20.96910977
   6.80563634  2.36516453 20.96668586
   5.05349044  5.48573836 20.96171715
   3.30108616  8.63087512 20.96581871
   5.34468291  9.26253093 11.38507094
   8.85106971  2.99084444 11.38209715
   7.09713108  6.13038006 11.38369893
  -1.70781680  9.26169532 11.38389568
   1.79696606  3.00194428 11.38873699
   0.04575405  6.13102423 11.38419438
   1.81721585  9.26308318 11.38325703
   5.32607799  3.00021359 11.38400280
   3.56814131  6.13404858 11.38182352
  10.32232660  0.29357580 19.12393548
   8.56462117  3.43096857 19.11614758
  -3.75983416  6.56621858 19.12529306
   3.27380729  0.29331474 19.11538907
   1.52177158  3.43182586 19.11661561
  -0.24125306  6.56732212 19.11944995
   6.79782824  0.29267160 19.11596037
   5.04484603  3.42838242 19.11892908
   3.29925146  6.55918332 19.12553193
 


--------------------------------------------------------------------------------------------------------


 k-point   1 :   0.0000 0.0000 0.0000  plane waves:   88873
 k-point   2 :   0.3333-0.0000-0.0000  plane waves:   88859
 k-point   3 :   0.0000 0.3333-0.0000  plane waves:   88842
 k-point   4 :   0.3333 0.3333 0.0000  plane waves:   88818
 k-point   5 :  -0.3333 0.3333-0.0000  plane waves:   88845

 maximum and minimum number of plane-waves per node :     88873    88818

 maximum number of plane-waves:     88873
 maximum index in each direction: 
   IXMAX=   20   IYMAX=   20   IZMAX=   58
   IXMIN=  -20   IYMIN=  -20   IZMIN=  -58


 serial   3D FFT for wavefunctions
 parallel 3D FFT for charge:
    minimum data exchange during FFTs selected (reduces bandwidth)


 total amount of memory used by VASP MPI-rank0   381929. kBytes
=======================================================================

   base      :      30000. kBytes
   nonl-proj :     204779. kBytes
   fftplans  :      19943. kBytes
   grid      :      90496. kBytes
   one-center:        839. kBytes
   wavefun   :      35872. kBytes
 
     INWAV:  cpu time    0.0000: real time    0.0000
 Broyden mixing: mesh for mixing (old mesh)
   NGX = 41   NGY = 41   NGZ =117
  (NGX  =168   NGY  =168   NGZ  =480)
  gives a total of 196677 points

 initial charge density was supplied:
 charge density of overlapping atoms calculated
 number of electron     324.0000000 magnetization 
 keeping initial charge density in first step


--------------------------------------------------------------------------------------------------------


 Maximum index for augmentation-charges         2190 (set IRDMAX)


--------------------------------------------------------------------------------------------------------


 First call to EWALD:  gamma=   0.122
 Maximum number of real-space cells 4x 4x 2
 Maximum number of reciprocal cells 2x 2x 5

    FEWALD:  cpu time    0.0022: real time    0.0023


--------------------------------------- Iteration      1(   1)  ---------------------------------------


    POTLOK:  cpu time    0.3464: real time    0.3472
    SETDIJ:  cpu time    0.0124: real time    0.0124
     EDDAV:  cpu time   51.4592: real time   51.5647
       DOS:  cpu time    0.0010: real time    0.0010
    --------------------------------------------
      LOOP:  cpu time   51.8189: real time   51.9252

 eigenvalue-minimisations  :  2000
 total energy-change (2. order) : 0.2062835E+04  (-0.1136804E+05)
 number of electron     324.0000000 magnetization 
 augmentation part      324.0000000 magnetization 

 Free energy of the ion-electron system (eV)
  ---------------------------------------------------
  alpha Z        PSCENC =       236.58741148
  Ewald energy   TEWEN  =     56008.79709607
  -Hartree energ DENC   =    -67654.76629761
  -exchange      EXHF   =         0.00000000
  -V(xc)+E(xc)   XCENC  =     -2106.44378246
  PAW double counting   =      7476.04436201    -4809.59211051
  entropy T*S    EENTRO =        -0.13551918
  eigenvalues    EBANDS =       959.26158194
  atomic energy  EATOM  =     11953.08265402
  Solvation  Ediel_sol  =         0.00000000
  ---------------------------------------------------
  free energy    TOTEN  =      2062.83539577 eV

  energy without entropy =     2062.97091495  energy(sigma->0) =     2062.90315536


--------------------------------------------------------------------------------------------------------




--------------------------------------- Iteration      1(   2)  ---------------------------------------


     EDDAV:  cpu time   71.9948: real time   72.1460
       DOS:  cpu time    0.0006: real time    0.0006
    --------------------------------------------
      LOOP:  cpu time   71.9954: real time   72.1466

 eigenvalue-minimisations  :  3040
 total energy-change (2. order) :-0.2157752E+04  (-0.2086704E+04)
 number of electron     324.0000000 magnetization 
 augmentation part      324.0000000 magnetization 

 Free energy of the ion-electron system (eV)
  ---------------------------------------------------
  alpha Z        PSCENC =       236.58741148
  Ewald energy   TEWEN  =     56008.79709607
  -Hartree energ DENC   =    -67654.76629761
  -exchange      EXHF   =         0.00000000
  -V(xc)+E(xc)   XCENC  =     -2106.44378246
  PAW double counting   =      7476.04436201    -4809.59211051
  entropy T*S    EENTRO =        -0.01276805
  eigenvalues    EBANDS =     -1198.61272568
  atomic energy  EATOM  =     11953.08265402
  Solvation  Ediel_sol  =         0.00000000
  ---------------------------------------------------
  free energy    TOTEN  =       -94.91616072 eV

  energy without entropy =      -94.90339267  energy(sigma->0) =      -94.90977670


--------------------------------------------------------------------------------------------------------




--------------------------------------- Iteration      1(   3)  ---------------------------------------


     EDDAV:  cpu time   61.7489: real time   61.9005
       DOS:  cpu time    0.0004: real time    0.0004
    --------------------------------------------
      LOOP:  cpu time   61.7492: real time   61.9009

 eigenvalue-minimisations  :  2520
 total energy-change (2. order) :-0.2303266E+03  (-0.2270370E+03)
 number of electron     324.0000000 magnetization 
 augmentation part      324.0000000 magnetization 

 Free energy of the ion-electron system (eV)
  ---------------------------------------------------
  alpha Z        PSCENC =       236.58741148
  Ewald energy   TEWEN  =     56008.79709607
  -Hartree energ DENC   =    -67654.76629761
  -exchange      EXHF   =         0.00000000
  -V(xc)+E(xc)   XCENC  =     -2106.44378246
  PAW double counting   =      7476.04436201    -4809.59211051
  entropy T*S    EENTRO =        -0.00000000
  eigenvalues    EBANDS =     -1428.95206491
  atomic energy  EATOM  =     11953.08265402
  Solvation  Ediel_sol  =         0.00000000
  ---------------------------------------------------
  free energy    TOTEN  =      -325.24273190 eV

  energy without entropy =     -325.24273190  energy(sigma->0) =     -325.24273190


--------------------------------------------------------------------------------------------------------




--------------------------------------- Iteration      1(   4)  ---------------------------------------


     EDDAV:  cpu time   73.5640: real time   73.7266
       DOS:  cpu time    0.0004: real time    0.0004
    --------------------------------------------
      LOOP:  cpu time   73.5643: real time   73.7270

 eigenvalue-minimisations  :  3120
 total energy-change (2. order) :-0.1169295E+02  (-0.1161404E+02)
 number of electron     324.0000000 magnetization 
 augmentation part      324.0000000 magnetization 

 Free energy of the ion-electron system (eV)
  ---------------------------------------------------
  alpha Z        PSCENC =       236.58741148
  Ewald energy   TEWEN  =     56008.79709607
  -Hartree energ DENC   =    -67654.76629761
  -exchange      EXHF   =         0.00000000
  -V(xc)+E(xc)   XCENC  =     -2106.44378246
  PAW double counting   =      7476.04436201    -4809.59211051
  entropy T*S    EENTRO =        -0.00000000
  eigenvalues    EBANDS =     -1440.64501730
  atomic energy  EATOM  =     11953.08265402
  Solvation  Ediel_sol  =         0.00000000
  ---------------------------------------------------
  free energy    TOTEN  =      -336.93568429 eV

  energy without entropy =     -336.93568429  energy(sigma->0) =     -336.93568429


--------------------------------------------------------------------------------------------------------




--------------------------------------- Iteration      1(   5)  ---------------------------------------


     EDDAV:  cpu time   71.2020: real time   71.3454
       DOS:  cpu time    0.0004: real time    0.0004
    CHARGE:  cpu time    1.1915: real time    1.1997
    MIXING:  cpu time    0.0093: real time    0.0095
    --------------------------------------------
      LOOP:  cpu time   72.4031: real time   72.5550

 eigenvalue-minimisations  :  3000
 total energy-change (2. order) :-0.3406934E+00  (-0.3399107E+00)
 number of electron     324.0000014 magnetization 
 augmentation part      -26.2055087 magnetization 

 Broyden mixing:
  rms(total) = 0.20127E+01    rms(broyden)= 0.20127E+01
  rms(prec ) = 0.21334E+01
  weight for this iteration     100.00

 Free energy of the ion-electron system (eV)
  ---------------------------------------------------
  alpha Z        PSCENC =       236.58741148
  Ewald energy   TEWEN  =     56008.79709607
  -Hartree energ DENC   =    -67654.76629761
  -exchange      EXHF   =         0.00000000
  -V(xc)+E(xc)   XCENC  =     -2106.44378246
  PAW double counting   =      7476.04436201    -4809.59211051
  entropy T*S    EENTRO =        -0.00000000
  eigenvalues    EBANDS =     -1440.98571069
  atomic energy  EATOM  =     11953.08265402
  Solvation  Ediel_sol  =         0.00000000
  ---------------------------------------------------
  free energy    TOTEN  =      -337.27637768 eV

  energy without entropy =     -337.27637768  energy(sigma->0) =     -337.27637768


--------------------------------------------------------------------------------------------------------




--------------------------------------- Iteration      1(   6)  ---------------------------------------


    POTLOK:  cpu time    0.3044: real time    0.3047
    SETDIJ:  cpu time    0.0120: real time    0.0120
    EDDIAG:  cpu time    2.5757: real time    2.5787
  RMM-DIIS:  cpu time   44.4402: real time   44.5340
    ORTHCH:  cpu time    0.2095: real time    0.2097
       DOS:  cpu time    0.0005: real time    0.0005
    CHARGE:  cpu time    1.1934: real time    1.1979
    MIXING:  cpu time    0.0087: real time    0.0089
    --------------------------------------------
      LOOP:  cpu time   48.7443: real time   48.8463

 eigenvalue-minimisations  :  2164
 total energy-change (2. order) : 0.9010363E+01  (-0.7748788E+01)
 number of electron     324.0000014 magnetization 
 augmentation part      -19.2710470 magnetization 

 Broyden mixing:
  rms(total) = 0.77105E+00    rms(broyden)= 0.77105E+00
  rms(prec ) = 0.91304E+00
  weight for this iteration     100.00

 eigenvalues of (default mixing * dielectric matrix)
  average eigenvalue GAMMA=   0.9334
  0.9334

 Free energy of the ion-electron system (eV)
  ---------------------------------------------------
  alpha Z        PSCENC =       236.58741148
  Ewald energy   TEWEN  =     56008.79709607
  -Hartree energ DENC   =    -67613.40202458
  -exchange      EXHF   =         0.00000000
  -V(xc)+E(xc)   XCENC  =     -2099.75803018
  PAW double counting   =      7593.05536064    -4937.13249171
  entropy T*S    EENTRO =        -0.00000000
  eigenvalues    EBANDS =     -1469.49599088
  atomic energy  EATOM  =     11953.08265402
  Solvation  Ediel_sol  =         0.00000000
  ---------------------------------------------------
  free energy    TOTEN  =      -328.26601513 eV

  energy without entropy =     -328.26601513  energy(sigma->0) =     -328.26601513


--------------------------------------------------------------------------------------------------------




--------------------------------------- Iteration      1(   7)  ---------------------------------------


    POTLOK:  cpu time    0.2997: real time    0.3000
    SETDIJ:  cpu time    0.0120: real time    0.0120
    EDDIAG:  cpu time    2.5556: real time    2.5595
  RMM-DIIS:  cpu time   41.5259: real time   41.6199
    ORTHCH:  cpu time    0.2123: real time    0.2125
       DOS:  cpu time    0.0004: real time    0.0004
    CHARGE:  cpu time    1.1965: real time    1.1975
    MIXING:  cpu time    0.0073: real time    0.0074
    --------------------------------------------
      LOOP:  cpu time   45.8096: real time   45.9090

 eigenvalue-minimisations  :  2032
 total energy-change (2. order) : 0.4195926E+01  (-0.1330730E+01)
 number of electron     324.0000014 magnetization 
 augmentation part      -21.7463366 magnetization 

 Broyden mixing:
  rms(total) = 0.49594E+00    rms(broyden)= 0.49593E+00
  rms(prec ) = 0.52839E+00
  weight for this iteration     100.00

 eigenvalues of (default mixing * dielectric matrix)
  average eigenvalue GAMMA=   1.4624
  0.6979  2.2269

 Free energy of the ion-electron system (eV)
  ---------------------------------------------------
  alpha Z        PSCENC =       236.58741148
  Ewald energy   TEWEN  =     56008.79709607
  -Hartree energ DENC   =    -67701.18347761
  -exchange      EXHF   =         0.00000000
  -V(xc)+E(xc)   XCENC  =     -2099.23684141
  PAW double counting   =      7841.11273362    -5188.88909692
  entropy T*S    EENTRO =        -0.00000000
  eigenvalues    EBANDS =     -1374.34056819
  atomic energy  EATOM  =     11953.08265402
  Solvation  Ediel_sol  =         0.00000000
  ---------------------------------------------------
  free energy    TOTEN  =      -324.07008894 eV

  energy without entropy =     -324.07008894  energy(sigma->0) =     -324.07008894


--------------------------------------------------------------------------------------------------------




--------------------------------------- Iteration      1(   8)  ---------------------------------------


    POTLOK:  cpu time    0.3024: real time    0.3049
    SETDIJ:  cpu time    0.0134: real time    0.0134
    EDDIAG:  cpu time    2.5643: real time    2.5683
  RMM-DIIS:  cpu time   41.2951: real time   41.3984
    ORTHCH:  cpu time    0.2145: real time    0.2147
       DOS:  cpu time    0.0004: real time    0.0004
    CHARGE:  cpu time    1.1985: real time    1.2035
    MIXING:  cpu time    0.0087: real time    0.0087
    --------------------------------------------
      LOOP:  cpu time   45.5973: real time   45.7124

 eigenvalue-minimisations  :  2026
 total energy-change (2. order) : 0.4765504E+00  (-0.1043132E+01)
 number of electron     324.0000014 magnetization 
 augmentation part      -21.8447175 magnetization 

 Broyden mixing:
  rms(total) = 0.18256E+00    rms(broyden)= 0.18256E+00
  rms(prec ) = 0.21272E+00
  weight for this iteration     100.00

 eigenvalues of (default mixing * dielectric matrix)
  average eigenvalue GAMMA=   1.2219
  2.1352  0.7653  0.7653

 Free energy of the ion-electron system (eV)
  ---------------------------------------------------
  alpha Z        PSCENC =       236.58741148
  Ewald energy   TEWEN  =     56008.79709607
  -Hartree energ DENC   =    -67768.47475056
  -exchange      EXHF   =         0.00000000
  -V(xc)+E(xc)   XCENC  =     -2095.28891198
  PAW double counting   =      8132.03525322    -5485.96351629
  entropy T*S    EENTRO =        -0.00000000
  eigenvalues    EBANDS =     -1304.36877446
  atomic energy  EATOM  =     11953.08265402
  Solvation  Ediel_sol  =         0.00000000
  ---------------------------------------------------
  free energy    TOTEN  =      -323.59353849 eV

  energy without entropy =     -323.59353849  energy(sigma->0) =     -323.59353849


--------------------------------------------------------------------------------------------------------




--------------------------------------- Iteration      1(   9)  ---------------------------------------


    POTLOK:  cpu time    0.3024: real time    0.3027
    SETDIJ:  cpu time    0.0120: real time    0.0121
    EDDIAG:  cpu time    2.5757: real time    2.5782
  RMM-DIIS:  cpu time   45.3894: real time   45.5131
    ORTHCH:  cpu time    0.2176: real time    0.2190
       DOS:  cpu time    0.0004: real time    0.0004
    CHARGE:  cpu time    1.1973: real time    1.1985
    MIXING:  cpu time    0.0074: real time    0.0074
    --------------------------------------------
      LOOP:  cpu time   49.7023: real time   49.8313

 eigenvalue-minimisations  :  2178
 total energy-change (2. order) : 0.4855275E-01  (-0.1547025E+00)
 number of electron     324.0000014 magnetization 
 augmentation part      -21.3497103 magnetization 

 Broyden mixing:
  rms(total) = 0.10752E+00    rms(broyden)= 0.10751E+00
  rms(prec ) = 0.12068E+00
  weight for this iteration     100.00

 eigenvalues of (default mixing * dielectric matrix)
  average eigenvalue GAMMA=   1.0794
  2.0458  1.0804  0.7475  0.4440

 Free energy of the ion-electron system (eV)
  ---------------------------------------------------
  alpha Z        PSCENC =       236.58741148
  Ewald energy   TEWEN  =     56008.79709607
  -Hartree energ DENC   =    -67761.49330465
  -exchange      EXHF   =         0.00000000
  -V(xc)+E(xc)   XCENC  =     -2094.97161679
  PAW double counting   =      8117.65882748    -5471.59185237
  entropy T*S    EENTRO =        -0.00000000
  eigenvalues    EBANDS =     -1311.61420099
  atomic energy  EATOM  =     11953.08265402
  Solvation  Ediel_sol  =         0.00000000
  ---------------------------------------------------
  free energy    TOTEN  =      -323.54498574 eV

  energy without entropy =     -323.54498574  energy(sigma->0) =     -323.54498574


--------------------------------------------------------------------------------------------------------




--------------------------------------- Iteration      1(  10)  ---------------------------------------


    POTLOK:  cpu time    0.3068: real time    0.3071
    SETDIJ:  cpu time    0.0122: real time    0.0122
    EDDIAG:  cpu time    2.5570: real time    2.5655
  RMM-DIIS:  cpu time   49.1972: real time   49.2861
    ORTHCH:  cpu time    0.2089: real time    0.2091
       DOS:  cpu time    0.0004: real time    0.0004
    CHARGE:  cpu time    1.1920: real time    1.1930
    MIXING:  cpu time    0.0075: real time    0.0075
    --------------------------------------------
      LOOP:  cpu time   53.4820: real time   53.5809

 eigenvalue-minimisations  :  2381
 total energy-change (2. order) :-0.1011230E-01  (-0.5465310E-01)
 number of electron     324.0000014 magnetization 
 augmentation part      -21.0708386 magnetization 

 Broyden mixing:
  rms(total) = 0.76399E-01    rms(broyden)= 0.76399E-01
  rms(prec ) = 0.84219E-01
  weight for this iteration     100.00

 eigenvalues of (default mixing * dielectric matrix)
  average eigenvalue GAMMA=   1.2481
  2.3796  1.5355  1.1025  0.8398  0.3830

 Free energy of the ion-electron system (eV)
  ---------------------------------------------------
  alpha Z        PSCENC =       236.58741148
  Ewald energy   TEWEN  =     56008.79709607
  -Hartree energ DENC   =    -67761.68366147
  -exchange      EXHF   =         0.00000000
  -V(xc)+E(xc)   XCENC  =     -2094.76188202
  PAW double counting   =      8122.28025535    -5476.19252774
  entropy T*S    EENTRO =        -0.00000000
  eigenvalues    EBANDS =     -1311.66444372
  atomic energy  EATOM  =     11953.08265402
  Solvation  Ediel_sol  =         0.00000000
  ---------------------------------------------------
  free energy    TOTEN  =      -323.55509804 eV

  energy without entropy =     -323.55509804  energy(sigma->0) =     -323.55509804


--------------------------------------------------------------------------------------------------------




--------------------------------------- Iteration      1(  11)  ---------------------------------------


    POTLOK:  cpu time    0.3055: real time    0.3061
    SETDIJ:  cpu time    0.0122: real time    0.0122
    EDDIAG:  cpu time    2.5737: real time    2.5794
  RMM-DIIS:  cpu time   44.2872: real time   44.4010
    ORTHCH:  cpu time    0.2136: real time    0.2138
       DOS:  cpu time    0.0004: real time    0.0004
    CHARGE:  cpu time    1.1908: real time    1.1990
    MIXING:  cpu time    0.0078: real time    0.0078
    --------------------------------------------
      LOOP:  cpu time   48.5912: real time   48.7197

 eigenvalue-minimisations  :  2153
 total energy-change (2. order) : 0.5834832E-02  (-0.2126954E-01)
 number of electron     324.0000014 magnetization 
 augmentation part      -21.3805169 magnetization 

 Broyden mixing:
  rms(total) = 0.46103E-01    rms(broyden)= 0.46103E-01
  rms(prec ) = 0.52449E-01
  weight for this iteration     100.00

 eigenvalues of (default mixing * dielectric matrix)
  average eigenvalue GAMMA=   1.2005
  2.5402  1.5390  1.3554  0.6950  0.6950  0.3782

 Free energy of the ion-electron system (eV)
  ---------------------------------------------------
  alpha Z        PSCENC =       236.58741148
  Ewald energy   TEWEN  =     56008.79709607
  -Hartree energ DENC   =    -67782.22765895
  -exchange      EXHF   =         0.00000000
  -V(xc)+E(xc)   XCENC  =     -2094.38761452
  PAW double counting   =      8174.85819322    -5529.02356494
  entropy T*S    EENTRO =        -0.00000000
  eigenvalues    EBANDS =     -1291.23577959
  atomic energy  EATOM  =     11953.08265402
  Solvation  Ediel_sol  =         0.00000000
  ---------------------------------------------------
  free energy    TOTEN  =      -323.54926321 eV

  energy without entropy =     -323.54926321  energy(sigma->0) =     -323.54926321


--------------------------------------------------------------------------------------------------------




--------------------------------------- Iteration      1(  12)  ---------------------------------------


    POTLOK:  cpu time    0.3027: real time    0.3030
    SETDIJ:  cpu time    0.0118: real time    0.0118
    EDDIAG:  cpu time    2.5646: real time    2.5671
  RMM-DIIS:  cpu time   51.1560: real time   51.2852
    ORTHCH:  cpu time    0.2119: real time    0.2121
       DOS:  cpu time    0.0004: real time    0.0004
    CHARGE:  cpu time    1.1995: real time    1.2006
    MIXING:  cpu time    0.0078: real time    0.0078
    --------------------------------------------
      LOOP:  cpu time   55.4547: real time   55.5879

 eigenvalue-minimisations  :  2422
 total energy-change (2. order) : 0.1187000E-02  (-0.5561831E-02)
 number of electron     324.0000014 magnetization 
 augmentation part      -21.3470514 magnetization 

 Broyden mixing:
  rms(total) = 0.34056E-01    rms(broyden)= 0.34056E-01
  rms(prec ) = 0.38917E-01
  weight for this iteration     100.00

 eigenvalues of (default mixing * dielectric matrix)
  average eigenvalue GAMMA=   1.1577
  2.5337  1.6121  1.6121  0.8055  0.8055  0.3862  0.3491

 Free energy of the ion-electron system (eV)
  ---------------------------------------------------
  alpha Z        PSCENC =       236.58741148
  Ewald energy   TEWEN  =     56008.79709607
  -Hartree energ DENC   =    -67785.89821272
  -exchange      EXHF   =         0.00000000
  -V(xc)+E(xc)   XCENC  =     -2094.24913552
  PAW double counting   =      8178.22304704    -5532.41752348
  entropy T*S    EENTRO =        -0.00000000
  eigenvalues    EBANDS =     -1287.67341311
  atomic energy  EATOM  =     11953.08265402
  Solvation  Ediel_sol  =         0.00000000
  ---------------------------------------------------
  free energy    TOTEN  =      -323.54807621 eV

  energy without entropy =     -323.54807621  energy(sigma->0) =     -323.54807621


--------------------------------------------------------------------------------------------------------




--------------------------------------- Iteration      1(  13)  ---------------------------------------


    POTLOK:  cpu time    0.3071: real time    0.3074
    SETDIJ:  cpu time    0.0121: real time    0.0121
    EDDIAG:  cpu time    2.5722: real time    2.5749
  RMM-DIIS:  cpu time   50.0360: real time   50.1141
    ORTHCH:  cpu time    0.2112: real time    0.2114
       DOS:  cpu time    0.0004: real time    0.0004
    CHARGE:  cpu time    1.1954: real time    1.2001
    MIXING:  cpu time    0.0079: real time    0.0079
    --------------------------------------------
      LOOP:  cpu time   54.3423: real time   54.4284

 eigenvalue-minimisations  :  2419
 total energy-change (2. order) : 0.2239907E-02  (-0.3085067E-02)
 number of electron     324.0000014 magnetization 
 augmentation part      -21.2341089 magnetization 

 Broyden mixing:
  rms(total) = 0.96549E-02    rms(broyden)= 0.96548E-02
  rms(prec ) = 0.13360E-01
  weight for this iteration     100.00

 eigenvalues of (default mixing * dielectric matrix)
  average eigenvalue GAMMA=   1.2807
  2.4536  2.4536  1.8094  1.1736  0.8090  0.8090  0.3870  0.3502

 Free energy of the ion-electron system (eV)
  ---------------------------------------------------
  alpha Z        PSCENC =       236.58741148
  Ewald energy   TEWEN  =     56008.79709607
  -Hartree energ DENC   =    -67787.53684565
  -exchange      EXHF   =         0.00000000
  -V(xc)+E(xc)   XCENC  =     -2094.16118376
  PAW double counting   =      8173.63725243    -5527.81815232
  entropy T*S    EENTRO =        -0.00000000
  eigenvalues    EBANDS =     -1286.13406857
  atomic energy  EATOM  =     11953.08265402
  Solvation  Ediel_sol  =         0.00000000
  ---------------------------------------------------
  free energy    TOTEN  =      -323.54583630 eV

  energy without entropy =     -323.54583630  energy(sigma->0) =     -323.54583630


--------------------------------------------------------------------------------------------------------




--------------------------------------- Iteration      1(  14)  ---------------------------------------


    POTLOK:  cpu time    0.3054: real time    0.3056
    SETDIJ:  cpu time    0.0121: real time    0.0121
    EDDIAG:  cpu time    2.5745: real time    2.5775
  RMM-DIIS:  cpu time   48.3399: real time   48.4342
    ORTHCH:  cpu time    0.2123: real time    0.2125
       DOS:  cpu time    0.0004: real time    0.0004
    CHARGE:  cpu time    1.1936: real time    1.1947
    MIXING:  cpu time    0.0098: real time    0.0098
    --------------------------------------------
      LOOP:  cpu time   52.6479: real time   52.7468

 eigenvalue-minimisations  :  2312
 total energy-change (2. order) :-0.8981161E-03  (-0.9132236E-03)
 number of electron     324.0000014 magnetization 
 augmentation part      -21.2418562 magnetization 

 Broyden mixing:
  rms(total) = 0.69742E-02    rms(broyden)= 0.69742E-02
  rms(prec ) = 0.91272E-02
  weight for this iteration     100.00

 eigenvalues of (default mixing * dielectric matrix)
  average eigenvalue GAMMA=   1.2812
  3.1325  2.5878  1.4800  1.4800  0.8062  0.8062  0.4988  0.3878  0.3512

 Free energy of the ion-electron system (eV)
  ---------------------------------------------------
  alpha Z        PSCENC =       236.58741148
  Ewald energy   TEWEN  =     56008.79709607
  -Hartree energ DENC   =    -67796.85269284
  -exchange      EXHF   =         0.00000000
  -V(xc)+E(xc)   XCENC  =     -2094.09554094
  PAW double counting   =      8170.02179652    -5524.12690966
  entropy T*S    EENTRO =        -0.00000000
  eigenvalues    EBANDS =     -1276.96054908
  atomic energy  EATOM  =     11953.08265402
  Solvation  Ediel_sol  =         0.00000000
  ---------------------------------------------------
  free energy    TOTEN  =      -323.54673442 eV

  energy without entropy =     -323.54673442  energy(sigma->0) =     -323.54673442


--------------------------------------------------------------------------------------------------------




--------------------------------------- Iteration      1(  15)  ---------------------------------------


    POTLOK:  cpu time    0.3051: real time    0.3082
    SETDIJ:  cpu time    0.0122: real time    0.0122
    EDDIAG:  cpu time    2.5717: real time    2.5741
  RMM-DIIS:  cpu time   53.0940: real time   53.2438
    ORTHCH:  cpu time    0.2120: real time    0.2144
       DOS:  cpu time    0.0004: real time    0.0004
    CHARGE:  cpu time    1.1941: real time    1.1951
    MIXING:  cpu time    0.0081: real time    0.0081
    --------------------------------------------
      LOOP:  cpu time   57.3976: real time   57.5563

 eigenvalue-minimisations  :  2534
 total energy-change (2. order) :-0.5732429E-03  (-0.2931342E-03)
 number of electron     324.0000014 magnetization 
 augmentation part      -21.2403741 magnetization 

 Broyden mixing:
  rms(total) = 0.46503E-02    rms(broyden)= 0.46503E-02
  rms(prec ) = 0.61032E-02
  weight for this iteration     100.00

 eigenvalues of (default mixing * dielectric matrix)
  average eigenvalue GAMMA=   1.3038
  3.6627  2.4554  1.6373  1.6373  0.9136  0.8111  0.8111  0.3484  0.3885  0.3730

 Free energy of the ion-electron system (eV)
  ---------------------------------------------------
  alpha Z        PSCENC =       236.58741148
  Ewald energy   TEWEN  =     56008.79709607
  -Hartree energ DENC   =    -67800.40492621
  -exchange      EXHF   =         0.00000000
  -V(xc)+E(xc)   XCENC  =     -2094.06715112
  PAW double counting   =      8169.42037836    -5523.50327370
  entropy T*S    EENTRO =        -0.00000000
  eigenvalues    EBANDS =     -1273.45949657
  atomic energy  EATOM  =     11953.08265402
  Solvation  Ediel_sol  =         0.00000000
  ---------------------------------------------------
  free energy    TOTEN  =      -323.54730766 eV

  energy without entropy =     -323.54730766  energy(sigma->0) =     -323.54730766


--------------------------------------------------------------------------------------------------------




--------------------------------------- Iteration      1(  16)  ---------------------------------------


    POTLOK:  cpu time    0.3120: real time    0.3123
    SETDIJ:  cpu time    0.0124: real time    0.0124
    EDDIAG:  cpu time    2.5775: real time    2.5835
  RMM-DIIS:  cpu time   46.9150: real time   47.0183
    ORTHCH:  cpu time    0.2072: real time    0.2074
       DOS:  cpu time    0.0004: real time    0.0004
    CHARGE:  cpu time    1.1909: real time    1.2000
    MIXING:  cpu time    0.0099: real time    0.0100
    --------------------------------------------
      LOOP:  cpu time   51.2253: real time   51.3443

 eigenvalue-minimisations  :  2253
 total energy-change (2. order) :-0.9979099E-03  (-0.8679378E-04)
 number of electron     324.0000014 magnetization 
 augmentation part      -21.2393213 magnetization 

 Broyden mixing:
  rms(total) = 0.32373E-02    rms(broyden)= 0.32373E-02
  rms(prec ) = 0.43614E-02
  weight for this iteration     100.00

 eigenvalues of (default mixing * dielectric matrix)
  average eigenvalue GAMMA=   1.3502
  3.9471  2.4825  1.8577  1.8577  0.9945  0.9945  0.8053  0.8053  0.3886  0.3480
  0.3705

 Free energy of the ion-electron system (eV)
  ---------------------------------------------------
  alpha Z        PSCENC =       236.58741148
  Ewald energy   TEWEN  =     56008.79709607
  -Hartree energ DENC   =    -67802.88583164
  -exchange      EXHF   =         0.00000000
  -V(xc)+E(xc)   XCENC  =     -2094.04803208
  PAW double counting   =      8169.50080735    -5523.57710613
  entropy T*S    EENTRO =        -0.00000000
  eigenvalues    EBANDS =     -1271.00530465
  atomic energy  EATOM  =     11953.08265402
  Solvation  Ediel_sol  =         0.00000000
  ---------------------------------------------------
  free energy    TOTEN  =      -323.54830557 eV

  energy without entropy =     -323.54830557  energy(sigma->0) =     -323.54830557


--------------------------------------------------------------------------------------------------------




--------------------------------------- Iteration      1(  17)  ---------------------------------------


    POTLOK:  cpu time    0.3060: real time    0.3062
    SETDIJ:  cpu time    0.0126: real time    0.0126
    EDDIAG:  cpu time    2.5657: real time    2.5681
  RMM-DIIS:  cpu time   46.4623: real time   46.6016
    ORTHCH:  cpu time    0.2116: real time    0.2117
       DOS:  cpu time    0.0004: real time    0.0004
    CHARGE:  cpu time    1.2014: real time    1.2025
    MIXING:  cpu time    0.0088: real time    0.0089
    --------------------------------------------
      LOOP:  cpu time   50.7688: real time   50.9121

 eigenvalue-minimisations  :  2242
 total energy-change (2. order) :-0.1537577E-02  (-0.5333875E-04)
 number of electron     324.0000014 magnetization 
 augmentation part      -21.2455475 magnetization 

 Broyden mixing:
  rms(total) = 0.27859E-02    rms(broyden)= 0.27859E-02
  rms(prec ) = 0.34213E-02
  weight for this iteration     100.00

 eigenvalues of (default mixing * dielectric matrix)
  average eigenvalue GAMMA=   1.3579
  4.3632  2.6708  2.2582  1.4392  1.4392  0.9957  0.8096  0.8096  0.4064  0.3876
  0.3480  0.3672

 Free energy of the ion-electron system (eV)
  ---------------------------------------------------
  alpha Z        PSCENC =       236.58741148
  Ewald energy   TEWEN  =     56008.79709607
  -Hartree energ DENC   =    -67805.83476710
  -exchange      EXHF   =         0.00000000
  -V(xc)+E(xc)   XCENC  =     -2094.03857406
  PAW double counting   =      8168.60821719    -5522.68522344
  entropy T*S    EENTRO =        -0.00000000
  eigenvalues    EBANDS =     -1268.06665731
  atomic energy  EATOM  =     11953.08265402
  Solvation  Ediel_sol  =         0.00000000
  ---------------------------------------------------
  free energy    TOTEN  =      -323.54984315 eV

  energy without entropy =     -323.54984315  energy(sigma->0) =     -323.54984315


--------------------------------------------------------------------------------------------------------




--------------------------------------- Iteration      1(  18)  ---------------------------------------


    POTLOK:  cpu time    0.3080: real time    0.3082
    SETDIJ:  cpu time    0.0122: real time    0.0122
    EDDIAG:  cpu time    2.5754: real time    2.5809
  RMM-DIIS:  cpu time   47.1601: real time   47.2969
    ORTHCH:  cpu time    0.2150: real time    0.2152
       DOS:  cpu time    0.0004: real time    0.0004
    CHARGE:  cpu time    1.1986: real time    1.1997
    MIXING:  cpu time    0.0086: real time    0.0086
    --------------------------------------------
      LOOP:  cpu time   51.4782: real time   51.6223

 eigenvalue-minimisations  :  2274
 total energy-change (2. order) :-0.8983479E-03  (-0.3004727E-04)
 number of electron     324.0000014 magnetization 
 augmentation part      -21.2483995 magnetization 

 Broyden mixing:
  rms(total) = 0.20065E-02    rms(broyden)= 0.20065E-02
  rms(prec ) = 0.24776E-02
  weight for this iteration     100.00

 eigenvalues of (default mixing * dielectric matrix)
  average eigenvalue GAMMA=   1.4187
  5.0661  2.9205  2.3621  1.6181  1.6181  0.8882  0.8882  0.8124  0.8124  0.3892
  0.3754  0.3490  0.3436

 Free energy of the ion-electron system (eV)
  ---------------------------------------------------
  alpha Z        PSCENC =       236.58741148
  Ewald energy   TEWEN  =     56008.79709607
  -Hartree energ DENC   =    -67807.40681531
  -exchange      EXHF   =         0.00000000
  -V(xc)+E(xc)   XCENC  =     -2094.03389592
  PAW double counting   =      8168.21779265    -5522.29629282
  entropy T*S    EENTRO =        -0.00000000
  eigenvalues    EBANDS =     -1266.49869167
  atomic energy  EATOM  =     11953.08265402
  Solvation  Ediel_sol  =         0.00000000
  ---------------------------------------------------
  free energy    TOTEN  =      -323.55074149 eV

  energy without entropy =     -323.55074149  energy(sigma->0) =     -323.55074149


--------------------------------------------------------------------------------------------------------




--------------------------------------- Iteration      1(  19)  ---------------------------------------


    POTLOK:  cpu time    0.3074: real time    0.3090
    SETDIJ:  cpu time    0.0127: real time    0.0127
    EDDIAG:  cpu time    2.5971: real time    2.6043
  RMM-DIIS:  cpu time   47.7342: real time   47.8392
    ORTHCH:  cpu time    0.2077: real time    0.2099
       DOS:  cpu time    0.0004: real time    0.0004
    CHARGE:  cpu time    1.1978: real time    1.1988
    MIXING:  cpu time    0.0087: real time    0.0087
    --------------------------------------------
      LOOP:  cpu time   52.0661: real time   52.1829

 eigenvalue-minimisations  :  2288
 total energy-change (2. order) :-0.7861871E-03  (-0.1136283E-04)
 number of electron     324.0000014 magnetization 
 augmentation part      -21.2455496 magnetization 

 Broyden mixing:
  rms(total) = 0.12869E-02    rms(broyden)= 0.12869E-02
  rms(prec ) = 0.15925E-02
  weight for this iteration     100.00

 eigenvalues of (default mixing * dielectric matrix)
  average eigenvalue GAMMA=   1.5070
  6.0767  3.1998  2.4323  1.8072  1.8072  1.0207  1.0207  0.8037  0.8037  0.6705
  0.3887  0.3752  0.3496  0.3413

 Free energy of the ion-electron system (eV)
  ---------------------------------------------------
  alpha Z        PSCENC =       236.58741148
  Ewald energy   TEWEN  =     56008.79709607
  -Hartree energ DENC   =    -67808.48504093
  -exchange      EXHF   =         0.00000000
  -V(xc)+E(xc)   XCENC  =     -2094.03051624
  PAW double counting   =      8168.31866068    -5522.39933024
  entropy T*S    EENTRO =        -0.00000000
  eigenvalues    EBANDS =     -1265.42246253
  atomic energy  EATOM  =     11953.08265402
  Solvation  Ediel_sol  =         0.00000000
  ---------------------------------------------------
  free energy    TOTEN  =      -323.55152768 eV

  energy without entropy =     -323.55152768  energy(sigma->0) =     -323.55152768


--------------------------------------------------------------------------------------------------------




--------------------------------------- Iteration      1(  20)  ---------------------------------------


    POTLOK:  cpu time    0.3091: real time    0.3094
    SETDIJ:  cpu time    0.0122: real time    0.0122
    EDDIAG:  cpu time    2.5756: real time    2.5802
  RMM-DIIS:  cpu time   46.4354: real time   46.5644
    ORTHCH:  cpu time    0.2103: real time    0.2105
       DOS:  cpu time    0.0004: real time    0.0004
    CHARGE:  cpu time    1.1906: real time    1.1916
    MIXING:  cpu time    0.0103: real time    0.0103
    --------------------------------------------
      LOOP:  cpu time   50.7439: real time   50.8790

 eigenvalue-minimisations  :  2229
 total energy-change (2. order) :-0.4673075E-03  (-0.1285544E-04)
 number of electron     324.0000014 magnetization 
 augmentation part      -21.2405523 magnetization 

 Broyden mixing:
  rms(total) = 0.87843E-03    rms(broyden)= 0.87843E-03
  rms(prec ) = 0.99044E-03
  weight for this iteration     100.00

 eigenvalues of (default mixing * dielectric matrix)
  average eigenvalue GAMMA=   1.4820
  6.3878  3.2658  2.4436  1.8188  1.8188  1.0604  1.0604  0.8093  0.8093  0.7169
  0.5845  0.3886  0.3747  0.3496  0.3414

 Free energy of the ion-electron system (eV)
  ---------------------------------------------------
  alpha Z        PSCENC =       236.58741148
  Ewald energy   TEWEN  =     56008.79709607
  -Hartree energ DENC   =    -67808.96174186
  -exchange      EXHF   =         0.00000000
  -V(xc)+E(xc)   XCENC  =     -2094.03049105
  PAW double counting   =      8168.74160077    -5522.82272296
  entropy T*S    EENTRO =        -0.00000000
  eigenvalues    EBANDS =     -1264.94580146
  atomic energy  EATOM  =     11953.08265402
  Solvation  Ediel_sol  =         0.00000000
  ---------------------------------------------------
  free energy    TOTEN  =      -323.55199499 eV

  energy without entropy =     -323.55199499  energy(sigma->0) =     -323.55199499


--------------------------------------------------------------------------------------------------------




--------------------------------------- Iteration      1(  21)  ---------------------------------------


    POTLOK:  cpu time    0.3071: real time    0.3074
    SETDIJ:  cpu time    0.0122: real time    0.0122
    EDDIAG:  cpu time    2.5548: real time    2.5613
  RMM-DIIS:  cpu time   51.0790: real time   51.1950
    ORTHCH:  cpu time    0.2116: real time    0.2121
       DOS:  cpu time    0.0004: real time    0.0004
    CHARGE:  cpu time    1.1998: real time    1.2010
    MIXING:  cpu time    0.0090: real time    0.0091
    --------------------------------------------
      LOOP:  cpu time   55.3740: real time   55.4984

 eigenvalue-minimisations  :  2417
 total energy-change (2. order) :-0.1058161E-03  (-0.3371711E-05)
 number of electron     324.0000014 magnetization 
 augmentation part      -21.2406101 magnetization 

 Broyden mixing:
  rms(total) = 0.69636E-03    rms(broyden)= 0.69636E-03
  rms(prec ) = 0.81249E-03
  weight for this iteration     100.00

 eigenvalues of (default mixing * dielectric matrix)
  average eigenvalue GAMMA=   1.5346
  7.0363  3.3623  2.4407  2.2519  1.6734  1.6734  1.0086  1.0086  0.7979  0.7979
  0.6784  0.3409  0.3489  0.3881  0.3780  0.3681

 Free energy of the ion-electron system (eV)
  ---------------------------------------------------
  alpha Z        PSCENC =       236.58741148
  Ewald energy   TEWEN  =     56008.79709607
  -Hartree energ DENC   =    -67809.07468855
  -exchange      EXHF   =         0.00000000
  -V(xc)+E(xc)   XCENC  =     -2094.03166017
  PAW double counting   =      8168.86825589    -5522.94869677
  entropy T*S    EENTRO =        -0.00000000
  eigenvalues    EBANDS =     -1264.83247278
  atomic energy  EATOM  =     11953.08265402
  Solvation  Ediel_sol  =         0.00000000
  ---------------------------------------------------
  free energy    TOTEN  =      -323.55210081 eV

  energy without entropy =     -323.55210081  energy(sigma->0) =     -323.55210081


--------------------------------------------------------------------------------------------------------




--------------------------------------- Iteration      1(  22)  ---------------------------------------


    POTLOK:  cpu time    0.3126: real time    0.3129
    SETDIJ:  cpu time    0.0119: real time    0.0119
    EDDIAG:  cpu time    2.5700: real time    2.5741
  RMM-DIIS:  cpu time   42.2506: real time   42.3066
    ORTHCH:  cpu time    0.2073: real time    0.2076
       DOS:  cpu time    0.0004: real time    0.0004
    CHARGE:  cpu time    1.2007: real time    1.2018
    MIXING:  cpu time    0.0091: real time    0.0091
    --------------------------------------------
      LOOP:  cpu time   46.5627: real time   46.6246

 eigenvalue-minimisations  :  1964
 total energy-change (2. order) :-0.1335365E-03  (-0.1232856E-05)
 number of electron     324.0000014 magnetization 
 augmentation part      -21.2430301 magnetization 

 Broyden mixing:
  rms(total) = 0.29799E-03    rms(broyden)= 0.29799E-03
  rms(prec ) = 0.34715E-03
  weight for this iteration     100.00

 eigenvalues of (default mixing * dielectric matrix)
  average eigenvalue GAMMA=   1.5616
  7.3763  3.5526  2.5236  2.4041  1.7990  1.7990  1.0110  1.0110  0.9653  0.7987
  0.7987  0.6911  0.3887  0.3751  0.3493  0.3406  0.3631

 Free energy of the ion-electron system (eV)
  ---------------------------------------------------
  alpha Z        PSCENC =       236.58741148
  Ewald energy   TEWEN  =     56008.79709607
  -Hartree energ DENC   =    -67809.26489541
  -exchange      EXHF   =         0.00000000
[...]
 -0.000  -0.000   0.001  -0.000   0.000   0.011   0.000   0.000
  0.000  -0.000  -0.000   0.001   0.000   0.000   0.011  -0.000
 -0.000   0.000   0.000   0.000   0.000   0.000  -0.000   0.011
  0.000  -0.000  -0.000  -0.000  -0.000   0.000   0.000  -0.000
  0.000   0.000   0.012   0.001  -0.000   0.000  -0.000   0.000
 -0.009  -0.000  -0.000   0.017   0.000   0.000   0.000  -0.000
  0.000  -0.000  -0.000  -0.000   0.012   0.000   0.000   0.000
  0.001   0.000  -0.001   0.000  -0.000  -0.000  -0.000   0.000
 total augmentation occupancy for first ion, spin component:           1
  1.940   0.161   0.001  -0.201   0.002  -0.005  -0.025   0.002   0.000   0.001   0.006  -0.000  -0.000
  0.161   1.237   0.010   0.893  -0.011  -0.012  -0.341   0.006   0.001   0.002  -0.020  -0.001   0.006
  0.001   0.010   1.325   0.006  -0.006  -0.443  -0.009  -0.003  -0.002   0.107   0.002   0.000   0.040
 -0.201   0.893   0.006   1.477  -0.000  -0.009  -0.509   0.003   0.001   0.004   0.035  -0.001   0.001
  0.002  -0.011  -0.006  -0.000   1.328  -0.003   0.003  -0.447   0.043   0.000   0.001   0.111  -0.002
 -0.005  -0.012  -0.443  -0.009  -0.003   0.261   0.003   0.001   0.001  -0.034   0.001  -0.000  -0.006
 -0.025  -0.341  -0.009  -0.509   0.003   0.003   0.256  -0.001  -0.000  -0.002  -0.039   0.001  -0.000
  0.002   0.006  -0.003   0.003  -0.447   0.001  -0.001   0.273  -0.008  -0.000  -0.000  -0.033   0.000
  0.000   0.001  -0.002   0.001   0.043   0.001  -0.000  -0.008   0.017  -0.000  -0.000   0.000  -0.000
  0.001   0.002   0.107   0.004   0.000  -0.034  -0.002  -0.000  -0.000   0.015   0.001   0.000  -0.000
  0.006  -0.020   0.002   0.035   0.001   0.001  -0.039  -0.000  -0.000   0.001   0.017  -0.000  -0.001
 -0.000  -0.001   0.000  -0.001   0.111  -0.000   0.001  -0.033   0.000   0.000  -0.000   0.016  -0.000
 -0.000   0.006   0.040   0.001  -0.002  -0.006  -0.000   0.000  -0.000  -0.000  -0.001  -0.000   0.018


------------------------ aborting loop because EDIFF is reached ----------------------------------------


    CHARGE:  cpu time    1.2001: real time    1.2047
    FORLOC:  cpu time    0.0809: real time    0.0809
    FORNL :  cpu time   14.0931: real time   14.1238
    STRESS:  cpu time   75.5091: real time   75.6588
    FORCOR:  cpu time    0.3426: real time    0.3429
    FORHAR:  cpu time    0.1399: real time    0.1400
    MIXING:  cpu time    0.0077: real time    0.0078
    OFIELD:  cpu time    0.0000: real time    0.0000

  Number of pair interactions contributing to vdW energy:  259879
  Edisp (eV):  -18.17146
    FORVDW:  cpu time    0.0288: real time    0.0289

  FORCE on cell =-STRESS in cart. coord.  units (eV):
  Direction    XX          YY          ZZ          XY          YZ          ZX
  --------------------------------------------------------------------------------------
  Alpha Z   236.58741   236.58741   236.58741
  Ewald   65167.66659 65085.76598-74139.29104    -2.61809    29.88693    -8.28651
  Hartree 67521.14911 67497.66423-67107.46849    -1.26892     5.65045    -2.03077
  E(xc)   -1345.69272 -1344.32604 -1363.23831     0.01713    -0.78597     0.13569
  Local  ************************136202.75406     3.85329   -35.20718    10.04806
  n-local  3528.19036  3530.51846  3704.49417     0.60976     5.68339    -0.91471
  augment  -759.60510  -761.72048  -799.57625    -0.17324    -0.85320     0.09480
  Kinetic  3273.52467  3253.06049  3236.66572    -1.68840     4.34004    -1.33317
  Fock        0.00000     0.00000     0.00000     0.00000     0.00000     0.00000
  vdW       -11.32236   -11.34462    -8.00084     0.00641    -0.22971     0.00519
  -------------------------------------------------------------------------------------
  Total     -19.29645   -40.47651   -37.07356    -1.26206     8.48475    -2.28142
  in kB     -10.19195   -21.37877   -19.58141    -0.66659     4.48145    -1.20500
  external pressure =      -17.05 kB  Pullay stress =        0.00 kB

  kinetic pressure (ideal gas correction) =      0.24 kB
  total pressure  =    -16.81 kB
  Total+kin.    -9.994     -21.204     -19.247      -0.650       4.429      -1.268

 VOLUME and BASIS-vectors are now :
 -----------------------------------------------------------------------------
  energy-cutoff  :      550.00
  volume of cell :     3033.41
      direct lattice vectors                 reciprocal lattice vectors
    10.581142694  0.000000000  0.000000000     0.094507751  0.052868202  0.000452526
    -5.257527332  9.398410917  0.000000000     0.000000000  0.106400966  0.001261208
     0.056204741 -0.361563925 30.503090742     0.000000000  0.000000000  0.032783563

  length of vectors
    10.581142694 10.769016734 30.505285316     0.108291119  0.106408440  0.032783563


 FORCES acting on ions
    electron-ion (+dipol)            ewald-force                    non-local-force                 convergence-correction
 -----------------------------------------------------------------------------------------------
   -.181E+01 0.178E+01 0.790E+03   0.183E+01 -.172E+01 -.795E+03   -.176E-01 -.240E+00 0.605E+01   -.789E-04 -.254E-03 -.365E-03
   0.263E+01 0.148E+01 0.789E+03   -.263E+01 -.144E+01 -.794E+03   -.315E+00 -.211E+00 0.612E+01   0.189E-04 0.771E-04 -.124E-03
   -.885E+00 -.896E+00 0.788E+03   0.918E+00 0.941E+00 -.794E+03   -.948E-01 0.207E-01 0.569E+01   -.649E-05 -.486E-05 0.238E-03
   -.105E+01 0.227E+01 0.787E+03   0.107E+01 -.220E+01 -.793E+03   -.882E-02 -.254E+00 0.590E+01   0.123E-02 0.418E-03 0.986E-03
   -.126E+01 -.227E+00 0.790E+03   0.129E+01 0.320E+00 -.795E+03   0.133E-01 -.171E+00 0.601E+01   0.395E-03 0.204E-03 0.949E-04
   -.199E+01 0.497E+00 0.786E+03   0.197E+01 -.430E+00 -.791E+03   0.226E+00 -.199E+00 0.589E+01   -.188E-03 0.113E-03 0.445E-03
   0.315E+01 -.985E-01 0.790E+03   -.317E+01 0.179E+00 -.796E+03   -.183E+00 -.140E+00 0.567E+01   -.108E-02 0.556E-03 0.696E-03
   -.109E+01 0.352E+01 0.789E+03   0.108E+01 -.347E+01 -.795E+03   0.102E+00 -.346E+00 0.586E+01   -.364E-03 -.966E-03 0.112E-02
   0.230E+01 0.418E+01 0.790E+03   -.231E+01 -.411E+01 -.796E+03   -.135E+00 -.428E+00 0.588E+01   0.184E-03 -.236E-03 0.180E-03
   0.264E+00 -.708E+00 -.846E+02   -.280E+00 0.749E+00 0.792E+02   -.916E-01 0.604E-01 0.618E+01   0.784E-03 -.482E-03 0.174E-02
   -.110E+01 0.201E+01 -.835E+02   0.108E+01 -.199E+01 0.781E+02   0.155E-01 -.217E+00 0.589E+01   0.581E-03 -.683E-03 -.874E-03
   0.120E+01 0.989E+00 -.849E+02   -.123E+01 -.912E+00 0.794E+02   0.483E-01 -.175E+00 0.604E+01   -.127E-02 0.114E-02 -.278E-04
   0.985E+00 0.688E+00 -.816E+02   -.105E+01 -.612E+00 0.762E+02   0.140E+00 -.172E+00 0.595E+01   -.136E-02 0.709E-03 0.376E-03
   -.735E+00 0.217E+01 -.829E+02   0.744E+00 -.208E+01 0.775E+02   0.718E-01 -.346E+00 0.572E+01   0.605E-03 -.901E-03 0.817E-03
   -.205E+01 0.123E+01 -.849E+02   0.197E+01 -.116E+01 0.795E+02   0.434E+00 -.185E+00 0.574E+01   0.155E-02 0.648E-03 0.328E-03
   -.794E+00 0.207E+01 -.791E+02   0.816E+00 -.197E+01 0.737E+02   0.457E-01 -.286E+00 0.593E+01   0.522E-03 -.145E-02 0.117E-03
   0.185E+01 -.949E+00 -.822E+02   -.188E+01 0.104E+01 0.767E+02   -.973E-01 -.200E+00 0.599E+01   -.113E-02 0.281E-03 -.841E-03
   -.184E+01 0.345E+01 -.826E+02   0.176E+01 -.334E+01 0.772E+02   0.310E+00 -.383E+00 0.598E+01   -.339E-03 0.772E-03 0.179E-02
   -.203E+01 0.366E+01 0.859E+02   0.206E+01 -.371E+01 -.805E+02   0.721E-02 -.140E+00 -.586E+01   -.693E-04 -.275E-03 0.234E-03
   0.257E+01 0.395E+00 0.836E+02   -.259E+01 -.428E+00 -.782E+02   -.207E+00 0.107E+00 -.608E+01   -.744E-04 0.790E-04 0.755E-04
   -.246E+00 -.133E+01 0.808E+02   0.258E+00 0.133E+01 -.755E+02   -.969E-01 0.133E+00 -.607E+01   -.693E-04 0.782E-04 -.214E-03
   -.616E+00 0.204E+01 0.837E+02   0.665E+00 -.206E+01 -.783E+02   -.146E+00 0.495E-01 -.612E+01   0.128E-02 0.505E-03 -.913E-03
   -.139E+01 0.682E+00 0.815E+02   0.142E+01 -.725E+00 -.761E+02   0.627E-01 0.802E-01 -.577E+01   0.440E-03 0.342E-03 0.156E-03
   -.221E+01 -.258E+01 0.844E+02   0.224E+01 0.258E+01 -.789E+02   0.120E+00 0.270E+00 -.602E+01   -.493E-04 0.452E-04 -.358E-03
   0.331E+01 0.205E+01 0.833E+02   -.327E+01 -.212E+01 -.779E+02   -.304E+00 0.687E-01 -.590E+01   -.115E-02 0.604E-03 -.708E-03
   -.172E+01 0.292E+01 0.837E+02   0.175E+01 -.297E+01 -.783E+02   0.695E-01 -.244E-01 -.587E+01   -.414E-03 -.104E-02 -.104E-02
   0.198E+01 -.217E+00 0.828E+02   -.194E+01 0.259E+00 -.774E+02   -.161E+00 0.829E-01 -.606E+01   0.113E-03 -.428E-03 -.140E-03
   -.219E+01 0.176E+01 -.789E+03   0.223E+01 -.182E+01 0.794E+03   0.554E-02 0.464E-01 -.585E+01   0.733E-03 -.405E-03 -.153E-02
   -.192E+01 -.103E+01 -.789E+03   0.187E+01 0.105E+01 0.794E+03   0.115E+00 0.812E-01 -.568E+01   0.630E-03 -.604E-03 0.830E-03
   -.427E+00 -.106E+01 -.788E+03   0.407E+00 0.107E+01 0.794E+03   0.152E+00 0.199E+00 -.611E+01   -.127E-02 0.116E-02 -.260E-04
   0.271E+01 0.209E+01 -.787E+03   -.275E+01 -.208E+01 0.793E+03   -.915E-01 -.404E-01 -.569E+01   -.133E-02 0.694E-03 -.548E-03
   0.968E+00 0.106E+01 -.790E+03   -.945E+00 -.105E+01 0.796E+03   -.111E+00 -.127E-01 -.578E+01   0.532E-03 -.876E-03 -.942E-03
   0.687E+00 0.254E+01 -.790E+03   -.747E+00 -.256E+01 0.796E+03   0.120E+00 -.465E-01 -.613E+01   0.159E-02 0.754E-03 -.349E-03
   0.392E+00 0.480E+00 -.791E+03   -.353E+00 -.484E+00 0.796E+03   -.129E+00 0.240E+00 -.565E+01   0.574E-03 -.177E-02 -.345E-03
   0.725E+00 -.177E+01 -.788E+03   -.695E+00 0.171E+01 0.793E+03   -.116E+00 0.273E+00 -.598E+01   -.115E-02 0.294E-03 0.485E-03
   -.189E+01 0.132E+01 -.789E+03   0.191E+01 -.133E+01 0.794E+03   0.175E-01 0.154E+00 -.603E+01   -.341E-03 0.761E-03 -.175E-02
   -.192E+01 -.359E+01 0.437E+03   0.195E+01 0.364E+01 -.437E+03   0.380E+00 0.213E+00 0.156E+00   0.559E-04 -.258E-03 -.143E-03
   0.586E+00 -.506E+01 0.439E+03   -.536E+00 0.514E+01 -.439E+03   0.127E+00 0.329E+00 -.120E+00   -.813E-03 -.578E-04 -.159E-03
   -.242E+01 0.226E+01 0.436E+03   0.248E+01 -.229E+01 -.436E+03   0.244E+00 -.305E+00 0.328E-01   -.513E-03 -.435E-03 -.209E-03
   -.165E+00 -.504E+01 0.433E+03   0.116E+00 0.509E+01 -.433E+03   -.353E-01 0.240E+00 0.697E-01   0.468E-03 0.459E-03 -.305E-03
   -.156E+01 0.557E+00 0.435E+03   0.160E+01 -.526E+00 -.435E+03   0.320E-01 -.102E+00 -.207E+00   0.961E-03 0.147E-03 -.170E-03
   -.315E+00 -.334E+01 0.433E+03   0.335E+00 0.334E+01 -.433E+03   0.111E+00 0.660E-01 -.371E+00   0.119E-03 0.271E-03 -.234E-03
   0.314E+01 0.115E+01 0.437E+03   -.311E+01 -.114E+01 -.437E+03   -.170E+00 -.355E+00 0.251E+00   -.414E-03 0.301E-03 -.148E-03
   -.810E-01 -.822E+00 0.438E+03   0.111E+00 0.857E+00 -.438E+03   0.222E+00 0.530E-01 0.119E+00   -.144E-03 0.154E-03 -.695E-04
   0.256E+01 -.390E+01 0.434E+03   -.261E+01 0.396E+01 -.434E+03   -.184E+00 0.368E+00 -.370E+00   0.500E-03 -.559E-03 -.199E-03
   -.889E+00 0.174E+00 -.437E+03   0.845E+00 -.166E+00 0.437E+03   -.341E-01 -.258E+00 0.573E-01   -.981E-03 0.816E-03 0.147E-03
   -.365E+01 -.121E+01 -.440E+03   0.363E+01 0.117E+01 0.440E+03   0.463E+00 0.337E-01 -.536E+00   0.116E-02 -.178E-02 0.664E-05
   0.286E+01 -.541E+01 -.434E+03   -.290E+01 0.544E+01 0.434E+03   -.210E+00 0.240E+00 0.131E+00   -.741E-03 0.447E-03 0.221E-03
   0.376E+01 -.677E+00 -.438E+03   -.389E+01 0.696E+00 0.438E+03   -.247E+00 0.794E-01 0.221E+00   -.182E-03 0.109E-02 0.156E-03
   0.249E+01 -.817E+00 -.438E+03   -.250E+01 0.824E+00 0.438E+03   -.235E+00 0.170E+00 -.198E+00   -.292E-03 -.324E-03 0.103E-03
   0.623E+00 -.305E+01 -.438E+03   -.639E+00 0.314E+01 0.438E+03   -.135E+00 0.251E-01 0.258E+00   0.158E-02 -.267E-03 0.164E-03
   0.939E+00 0.667E+00 -.434E+03   -.967E+00 -.652E+00 0.434E+03   -.447E+00 -.623E-01 0.165E+00   0.111E-02 -.293E-03 0.277E-03
   0.109E+01 -.274E+01 -.430E+03   -.103E+01 0.279E+01 0.430E+03   -.253E-01 -.750E-01 0.136E+00   -.794E-03 -.681E-03 0.286E-03
   -.354E+01 -.420E+01 -.434E+03   0.359E+01 0.425E+01 0.434E+03   0.360E+00 0.271E+00 0.100E+00   -.759E-03 0.619E-03 0.229E-03
 -----------------------------------------------------------------------------------------------
   0.119E-01 0.142E+01 0.279E+00   0.755E-14 -.231E-13 0.324E-11   -.130E-01 -.142E+01 -.282E+00   0.342E-03 -.484E-03 -.422E-03
 
 
 POSITION                                       TOTAL-FORCE (eV/Angst)
 -----------------------------------------------------------------------------------
      0.03480      1.97035      9.52625        -0.000994     -0.177773      0.719434
     -1.68842      5.11122      9.52816        -0.294610     -0.163322      0.821767
     -3.47678      8.21113      9.56027        -0.060735      0.061812      0.371835
      3.54679      1.96548      9.55219         0.012428     -0.185152      0.569556
      1.79637      5.09997      9.53292         0.048751     -0.076334      0.768209
      0.03113      8.23133      9.56457         0.192759     -0.127651      0.518569
      7.10114      1.97652      9.54791        -0.189416     -0.056753      0.342134
      5.31629      5.12852      9.54577         0.087416     -0.291464      0.553209
      3.58062      8.24883      9.53020        -0.133147     -0.349725      0.613794
     -0.25346      2.39309     17.28113        -0.107066      0.099408      0.704011
     -1.99412      5.53236     17.29352        -0.006719     -0.187870      0.395684
     -3.76087      8.66917     17.28387         0.020490     -0.092839      0.533922
      3.26222      2.39794     17.27757         0.069561     -0.089651      0.446948
      1.50329      5.53858     17.29727         0.075025     -0.245627      0.244478
     -0.25515      8.67419     17.31044         0.342993     -0.109671      0.217387
      6.80054      2.41716     17.26262         0.065071     -0.179796      0.503324
      5.05797      5.54453     17.27212        -0.121105     -0.100606      0.480053
      3.28050      8.68724     17.27429         0.217512     -0.269742      0.499819
      0.02630      1.94602     13.19590         0.033427     -0.193948     -0.361880
     -1.71047      5.05404     13.22983        -0.220155      0.064877     -0.590045
     -3.48199      8.19214     13.24335        -0.083886      0.120949     -0.621374
      3.57455      1.92846     13.23292        -0.086870      0.018634     -0.641851
      1.79527      5.05616     13.22343         0.092970      0.027241     -0.288456
      0.05052      8.17872     13.21903         0.146481      0.264712     -0.487667
      7.11545      1.94499     13.21813        -0.259474     -0.005204     -0.483457
      5.32743      5.07067     13.21505         0.102050     -0.079943     -0.395806
      3.58400      8.18608     13.22968        -0.114848      0.112611     -0.600718
     -0.25821      2.38327     20.95479         0.043523     -0.019416     -0.454470
     -2.00794      5.50534     20.93999         0.069520      0.100048     -0.298720
     -3.76874      8.61163     20.97004         0.126545      0.194638     -0.764668
      3.31045      2.37685     20.92716        -0.120491     -0.032455     -0.323972
      1.53061      5.50327     20.95753        -0.086030     -0.001989     -0.444865
     -0.21728      8.65830     20.98193         0.064147     -0.065727     -0.813309
      6.79688      2.33877     20.95115        -0.090768      0.220989     -0.380549
      5.06254      5.47198     20.95184        -0.080622      0.197179     -0.685929
      3.30541      8.61033     20.96797         0.036527      0.137685     -0.729140
      5.32057      9.24589     11.37101         0.429036      0.267512      0.204381
      8.84442      2.98737     11.37935         0.176469      0.423359     -0.173604
      7.08346      6.15428     11.38559         0.308794     -0.353181      0.036729
     -1.72125      9.24460     11.39276        -0.079315      0.300368      0.109728
      1.79283      3.00823     11.39329         0.069216     -0.081689     -0.239413
      0.04337      6.12064     11.41089         0.123236      0.077699     -0.440433
      7.08980     -0.10249     11.36659        -0.167231     -0.359471      0.299297
      5.31710      3.00185     11.37364         0.248225      0.088760      0.119647
      3.56705      6.11072     11.40754        -0.234164      0.437261     -0.427282
     -0.25849      0.31648     19.11974        -0.061933     -0.251656      0.104832
      8.52925      3.43489     19.15482         0.489745      0.004251     -0.623970
     -3.75201      6.55464     19.10787        -0.261136      0.289063      0.159103
      3.28300      0.30005     19.11474        -0.375211      0.102985      0.344295
      1.52756      3.43083     19.13237        -0.256174      0.177561     -0.197909
     -0.22721      6.57130     19.11524        -0.159471      0.118800      0.369031
      6.82777      0.31450     19.10944        -0.495706     -0.052804      0.187632
      5.05075      3.43441     19.09204         0.012931     -0.027579      0.124727
      3.26440      6.54915     19.11113         0.441720      0.327046      0.103204
 -----------------------------------------------------------------------------------
    total drift:                               -0.000712      0.006408     -0.002747


--------------------------------------------------------------------------------------------------------



  FREE ENERGIE OF THE ION-ELECTRON SYSTEM (eV)
  ---------------------------------------------------
  free  energy   TOTEN  =      -341.71030994 eV

  energy  without entropy=     -341.71030994  energy(sigma->0) =     -341.71030994
 
 d Force =-0.2736321E-02[-0.509E-02,-0.387E-03]  d Energy =-0.2655399E-02-0.809E-04
 d Force =-0.2083581E+02[-0.208E+02,-0.208E+02]  d Ewald  =-0.2083582E+02 0.248E-05


--------------------------------------------------------------------------------------------------------


    POTLOK:  cpu time    0.3222: real time    0.3225


--------------------------------------------------------------------------------------------------------


           RANDOM_SEED =         259272909              324                0
   IONSTEP:  cpu time    0.0001: real time    0.0001

  ENERGY OF THE ELECTRON-ION-THERMOSTAT SYSTEM (eV)
  ---------------------------------------------------
% ion-electron   TOTEN  =      -341.710310  see above
  kinetic energy EKIN   =         0.668671
  kin. lattice  EKIN_LAT=         0.000000  (temperature   97.60 K)
  nose potential ES     =        -0.004101
  nose kinetic   EPS    =         0.000077
  ---------------------------------------------------
  total energy   ETOTAL =      -341.045663 eV

  maximum distance moved by ions :      0.46E-03


 mean value of Nose-termostat <S>:     0.996 mean value of <T> :    97.605
 mean temperature <T/S>/<1/S>  :    97.605

    WAVPRE:  cpu time    0.1082: real time    0.1132
    FEWALD:  cpu time    0.0016: real time    0.0016
    ORTHCH:  cpu time    8.4470: real time    8.4636
    POTLOK:  cpu time    0.3215: real time    0.3217
    EDDIAG:  cpu time    2.5789: real time    2.5846
     LOOP+:  cpu time  499.2801: real time  500.3838
    4ORBIT:  cpu time    0.0000: real time    0.0000

 total amount of memory used by VASP MPI-rank0   381929. kBytes
=======================================================================

   base      :      30000. kBytes
   nonl-proj :     204779. kBytes
   fftplans  :      19943. kBytes
   grid      :      90496. kBytes
   one-center:        839. kBytes
   wavefun   :      35872. kBytes
 
  
  
 General timing and accounting informations for this job:
 ========================================================
  
                  Total CPU time used (sec):     6074.540
                            User time (sec):     6061.552
                          System time (sec):       12.988
                         Elapsed time (sec):     6088.524
  
                   Maximum memory used (kb):      847368.
                   Average memory used (kb):           0.
  
                          Minor page faults:       386176
                          Major page faults:            0
                 Voluntary context switches:          882
