 vasp.6.1.1 19Jun20 (build Dec 21 2021 08:45:49) complex                        
  
 executed on             LinuxIFC date 2023.10.04  05:41:40
 running on   40 total cores
 distrk:  each k-point on   40 cores,    1 groups
 distr:  one band on NCORE=   1 cores,   40 groups


--------------------------------------------------------------------------------------------------------


 INCAR:
 POTCAR:   PAW_PBE Te 08Apr2002                   
 POTCAR:   PAW_PBE Mo 08Apr2002                   
 -----------------------------------------------------------------------------
|                                                                             |
|           W    W    AA    RRRRR   N    N  II  N    N   GGGG   !!!           |
|           W    W   A  A   R    R  NN   N  II  NN   N  G    G  !!!           |
|           W    W  A    A  R    R  N N  N  II  N N  N  G       !!!           |
|           W WW W  AAAAAA  RRRRR   N  N N  II  N  N N  G  GGG   !            |
|           WW  WW  A    A  R   R   N   NN  II  N   NN  G    G                |
|           W    W  A    A  R    R  N    N  II  N    N   GGGG   !!!           |
|                                                                             |
|     For optimal performance we recommend to set                             |
|       NCORE = 4 - approx SQRT(number of cores).                             |
|     NCORE specifies how many cores store one orbital (NPAR=cpu/NCORE).      |
|     This setting can greatly improve the performance of VASP for DFT.       |
|     The default, NCORE=1 might be grossly inefficient on modern             |
|     multi-core architectures or massively parallel machines. Do your        |
|     own testing!!!!                                                         |
|     Unfortunately you need to use the default for GW and RPA                |
|     calculations (for HF NCORE is supported but not extensively tested      |
|     yet).                                                                   |
|                                                                             |
 -----------------------------------------------------------------------------

 POTCAR:   PAW_PBE Te 08Apr2002                   
   VRHFIN =Te: s2p4                                                                                 
   LEXCH  = PE                                                                                      
   EATOM  =   223.2721 eV,   16.4100 Ry                                                             
                                                                                                    
   TITEL  = PAW_PBE Te 08Apr2002                                                                    
   LULTRA =        F    use ultrasoft PP ?                                                          
   IUNSCR =        1    unscreen: 0-lin 1-nonlin 2-no                                               
   RPACOR =    2.200    partial core radius                                                         
   POMASS =  127.600; ZVAL   =    6.000    mass and valenz                                          
   RCORE  =    2.300    outmost cutoff radius                                                       
   RWIGS  =    2.900; RWIGS  =    1.535    wigner-seitz radius (au A)                               
   ENMAX  =  174.982; ENMIN  =  131.236 eV                                                          
   ICORE  =        3    local potential                                                             
   LCOR   =        T    correct aug charges                                                         
   LPAW   =        T    paw PP                                                                      
   EAUG   =  368.792                                                                                
   DEXC   =    -.169                                                                                
   RMAX   =    3.486    core radius for proj-oper                                                   
   RAUG   =    1.300    factor for augmentation sphere                                              
   RDEP   =    2.397    radius for radial grids                                                     
   QCUT   =   -3.586; QGAM   =    7.172    optimization parameters                                  
                                                                                                    
   Description                                                                                      
     l     E      TYP  RCUT    TYP  RCUT                                                            
     0   .000     23  2.300                                                                         
     0   .000     23  2.300                                                                         
     1   .000     23  2.300                                                                         
     1   .000     23  2.300                                                                         
     2   .000     23  2.300                                                                         
     3  -.100     23  2.300                                                                         
  local pseudopotential read in
  partial core-charges read in
  atomic valenz-charges read in
  non local Contribution for L=           0  read in
    real space projection operators read in
  non local Contribution for L=           0  read in
    real space projection operators read in
  non local Contribution for L=           1  read in
    real space projection operators read in
  non local Contribution for L=           1  read in
    real space projection operators read in
  non local Contribution for L=           2  read in
    real space projection operators read in
    PAW grid and wavefunctions read in
 
   number of l-projection  operators is LMAX  =           5
   number of lm-projection operators is LMMAX =          13
 
 POTCAR:   PAW_PBE Mo 08Apr2002                   
   VRHFIN =Mo: 4p5s4d                                                                               
   LEXCH  = PE                                                                                      
   EATOM  =   217.5180 eV,   15.9871 Ry                                                             
                                                                                                    
   TITEL  = PAW_PBE Mo 08Apr2002                                                                    
   LULTRA =        F    use ultrasoft PP ?                                                          
   IUNSCR =        1    unscreen: 0-lin 1-nonlin 2-no                                               
   RPACOR =    2.200    partial core radius                                                         
   POMASS =   95.940; ZVAL   =    6.000    mass and valenz                                          
   RCORE  =    2.750    outmost cutoff radius                                                       
   RWIGS  =    2.750; RWIGS  =    1.455    wigner-seitz radius (au A)                               
   ENMAX  =  224.584; ENMIN  =  168.438 eV                                                          
   RCLOC  =    2.111    cutoff for local pot                                                        
   LCOR   =        T    correct aug charges                                                         
   LPAW   =        T    paw PP                                                                      
   EAUG   =  345.278                                                                                
   DEXC   =    -.088                                                                                
   RMAX   =    3.077    core radius for proj-oper                                                   
   RAUG   =    1.300    factor for augmentation sphere                                              
   RDEP   =    2.815    radius for radial grids                                                     
   QCUT   =   -4.063; QGAM   =    8.126    optimization parameters                                  
                                                                                                    
   Description                                                                                      
     l     E      TYP  RCUT    TYP  RCUT                                                            
     2   .000     23  2.500                                                                         
     2   .000     23  2.500                                                                         
     0   .000     23  2.600                                                                         
     0  1.000     23  2.600                                                                         
     1   .400     23  2.750                                                                         
     1  2.000     23  2.750                                                                         
     3   .000      7   .000                                                                         
  local pseudopotential read in
  partial core-charges read in
  atomic valenz-charges read in
  non local Contribution for L=           2  read in
    real space projection operators read in
  non local Contribution for L=           2  read in
    real space projection operators read in
  non local Contribution for L=           0  read in
    real space projection operators read in
  non local Contribution for L=           0  read in
    real space projection operators read in
  non local Contribution for L=           1  read in
    real space projection operators read in
  non local Contribution for L=           1  read in
    real space projection operators read in
    PAW grid and wavefunctions read in
 
   number of l-projection  operators is LMAX  =           6
   number of lm-projection operators is LMMAX =          18
 
 -----------------------------------------------------------------------------
|                                                                             |
|               ----> ADVICE to this user running VASP <----                  |
|                                                                             |
|     You have a (more or less) 'large supercell' and for larger cells it     |
|     might be more efficient to use real-space projection operators.         |
|     Therefore, try LREAL= Auto in the INCAR file.                           |
|     Mind: If you want to do very accurate calculations, keep the            |
|     reciprocal projection scheme (i.e. LREAL=.FALSE.).                      |
|                                                                             |
 -----------------------------------------------------------------------------

 PAW_PBE Te 08Apr2002                   :
 energy of atom  1       EATOM= -223.2721
 kinetic energy error for atom=    0.0006 (will be added to EATOM!!)
 PAW_PBE Mo 08Apr2002                   :
 energy of atom  2       EATOM= -217.5180
 kinetic energy error for atom=    0.0009 (will be added to EATOM!!)
 
 
 POSCAR: Te Mo
  positions in cartesian coordinates
  No initial velocities read in
 exchange correlation table for  LEXCH =        8
   RHO(1)=    0.500       N(1)  =     2000
   RHO(2)=  100.500       N(2)  =     4000
 


--------------------------------------------------------------------------------------------------------


 ion  position               nearest neighbor table
   1  0.222  0.111  0.683-  40 2.68  37 2.76  41 2.76   4 3.51   2 3.51   7 3.51   3 3.51   5 3.57
                             9 3.57  19 3.65
   2  0.222  0.444  0.683-  41 2.67  38 2.75  42 2.77   8 3.50   5 3.51   3 3.51   1 3.51   6 3.57
                             7 3.58  20 3.64
   3  0.222  0.777  0.683-  42 2.68  39 2.75  40 2.76   9 3.50   2 3.51   6 3.51   1 3.51   8 3.57
                             4 3.59  21 3.64
   4  0.556  0.112  0.683-  43 2.69  44 2.76  40 2.76   7 3.50   5 3.50   1 3.51   6 3.52   8 3.56
                             3 3.59  22 3.65
   5  0.556  0.444  0.683-  44 2.68  41 2.76  45 2.77   4 3.50   2 3.51   8 3.51   6 3.51   9 3.57
                             1 3.57  23 3.65
   6  0.556  0.778  0.683-  45 2.68  42 2.76  43 2.77   9 3.51   3 3.51   5 3.51   4 3.52   7 3.57
                             2 3.57  24 3.64
   7  0.888  0.111  0.683-  37 2.69  43 2.76  38 2.76   4 3.50   8 3.50   1 3.51   9 3.51   6 3.57
                             2 3.58  25 3.65
   8  0.889  0.444  0.683-  38 2.67  44 2.75  39 2.77   7 3.50   2 3.50   5 3.51   9 3.51   4 3.56
                             3 3.57  26 3.65
   9  0.889  0.778  0.683-  39 2.68  45 2.76  37 2.77   3 3.50   6 3.51   7 3.51   8 3.51   5 3.57
                             1 3.57  27 3.65
  10  0.111  0.000  0.438-  48 2.68  54 2.75  46 2.77  16 3.50  11 3.51  12 3.51  13 3.51  18 3.57
                            14 3.57  28 3.66
  11  0.111  0.333  0.438-  46 2.69  52 2.76  47 2.77  17 3.50  10 3.51  14 3.51  12 3.51  16 3.57
                            15 3.57  29 3.65
  12  0.111  0.667  0.438-  47 2.68  53 2.75  48 2.75  18 3.50  10 3.51  15 3.51  11 3.51  13 3.57
                            17 3.57  30 3.64
  13  0.445  0.000  0.438-  51 2.67  48 2.76  49 2.77  16 3.50  14 3.51  10 3.51  15 3.52  12 3.57
                            17 3.57  31 3.64
  14  0.444  0.333  0.438-  49 2.68  46 2.76  50 2.76  15 3.50  17 3.51  13 3.51  11 3.51  10 3.57
                            18 3.57  32 3.65
  15  0.444  0.666  0.438-  50 2.67  47 2.77  51 2.77  14 3.50  18 3.51  12 3.51  13 3.52  11 3.57
                            16 3.58  33 3.66
  16  0.778  0.000  0.438-  54 2.67  51 2.76  52 2.77  10 3.50  13 3.50  17 3.51  18 3.51  11 3.57
                            15 3.58  34 3.65
  17  0.778  0.333  0.438-  52 2.68  49 2.76  53 2.77  11 3.50  14 3.51  18 3.51  16 3.51  13 3.57
                            12 3.57  35 3.64
  18  0.778  0.667  0.438-  53 2.68  50 2.76  54 2.77  12 3.50  15 3.51  17 3.51  16 3.51  10 3.57
                            14 3.57  36 3.66
  19  0.222  0.111  0.562-  41 2.72  37 2.72  40 2.76  22 3.50  25 3.51  20 3.51  21 3.52  23 3.57
                            27 3.57   1 3.65
  20  0.222  0.444  0.562-  42 2.72  38 2.73  41 2.75  21 3.50  23 3.51  26 3.51  19 3.51  24 3.57
                            25 3.57   2 3.64
  21  0.222  0.777  0.562-  39 2.72  40 2.72  42 2.75  24 3.50  20 3.50  27 3.51  19 3.52  26 3.57
                            22 3.57   3 3.64
  22  0.555  0.111  0.562-  44 2.72  40 2.73  43 2.75  19 3.50  25 3.51  23 3.51  24 3.51  21 3.57
                            26 3.58   4 3.65
  23  0.556  0.444  0.562-  45 2.72  41 2.74  44 2.76  26 3.50  20 3.51  22 3.51  24 3.51  19 3.57
                            27 3.57   5 3.65
  24  0.555  0.778  0.562-  43 2.71  42 2.72  45 2.75  21 3.50  22 3.51  27 3.51  23 3.51  20 3.57
                            25 3.58   6 3.64
  25  0.889  0.111  0.562-  38 2.72  43 2.73  37 2.75  22 3.51  19 3.51  27 3.51  26 3.51  20 3.57
                            24 3.58   7 3.65
  26  0.889  0.445  0.562-  39 2.72  44 2.73  38 2.76  23 3.50  27 3.51  20 3.51  25 3.51  21 3.57
                            22 3.58   8 3.65
  27  0.889  0.778  0.562-  37 2.71  45 2.73  39 2.75  26 3.51  25 3.51  21 3.51  24 3.51  19 3.57
                            23 3.57   9 3.65
  28  0.112  0.000  0.317-  46 2.72  54 2.73  48 2.76  31 3.50  29 3.51  34 3.51  30 3.51  32 3.57
                            36 3.57  10 3.66
  29  0.111  0.333  0.317-  47 2.72  52 2.73  46 2.75  35 3.50  28 3.51  32 3.51  30 3.51  33 3.57
                            34 3.58  11 3.65
  30  0.111  0.667  0.317-  48 2.72  53 2.73  47 2.75  33 3.50  36 3.51  28 3.51  29 3.51  35 3.56
                            31 3.57  12 3.64
  31  0.444  1.000  0.317-  49 2.72  48 2.73  51 2.75  28 3.50  32 3.51  34 3.51  33 3.51  30 3.57
                            35 3.58  13 3.64
  32  0.445  0.333  0.317-  50 2.73  46 2.73  49 2.75  35 3.51  31 3.51  29 3.51  33 3.51  28 3.57
                            36 3.58  14 3.65
  33  0.444  0.667  0.317-  51 2.73  47 2.73  50 2.76  30 3.50  31 3.51  36 3.51  32 3.51  34 3.57
                            29 3.57  15 3.66
  34  0.778  0.999  0.317-  51 2.73  52 2.73  54 2.75  36 3.50  28 3.51  31 3.51  35 3.52  33 3.57
                            29 3.58  16 3.65
  35  0.779  0.334  0.317-  53 2.71  49 2.73  52 2.75  29 3.50  32 3.51  36 3.51  34 3.52  30 3.56
                            31 3.58  17 3.64
  36  0.778  0.667  0.317-  54 2.73  50 2.74  53 2.76  34 3.50  30 3.51  33 3.51  35 3.51  28 3.57
                            32 3.58  18 3.66
  37  0.000  1.000  0.622-   7 2.69  27 2.71  19 2.72  25 2.75   1 2.76   9 2.77
  38  1.000  0.333  0.622-   8 2.67  25 2.72  20 2.73   2 2.75  26 2.76   7 2.76
  39  0.000  0.667  0.622-   9 2.68  26 2.72  21 2.72   3 2.75  27 2.75   8 2.77
  40  0.333  1.000  0.622-   1 2.68  21 2.72  22 2.73  19 2.76   4 2.76   3 2.76
  41  0.332  0.333  0.622-   2 2.67  19 2.72  23 2.74  20 2.75   1 2.76   5 2.76
  42  0.333  0.667  0.622-   3 2.68  24 2.72  20 2.72  21 2.75   6 2.76   2 2.77
  43  0.666  0.999  0.622-   4 2.69  24 2.71  25 2.73  22 2.75   7 2.76   6 2.77
  44  0.667  0.333  0.622-   5 2.68  22 2.72  26 2.73   8 2.75  23 2.76   4 2.76
  45  0.667  0.667  0.622-   6 2.68  23 2.72  27 2.73  24 2.75   9 2.76   5 2.77
  46  0.223  0.222  0.378-  11 2.69  28 2.72  32 2.73  29 2.75  14 2.76  10 2.77
  47  0.222  0.555  0.377-  12 2.68  29 2.72  33 2.73  30 2.75  15 2.77  11 2.77
  48  0.222  0.888  0.378-  10 2.68  30 2.72  31 2.73  12 2.75  28 2.76  13 2.76
  49  0.556  0.222  0.378-  14 2.68  31 2.72  35 2.73  32 2.75  17 2.76  13 2.77
  50  0.556  0.556  0.378-  15 2.67  32 2.73  36 2.74  18 2.76  33 2.76  14 2.76
  51  0.555  0.889  0.378-  13 2.67  33 2.73  34 2.73  31 2.75  16 2.76  15 2.77
  52  0.889  0.222  0.378-  17 2.68  34 2.73  29 2.73  35 2.75  11 2.76  16 2.77
  53  0.889  0.556  0.378-  18 2.68  35 2.71  30 2.73  12 2.75  36 2.76  17 2.77
  54  0.889  0.890  0.378-  16 2.67  36 2.73  28 2.73  34 2.75  10 2.75  18 2.77
 

IMPORTANT INFORMATION: All symmetrisations will be switched off!
NOSYMM: (Re-)initialisation of all symmetry stuff for point group C_1.


----------------------------------------------------------------------------------------

                                     Primitive cell                                     

  volume of cell :    2925.6879

  direct lattice vectors                    reciprocal lattice vectors
    10.518106443  0.000000000  0.000000000     0.095074147  0.052239973 -0.001230133
    -5.070821653  9.228642744  0.000000000     0.000000000  0.108358296  0.001832249
     0.670016747 -0.509653287 30.140648688     0.000000000  0.000000000  0.033177786

  length of vectors
    10.518106443 10.530008506 30.152402430     0.108487886  0.108373786  0.033177786

  position of ions in fractional coordinates (direct lattice)
     0.222190492  0.111093530  0.682798889
     0.222152179  0.444374600  0.682730712
     0.221569732  0.777233210  0.682723569
     0.556046707  0.111861811  0.682887150
     0.555582996  0.444452767  0.682777960
     0.555552838  0.777797901  0.682784853
     0.888159863  0.110865502  0.682852913
     0.888936409  0.443728534  0.682769873
     0.889000306  0.777529630  0.682872910
     0.110739202  0.000063015  0.438297028
     0.110548020  0.333082560  0.438293640
     0.111172873  0.667130853  0.437989967
     0.444751474  0.000053919  0.438036454
     0.444467962  0.333152060  0.438070164
     0.444375840  0.665831797  0.438167044
     0.777789148  0.000012340  0.438155151
     0.777923010  0.333388315  0.438054553
     0.778142577  0.666629480  0.438251701
     0.222452787  0.111134104  0.561861850
     0.222216369  0.444473203  0.561881107
     0.222191915  0.777159131  0.562067174
     0.555330839  0.110981218  0.561956965
     0.555662303  0.444341188  0.561840433
     0.555021230  0.777595198  0.561958222
     0.888960652  0.111271616  0.561917393
     0.888800452  0.444900570  0.561807729
     0.888973092  0.778061264  0.561928331
     0.111709703  0.000423617  0.317038270
     0.111256744  0.333205418  0.317083446
     0.111289315  0.666789261  0.317185828
     0.444439465  0.999991656  0.317217207
     0.444795493  0.333221086  0.316996946
     0.444163668  0.666630250  0.316936993
     0.777576689  0.999087759  0.317134794
     0.778636042  0.334208820  0.317324428
     0.778132703  0.667266266  0.316965334
     0.000403395  0.999779045  0.622154683
     0.999648833  0.332886184  0.622499134
     0.000270087  0.666781738  0.622287703
     0.333209913  0.999514825  0.622466301
     0.332356223  0.332689225  0.622416821
     0.333465143  0.666777787  0.622369726
     0.666315563  0.999398146  0.622176263
     0.666722187  0.333099769  0.622430729
     0.666695231  0.666672114  0.622357422
     0.222541270  0.222380807  0.377608589
     0.221693869  0.555318685  0.377441238
     0.221665151  0.888197749  0.377756115
     0.555801881  0.222201788  0.377588208
     0.555643881  0.555712352  0.377827012
     0.555491258  0.888734401  0.377692533
     0.888901389  0.222258522  0.377621318
     0.889209896  0.555739145  0.377637009
     0.889142111  0.889862926  0.377743442

  ion indices of the primitive-cell ions
   primitive index   ion index
                 1           1
                 2           2
                 3           3
                 4           4
                 5           5
                 6           6
                 7           7
                 8           8
                 9           9
                10          10
                11          11
                12          12
                13          13
                14          14
                15          15
                16          16
                17          17
                18          18
                19          19
                20          20
                21          21
                22          22
                23          23
                24          24
                25          25
                26          26
                27          27
                28          28
                29          29
                30          30
                31          31
                32          32
                33          33
                34          34
                35          35
                36          36
                37          37
                38          38
                39          39
                40          40
                41          41
                42          42
                43          43
                44          44
                45          45
                46          46
                47          47
                48          48
                49          49
                50          50
                51          51
                52          52
                53          53
                54          54

----------------------------------------------------------------------------------------

 
 

Automatic generation of k-mesh.
 generate k-points for:    3    3    1
Space group operators:
 irot       det(A)        alpha          n_x          n_y          n_z        tau_x        tau_y        tau_z
    1     1.000000     0.000000     1.000000     0.000000     0.000000     0.000000     0.000000     0.000000
 
 Subroutine IBZKPT returns following result:
 ===========================================
 
 Found      5 irreducible k-points:
 
 Following reciprocal coordinates:
            Coordinates               Weight
  0.000000  0.000000  0.000000      1.000000
  0.333333  0.000000  0.000000      2.000000
  0.000000  0.333333 -0.000000      2.000000
  0.333333  0.333333  0.000000      2.000000
 -0.333333  0.333333  0.000000      2.000000
 
 Following cartesian coordinates:
            Coordinates               Weight
  0.000000  0.000000  0.000000      1.000000
  0.031691  0.017413 -0.000410      2.000000
  0.000000  0.036119  0.000611      2.000000
  0.031691  0.053533  0.000201      2.000000
 -0.031691  0.018706  0.001021      2.000000
 


--------------------------------------------------------------------------------------------------------




 Dimension of arrays:
   k-points           NKPTS =      5   k-points in BZ     NKDIM =      5   number of bands    NBANDS=    200
   number of dos      NEDOS =    301   number of ions     NIONS =     54
   non local maximal  LDIM  =      6   non local SUM 2l+1 LMDIM =     18
   total plane-waves  NPLWV = ******
   max r-space proj   IRMAX =      1   max aug-charges    IRDMAX=  35588
   dimension x,y,z NGX =    80 NGY =   84 NGZ =  240
   dimension x,y,z NGXF=   160 NGYF=  168 NGZF=  480
   support grid    NGXF=   160 NGYF=  168 NGZF=  480
   ions per type =              36  18
   NGX,Y,Z   is equivalent  to a cutoff of  12.64, 13.26, 13.23 a.u.
   NGXF,Y,Z  is equivalent  to a cutoff of  25.29, 26.52, 26.46 a.u.

 SYSTEM =  dpgen_md                                
 POSCAR =  Te Mo                                   

 Startparameter for this run:
   NWRITE =      2    write-flag & timer
   PREC   = a         normal or accurate (medium, high low for compatibility)
   ISTART =      0    job   : 0-new  1-cont  2-samecut
   ICHARG =      2    charge: 1-file 2-atom 10-const
   ISPIN  =      1    spin polarized calculation?
   LNONCOLLINEAR =      F non collinear calculations
   LSORBIT =      F    spin-orbit coupling
   INIWAV =      1    electr: 0-lowe 1-rand  2-diag
   LASPH  =      F    aspherical Exc in radial PAW
   METAGGA=      F    non-selfconsistent MetaGGA calc.

 Electronic Relaxation 1
   ENCUT  =  550.0 eV  40.42 Ry    6.36 a.u.  20.11 20.14 57.66*2*pi/ulx,y,z
   ENINI  =  550.0     initial cutoff
   ENAUG  =  368.8 eV  augmentation charge cutoff
   NELM   =    100;   NELMIN=  6; NELMDL= -5     # of ELM steps 
   EDIFF  = 0.1E-05   stopping-criterion for ELM
   LREAL  =      F    real-space projection
   NLSPLINE    = F    spline interpolate recip. space projectors
   LCOMPAT=      F    compatible to vasp.4.4
   GGA_COMPAT  = T    GGA compatible to vasp.4.4-vasp.4.6
   LMAXPAW     = -100 max onsite density
   LMAXMIX     =    2 max onsite mixed and CHGCAR
   VOSKOWN=      0    Vosko Wilk Nusair interpolation
   ROPT   =    0.00000   0.00000
 Ionic relaxation
   EDIFFG = 0.1E-04   stopping-criterion for IOM
   NSW    =     10    number of steps for IOM
   NBLOCK =      1;   KBLOCK =      1    inner block; outer block 
   IBRION =      0    ionic relax: 0-MD 1-quasi-New 2-CG
   NFREE  =      0    steps in history (QN), initial steepest desc. (CG)
   ISIF   =      2    stress and relaxation
   IWAVPR =     11    prediction:  0-non 1-charg 2-wave 3-comb
   ISYM   =      0    0-nonsym 1-usesym 2-fastsym
   LCORR  =      T    Harris-Foulkes like correction to forces

   POTIM  = 2.0000    time-step for ionic-motion
   TEIN   =  100.0    initial temperature
   TEBEG  =  100.0;   TEEND  = 100.0 temperature during run
   SMASS  =   0.04    Nose mass-parameter (am)
   estimated Nose-frequenzy (Omega)   =  0.79E+14 period in steps = 0.40E+02 mass=   0.327E-28a.u.
   SCALEE = 1.0000    scale energy and forces
   NPACO  =    256;   APACO  = 16.0  distance and # of slots for P.C.
   PSTRESS=    0.0 pullay stress

  Mass of Ions in am
   POMASS = 127.60 95.94
  Ionic Valenz
   ZVAL   =   6.00  6.00
  Atomic Wigner-Seitz radii
   RWIGS  =  -1.00 -1.00
  virtual crystal weights 
   VCA    =   1.00  1.00
   NELECT =     324.0000    total number of electrons
   NUPDOWN=      -1.0000    fix difference up-down

 DOS related values:
   EMIN   =  10.00;   EMAX   =-10.00  energy-range for DOS
   EFERMI =   0.00
   ISMEAR =     0;   SIGMA  =   0.10  broadening in eV -4-tet -1-fermi 0-gaus

 Electronic relaxation 2 (details)
   IALGO  =     68    algorithm
   LDIAG  =      T    sub-space diagonalisation (order eigenvalues)
   LSUBROT=      F    optimize rotation matrix (better conditioning)
   TURBO    =      0    0=normal 1=particle mesh
   IRESTART =      0    0=no restart 2=restart with 2 vectors
   NREBOOT  =      0    no. of reboots
   NMIN     =      0    reboot dimension
   EREF     =   0.00    reference energy to select bands
   IMIX   =      4    mixing-type and parameters
     AMIX     =   0.40;   BMIX     =  1.00
     AMIX_MAG =   1.60;   BMIX_MAG =  1.00
     AMIN     =   0.10
     WC   =   100.;   INIMIX=   1;  MIXPRE=   1;  MAXMIX= -45

 Intra band minimization:
   WEIMIN = 0.0010     energy-eigenvalue tresh-hold
   EBREAK =  0.13E-08  absolut break condition
   DEPER  =   0.30     relativ break condition  

   TIME   =   0.40     timestep for ELM

  volume/ion in A,a.u.               =      54.18       365.62
  Fermi-wavevector in a.u.,A,eV,Ry     =   0.786165  1.485637  8.409159  0.618056
  Thomas-Fermi vector in A             =   1.890649
 
 Write flags
   LWAVE        =      F    write WAVECAR
   LDOWNSAMPLE  =      F    k-point downsampling of WAVECAR
   LCHARG       =      F    write CHGCAR
   LVTOT        =      F    write LOCPOT, total local potential
   LVHAR        =      F    write LOCPOT, Hartree potential only
   LELF         =      F    write electronic localiz. function (ELF)
   LORBIT       =      0    0 simple, 1 ext, 2 COOP (PROOUT), +10 PAW based schemes


 Dipole corrections
   LMONO  =      F    monopole corrections only (constant potential shift)
   LDIPOL =      F    correct potential (dipole corrections)
   IDIPOL =      0    1-x, 2-y, 3-z, 4-all directions 
   EPSILON=  1.0000000 bulk dielectric constant

 Exchange correlation treatment:
   GGA     =    --    GGA type
   LEXCH   =     8    internal setting for exchange type
   VOSKOWN=      0    Vosko Wilk Nusair interpolation
   LHFCALC =     F    Hartree Fock is set to
   LHFONE  =     F    Hartree Fock one center treatment
   AEXX    =    0.0000 exact exchange contribution

 Linear response parameters
   LEPSILON=     F    determine dielectric tensor
   LRPA    =     F    only Hartree local field effects (RPA)
   LNABLA  =     F    use nabla operator in PAW spheres
   LVEL    =     F    velocity operator in full k-point grid
   LINTERFAST=   F  fast interpolation
   KINTER  =     0    interpolate to denser k-point grid
   CSHIFT  =0.1000    complex shift for real part using Kramers Kronig
   OMEGAMAX=  -1.0    maximum frequency
   DEG_THRESHOLD= 0.2000000E-02 threshold for treating states as degnerate
   RTIME   =   -0.100 relaxation time in fs
  (WPLASMAI=    0.000 imaginary part of plasma frequency in eV, 0.658/RTIME)
   DFIELD  = 0.0000000 0.0000000 0.0000000 field for delta impulse in time
 
 Orbital magnetization related:
   ORBITALMAG=     F  switch on orbital magnetization
   LCHIMAG   =     F  perturbation theory with respect to B field
   DQ        =  0.001000  dq finite difference perturbation B field
   LLRAUG    =     F  two centre corrections for induced B field



--------------------------------------------------------------------------------------------------------


 molecular dynamics for ions
   using nose mass (canonical ensemble)
 charge density and potential will be updated during run
 non-spin polarized calculation
 RMM-DIIS sequential band-by-band and
  variant of blocked Davidson during initial phase
 perform sub-space diagonalisation
    before iterative eigenvector-optimisation
 modified Broyden-mixing scheme, WC =      100.0
 initial mixing is a Kerker type mixing with AMIX =  0.4000 and BMIX =      1.0000
 Hartree-type preconditioning will be used
 using additional bands           38
 reciprocal scheme for non local part
 use partial core corrections
 calculate Harris-corrections to forces 
   (improved forces if not selfconsistent)
 use gradient corrections 
 use of overlap-Matrix (Vanderbilt PP)
 Gauss-broadening in eV      SIGMA  =   0.10


--------------------------------------------------------------------------------------------------------


  energy-cutoff  :      550.00
  volume of cell :     2925.69
      direct lattice vectors                 reciprocal lattice vectors
    10.518106443  0.000000000  0.000000000     0.095074147  0.052239973 -0.001230133
    -5.070821653  9.228642744  0.000000000     0.000000000  0.108358296  0.001832249
     0.670016747 -0.509653287 30.140648688     0.000000000  0.000000000  0.033177786

  length of vectors
    10.518106443 10.530008506 30.152402430     0.108487886  0.108373786  0.033177786


 
 k-points in units of 2pi/SCALE and weight: read from INCAR                         
   0.00000000  0.00000000  0.00000000       0.111
   0.03169138  0.01741332 -0.00041004       0.222
   0.00000000  0.03611943  0.00061075       0.222
   0.03169138  0.05353276  0.00020071       0.222
  -0.03169138  0.01870611  0.00102079       0.222
 
 k-points in reciprocal lattice and weights: read from INCAR                         
   0.00000000  0.00000000  0.00000000       0.111
   0.33333333  0.00000000  0.00000000       0.222
   0.00000000  0.33333333 -0.00000000       0.222
   0.33333333  0.33333333  0.00000000       0.222
  -0.33333333  0.33333333  0.00000000       0.222
 
 position of ions in fractional coordinates (direct lattice) 
   0.22219049  0.11109353  0.68279889
   0.22215218  0.44437460  0.68273071
   0.22156973  0.77723321  0.68272357
   0.55604671  0.11186181  0.68288715
   0.55558300  0.44445277  0.68277796
   0.55555284  0.77779790  0.68278485
   0.88815986  0.11086550  0.68285291
   0.88893641  0.44372853  0.68276987
   0.88900031  0.77752963  0.68287291
   0.11073920  0.00006302  0.43829703
   0.11054802  0.33308256  0.43829364
   0.11117287  0.66713085  0.43798997
   0.44475147  0.00005392  0.43803645
   0.44446796  0.33315206  0.43807016
   0.44437584  0.66583180  0.43816704
   0.77778915  0.00001234  0.43815515
   0.77792301  0.33338831  0.43805455
   0.77814258  0.66662948  0.43825170
   0.22245279  0.11113410  0.56186185
   0.22221637  0.44447320  0.56188111
   0.22219191  0.77715913  0.56206717
   0.55533084  0.11098122  0.56195696
   0.55566230  0.44434119  0.56184043
   0.55502123  0.77759520  0.56195822
   0.88896065  0.11127162  0.56191739
   0.88880045  0.44490057  0.56180773
   0.88897309  0.77806126  0.56192833
   0.11170970  0.00042362  0.31703827
   0.11125674  0.33320542  0.31708345
   0.11128932  0.66678926  0.31718583
   0.44443947  0.99999166  0.31721721
   0.44479549  0.33322109  0.31699695
   0.44416367  0.66663025  0.31693699
   0.77757669  0.99908776  0.31713479
   0.77863604  0.33420882  0.31732443
   0.77813270  0.66726627  0.31696533
   0.00040339  0.99977904  0.62215468
   0.99964883  0.33288618  0.62249913
   0.00027009  0.66678174  0.62228770
   0.33320991  0.99951482  0.62246630
   0.33235622  0.33268922  0.62241682
   0.33346514  0.66677779  0.62236973
   0.66631556  0.99939815  0.62217626
   0.66672219  0.33309977  0.62243073
   0.66669523  0.66667211  0.62235742
   0.22254127  0.22238081  0.37760859
   0.22169387  0.55531868  0.37744124
   0.22166515  0.88819775  0.37775612
   0.55580188  0.22220179  0.37758821
   0.55564388  0.55571235  0.37782701
   0.55549126  0.88873440  0.37769253
   0.88890139  0.22225852  0.37762132
   0.88920990  0.55573914  0.37763701
   0.88914211  0.88986293  0.37774344
 
 position of ions in cartesian coordinates  (Angst):
   2.23117446  0.67725180 20.58000142
   0.54071694  3.75301848 20.57794653
  -1.15328074  6.82485531 20.57773125
   5.73887299  0.68429701 20.58266169
   4.04741305  3.75371577 20.57937063
   2.35676674  6.83003541 20.57957839
   9.23710368  0.67511988 20.58162975
   7.55732676  3.74703621 20.57912688
   5.86542204  6.82751476 20.58223248
   1.45811352 -0.22279798 13.21055674
  -0.23258234  2.85052216 13.21045462
  -1.92011285  5.93348928 13.20130173
   4.97116169 -0.22274912 13.20270287
   3.27912100  2.85127745 13.20371892
   1.59125735  5.92141051 13.20663895
   8.47437776 -0.22319333 13.20628047
   6.78522823  2.85346571 13.20324839
   5.09786323  5.92872889 13.20919056
   2.15269772  0.73926220 16.93488063
   0.45992083  3.81551985 16.93546105
  -1.22720272  6.88566459 16.94106923
   5.65478349  0.73780280 16.93774745
   3.96778283  3.81432226 16.93423510
   2.27124723  6.88974443 16.93778536
   9.16243831  0.74050295 16.93655472
   7.46890690  3.81950127 16.93324939
   5.78140510  6.89406082 16.93688442
   1.38524741 -0.15767019  9.55573910
  -0.30696375  2.91343114  9.55710074
  -1.99809674  5.99190507  9.56018662
  -0.18357690  9.06689495  9.56113241
   3.20109490  2.91361982  9.55449359
   1.50375073  5.99056444  9.55268657
   3.32492417  9.05859521  9.55864841
   6.70767613  2.92256836  9.56436411
   5.01326645  5.99641956  9.55354079
  -4.64860422  8.90952045 18.75214572
   9.24349120  2.75482894 18.76252772
  -2.96134729  5.83633948 18.75615505
  -1.14656124  8.90692324 18.76153810
   2.22578010  2.75305322 18.76004675
   0.54330877  5.83626121 18.75862727
   2.35747677  8.90599427 18.75279617
   5.74060443  2.75683490 18.76046594
   4.04878591  5.83529226 18.75825641
   1.46606343  1.85982357 11.38136784
  -0.23123035  4.93247359 11.37632375
  -1.91929181  8.00433507 11.38581436
   4.97222813  1.85818185 11.38075353
   3.27955368  4.93590999 11.38795124
   1.58916286  8.00932004 11.38389796
   8.47553871  1.85868855 11.38175147
   6.78777337  4.93625408 11.38222442
   5.09284961  8.01970885 11.38543237
 


--------------------------------------------------------------------------------------------------------


 k-point   1 :   0.0000 0.0000 0.0000  plane waves:   85665
 k-point   2 :   0.3333 0.0000 0.0000  plane waves:   85708
 k-point   3 :   0.0000 0.3333-0.0000  plane waves:   85675
 k-point   4 :   0.3333 0.3333 0.0000  plane waves:   85722
 k-point   5 :  -0.3333 0.3333 0.0000  plane waves:   85735

 maximum and minimum number of plane-waves per node :     85735    85665

 maximum number of plane-waves:     85735
 maximum index in each direction: 
   IXMAX=   20   IYMAX=   20   IZMAX=   57
   IXMIN=  -20   IYMIN=  -20   IZMIN=  -57


 serial   3D FFT for wavefunctions
 parallel 3D FFT for charge:
    minimum data exchange during FFTs selected (reduces bandwidth)


 total amount of memory used by VASP MPI-rank0   363172. kBytes
=======================================================================

   base      :      30000. kBytes
   nonl-proj :     197591. kBytes
   fftplans  :      17372. kBytes
   grid      :      82746. kBytes
   one-center:        839. kBytes
   wavefun   :      34624. kBytes
 
     INWAV:  cpu time    0.0000: real time    0.0000
 Broyden mixing: mesh for mixing (old mesh)
   NGX = 41   NGY = 41   NGZ =115
  (NGX  =160   NGY  =168   NGZ  =480)
  gives a total of 193315 points

 initial charge density was supplied:
 charge density of overlapping atoms calculated
 number of electron     324.0000000 magnetization 
 keeping initial charge density in first step


--------------------------------------------------------------------------------------------------------


 Maximum index for augmentation-charges         1208 (set IRDMAX)


--------------------------------------------------------------------------------------------------------


 First call to EWALD:  gamma=   0.124
 Maximum number of real-space cells 4x 4x 2
 Maximum number of reciprocal cells 2x 2x 5

    FEWALD:  cpu time    0.0022: real time    0.0022


--------------------------------------- Iteration      1(   1)  ---------------------------------------


    POTLOK:  cpu time    0.3052: real time    0.3067
    SETDIJ:  cpu time    0.0113: real time    0.0113
     EDDAV:  cpu time   49.0864: real time   49.1754
       DOS:  cpu time    0.0009: real time    0.0010
    --------------------------------------------
      LOOP:  cpu time   49.4038: real time   49.4945

 eigenvalue-minimisations  :  2000
 total energy-change (2. order) : 0.2103162E+04  (-0.1150896E+05)
 number of electron     324.0000000 magnetization 
 augmentation part      324.0000000 magnetization 

 Free energy of the ion-electron system (eV)
  ---------------------------------------------------
  alpha Z        PSCENC =       245.29827220
  Ewald energy   TEWEN  =     59990.32095232
  -Hartree energ DENC   =    -71669.78999458
  -exchange      EXHF   =         0.00000000
  -V(xc)+E(xc)   XCENC  =     -2101.75491243
  PAW double counting   =      7476.04436201    -4809.59211051
  entropy T*S    EENTRO =        -0.13946555
  eigenvalues    EBANDS =      1019.69247525
  atomic energy  EATOM  =     11953.08265402
  Solvation  Ediel_sol  =         0.00000000
  ---------------------------------------------------
  free energy    TOTEN  =      2103.16223273 eV

  energy without entropy =     2103.30169828  energy(sigma->0) =     2103.23196551


--------------------------------------------------------------------------------------------------------




--------------------------------------- Iteration      1(   2)  ---------------------------------------


     EDDAV:  cpu time   67.8622: real time   67.9984
       DOS:  cpu time    0.0006: real time    0.0006
    --------------------------------------------
      LOOP:  cpu time   67.8628: real time   67.9990

 eigenvalue-minimisations  :  3000
 total energy-change (2. order) :-0.2195182E+04  (-0.2126492E+04)
 number of electron     324.0000000 magnetization 
 augmentation part      324.0000000 magnetization 

 Free energy of the ion-electron system (eV)
  ---------------------------------------------------
  alpha Z        PSCENC =       245.29827220
  Ewald energy   TEWEN  =     59990.32095232
  -Hartree energ DENC   =    -71669.78999458
  -exchange      EXHF   =         0.00000000
  -V(xc)+E(xc)   XCENC  =     -2101.75491243
  PAW double counting   =      7476.04436201    -4809.59211051
  entropy T*S    EENTRO =        -0.01850337
  eigenvalues    EBANDS =     -1175.61046841
  atomic energy  EATOM  =     11953.08265402
  Solvation  Ediel_sol  =         0.00000000
  ---------------------------------------------------
  free energy    TOTEN  =       -92.01974875 eV

  energy without entropy =      -92.00124538  energy(sigma->0) =      -92.01049706


--------------------------------------------------------------------------------------------------------




--------------------------------------- Iteration      1(   3)  ---------------------------------------


     EDDAV:  cpu time   60.0145: real time   60.1283
       DOS:  cpu time    0.0004: real time    0.0004
    --------------------------------------------
      LOOP:  cpu time   60.0149: real time   60.1287

 eigenvalue-minimisations  :  2560
 total energy-change (2. order) :-0.2331107E+03  (-0.2296738E+03)
 number of electron     324.0000000 magnetization 
 augmentation part      324.0000000 magnetization 

 Free energy of the ion-electron system (eV)
  ---------------------------------------------------
  alpha Z        PSCENC =       245.29827220
  Ewald energy   TEWEN  =     59990.32095232
  -Hartree energ DENC   =    -71669.78999458
  -exchange      EXHF   =         0.00000000
  -V(xc)+E(xc)   XCENC  =     -2101.75491243
  PAW double counting   =      7476.04436201    -4809.59211051
  entropy T*S    EENTRO =        -0.00000000
  eigenvalues    EBANDS =     -1408.73964819
  atomic energy  EATOM  =     11953.08265402
  Solvation  Ediel_sol  =         0.00000000
  ---------------------------------------------------
  free energy    TOTEN  =      -325.13042515 eV

  energy without entropy =     -325.13042515  energy(sigma->0) =     -325.13042515


--------------------------------------------------------------------------------------------------------




--------------------------------------- Iteration      1(   4)  ---------------------------------------


     EDDAV:  cpu time   69.0074: real time   69.1458
       DOS:  cpu time    0.0004: real time    0.0004
    --------------------------------------------
      LOOP:  cpu time   69.0078: real time   69.1462

 eigenvalue-minimisations  :  3040
 total energy-change (2. order) :-0.1107390E+02  (-0.1098460E+02)
 number of electron     324.0000000 magnetization 
 augmentation part      324.0000000 magnetization 

 Free energy of the ion-electron system (eV)
  ---------------------------------------------------
  alpha Z        PSCENC =       245.29827220
  Ewald energy   TEWEN  =     59990.32095232
  -Hartree energ DENC   =    -71669.78999458
  -exchange      EXHF   =         0.00000000
  -V(xc)+E(xc)   XCENC  =     -2101.75491243
  PAW double counting   =      7476.04436201    -4809.59211051
  entropy T*S    EENTRO =        -0.00000000
  eigenvalues    EBANDS =     -1419.81355215
  atomic energy  EATOM  =     11953.08265402
  Solvation  Ediel_sol  =         0.00000000
  ---------------------------------------------------
  free energy    TOTEN  =      -336.20432911 eV

  energy without entropy =     -336.20432911  energy(sigma->0) =     -336.20432911


--------------------------------------------------------------------------------------------------------




--------------------------------------- Iteration      1(   5)  ---------------------------------------


     EDDAV:  cpu time   68.2255: real time   68.3611
       DOS:  cpu time    0.0004: real time    0.0004
    CHARGE:  cpu time    1.1509: real time    1.1566
    MIXING:  cpu time    0.0073: real time    0.0076
    --------------------------------------------
      LOOP:  cpu time   69.3841: real time   69.5257

 eigenvalue-minimisations  :  3000
 total energy-change (2. order) :-0.3600979E+00  (-0.3592441E+00)
 number of electron     324.0000000 magnetization 
 augmentation part      -25.6672350 magnetization 

 Broyden mixing:
  rms(total) = 0.19280E+01    rms(broyden)= 0.19280E+01
  rms(prec ) = 0.20407E+01
  weight for this iteration     100.00

 Free energy of the ion-electron system (eV)
  ---------------------------------------------------
  alpha Z        PSCENC =       245.29827220
  Ewald energy   TEWEN  =     59990.32095232
  -Hartree energ DENC   =    -71669.78999458
  -exchange      EXHF   =         0.00000000
  -V(xc)+E(xc)   XCENC  =     -2101.75491243
  PAW double counting   =      7476.04436201    -4809.59211051
  entropy T*S    EENTRO =        -0.00000000
  eigenvalues    EBANDS =     -1420.17365006
  atomic energy  EATOM  =     11953.08265402
  Solvation  Ediel_sol  =         0.00000000
  ---------------------------------------------------
  free energy    TOTEN  =      -336.56442702 eV

  energy without entropy =     -336.56442702  energy(sigma->0) =     -336.56442702


--------------------------------------------------------------------------------------------------------




--------------------------------------- Iteration      1(   6)  ---------------------------------------


    POTLOK:  cpu time    0.2701: real time    0.2703
    SETDIJ:  cpu time    0.0110: real time    0.0110
    EDDIAG:  cpu time    2.5028: real time    2.5080
  RMM-DIIS:  cpu time   42.4805: real time   42.5843
    ORTHCH:  cpu time    0.2155: real time    0.2157
       DOS:  cpu time    0.0004: real time    0.0004
    CHARGE:  cpu time    1.1481: real time    1.1491
    MIXING:  cpu time    0.0070: real time    0.0071
    --------------------------------------------
      LOOP:  cpu time   46.6353: real time   46.7459

 eigenvalue-minimisations  :  2141
 total energy-change (2. order) : 0.8983631E+01  (-0.5762184E+01)
 number of electron     324.0000000 magnetization 
 augmentation part      -19.8579243 magnetization 

 Broyden mixing:
  rms(total) = 0.71489E+00    rms(broyden)= 0.71488E+00
  rms(prec ) = 0.83337E+00
  weight for this iteration     100.00

 eigenvalues of (default mixing * dielectric matrix)
  average eigenvalue GAMMA=   1.0253
  1.0253

 Free energy of the ion-electron system (eV)
  ---------------------------------------------------
  alpha Z        PSCENC =       245.29827220
  Ewald energy   TEWEN  =     59990.32095232
  -Hartree energ DENC   =    -71644.70637713
  -exchange      EXHF   =         0.00000000
  -V(xc)+E(xc)   XCENC  =     -2095.22418049
  PAW double counting   =      7663.95480933    -5008.71188328
  entropy T*S    EENTRO =        -0.00000000
  eigenvalues    EBANDS =     -1431.59504294
  atomic energy  EATOM  =     11953.08265402
  Solvation  Ediel_sol  =         0.00000000
  ---------------------------------------------------
  free energy    TOTEN  =      -327.58079597 eV

  energy without entropy =     -327.58079597  energy(sigma->0) =     -327.58079597


--------------------------------------------------------------------------------------------------------




--------------------------------------- Iteration      1(   7)  ---------------------------------------


    POTLOK:  cpu time    0.2671: real time    0.2691
    SETDIJ:  cpu time    0.0100: real time    0.0100
    EDDIAG:  cpu time    2.5564: real time    2.5609
  RMM-DIIS:  cpu time   39.8038: real time   39.9016
    ORTHCH:  cpu time    0.2182: real time    0.2185
       DOS:  cpu time    0.0005: real time    0.0005
    CHARGE:  cpu time    1.1542: real time    1.1552
    MIXING:  cpu time    0.0080: real time    0.0080
    --------------------------------------------
      LOOP:  cpu time   44.0182: real time   44.1236

 eigenvalue-minimisations  :  2010
 total energy-change (2. order) : 0.3391077E+01  (-0.1101974E+01)
 number of electron     324.0000000 magnetization 
 augmentation part      -21.7783339 magnetization 

 Broyden mixing:
  rms(total) = 0.47558E+00    rms(broyden)= 0.47557E+00
  rms(prec ) = 0.50448E+00
  weight for this iteration     100.00

 eigenvalues of (default mixing * dielectric matrix)
  average eigenvalue GAMMA=   1.4725
  0.7281  2.2169

 Free energy of the ion-electron system (eV)
  ---------------------------------------------------
  alpha Z        PSCENC =       245.29827220
  Ewald energy   TEWEN  =     59990.32095232
  -Hartree energ DENC   =    -71732.06712089
  -exchange      EXHF   =         0.00000000
  -V(xc)+E(xc)   XCENC  =     -2094.05748186
  PAW double counting   =      7944.23450558    -5293.74478782
  entropy T*S    EENTRO =        -0.00000000
  eigenvalues    EBANDS =     -1337.25671286
  atomic energy  EATOM  =     11953.08265402
  Solvation  Ediel_sol  =         0.00000000
  ---------------------------------------------------
  free energy    TOTEN  =      -324.18971932 eV

  energy without entropy =     -324.18971932  energy(sigma->0) =     -324.18971932


--------------------------------------------------------------------------------------------------------




--------------------------------------- Iteration      1(   8)  ---------------------------------------


    POTLOK:  cpu time    0.2693: real time    0.2696
    SETDIJ:  cpu time    0.0110: real time    0.0110
    EDDIAG:  cpu time    2.4994: real time    2.5020
  RMM-DIIS:  cpu time   39.8888: real time   39.9788
    ORTHCH:  cpu time    0.2176: real time    0.2178
       DOS:  cpu time    0.0004: real time    0.0004
    CHARGE:  cpu time    1.1565: real time    1.1575
    MIXING:  cpu time    0.0062: real time    0.0084
    --------------------------------------------
      LOOP:  cpu time   44.0492: real time   44.1456

 eigenvalue-minimisations  :  2021
 total energy-change (2. order) : 0.4555758E+00  (-0.8250720E+00)
 number of electron     324.0000000 magnetization 
 augmentation part      -21.6451898 magnetization 

 Broyden mixing:
  rms(total) = 0.14040E+00    rms(broyden)= 0.14040E+00
  rms(prec ) = 0.16348E+00
  weight for this iteration     100.00

 eigenvalues of (default mixing * dielectric matrix)
  average eigenvalue GAMMA=   1.2768
  2.1159  0.8573  0.8573

 Free energy of the ion-electron system (eV)
  ---------------------------------------------------
  alpha Z        PSCENC =       245.29827220
  Ewald energy   TEWEN  =     59990.32095232
  -Hartree energ DENC   =    -71793.52525663
  -exchange      EXHF   =         0.00000000
  -V(xc)+E(xc)   XCENC  =     -2090.14530742
  PAW double counting   =      8250.41579932    -5606.27248188
  entropy T*S    EENTRO =        -0.00000000
  eigenvalues    EBANDS =     -1272.90877545
  atomic energy  EATOM  =     11953.08265402
  Solvation  Ediel_sol  =         0.00000000
  ---------------------------------------------------
  free energy    TOTEN  =      -323.73414352 eV

  energy without entropy =     -323.73414352  energy(sigma->0) =     -323.73414352


--------------------------------------------------------------------------------------------------------




--------------------------------------- Iteration      1(   9)  ---------------------------------------


    POTLOK:  cpu time    0.2695: real time    0.2697
    SETDIJ:  cpu time    0.0111: real time    0.0111
    EDDIAG:  cpu time    2.5016: real time    2.5040
  RMM-DIIS:  cpu time   44.2449: real time   44.3448
    ORTHCH:  cpu time    0.2142: real time    0.2154
       DOS:  cpu time    0.0004: real time    0.0004
    CHARGE:  cpu time    1.1573: real time    1.1583
    MIXING:  cpu time    0.0073: real time    0.0073
    --------------------------------------------
      LOOP:  cpu time   48.4061: real time   48.5110

 eigenvalue-minimisations  :  2210
 total energy-change (2. order) :-0.1695059E-01  (-0.1467361E+00)
 number of electron     324.0000000 magnetization 
 augmentation part      -21.1559413 magnetization 

 Broyden mixing:
  rms(total) = 0.10031E+00    rms(broyden)= 0.10031E+00
  rms(prec ) = 0.11080E+00
  weight for this iteration     100.00

 eigenvalues of (default mixing * dielectric matrix)
  average eigenvalue GAMMA=   1.1410
  2.0285  1.3210  0.7342  0.4803

 Free energy of the ion-electron system (eV)
  ---------------------------------------------------
  alpha Z        PSCENC =       245.29827220
  Ewald energy   TEWEN  =     59990.32095232
  -Hartree energ DENC   =    -71788.38920980
  -exchange      EXHF   =         0.00000000
  -V(xc)+E(xc)   XCENC  =     -2089.81033751
  PAW double counting   =      8242.48649212    -5598.40441851
  entropy T*S    EENTRO =        -0.00000000
  eigenvalues    EBANDS =     -1278.33549896
  atomic energy  EATOM  =     11953.08265402
  Solvation  Ediel_sol  =         0.00000000
  ---------------------------------------------------
  free energy    TOTEN  =      -323.75109411 eV

  energy without entropy =     -323.75109411  energy(sigma->0) =     -323.75109411


--------------------------------------------------------------------------------------------------------




--------------------------------------- Iteration      1(  10)  ---------------------------------------


    POTLOK:  cpu time    0.2713: real time    0.2715
    SETDIJ:  cpu time    0.0110: real time    0.0110
    EDDIAG:  cpu time    2.5019: real time    2.5067
  RMM-DIIS:  cpu time   48.7270: real time   48.8169
    ORTHCH:  cpu time    0.2165: real time    0.2167
       DOS:  cpu time    0.0004: real time    0.0004
    CHARGE:  cpu time    1.1542: real time    1.1576
    MIXING:  cpu time    0.0076: real time    0.0076
    --------------------------------------------
      LOOP:  cpu time   52.8899: real time   52.9885

 eigenvalue-minimisations  :  2432
 total energy-change (2. order) :-0.1045406E-01  (-0.3988626E-01)
 number of electron     324.0000000 magnetization 
 augmentation part      -21.0097249 magnetization 

 Broyden mixing:
  rms(total) = 0.76514E-01    rms(broyden)= 0.76514E-01
  rms(prec ) = 0.85250E-01
  weight for this iteration     100.00

 eigenvalues of (default mixing * dielectric matrix)
  average eigenvalue GAMMA=   1.2821
  2.3850  1.7664  0.9395  0.9395  0.3799

 Free energy of the ion-electron system (eV)
  ---------------------------------------------------
  alpha Z        PSCENC =       245.29827220
  Ewald energy   TEWEN  =     59990.32095232
  -Hartree energ DENC   =    -71791.31266557
  -exchange      EXHF   =         0.00000000
  -V(xc)+E(xc)   XCENC  =     -2089.63194201
  PAW double counting   =      8255.21100808    -5611.15173352
  entropy T*S    EENTRO =        -0.00000000
  eigenvalues    EBANDS =     -1275.57809369
  atomic energy  EATOM  =     11953.08265402
  Solvation  Ediel_sol  =         0.00000000
  ---------------------------------------------------
  free energy    TOTEN  =      -323.76154816 eV

  energy without entropy =     -323.76154816  energy(sigma->0) =     -323.76154816


--------------------------------------------------------------------------------------------------------




--------------------------------------- Iteration      1(  11)  ---------------------------------------


    POTLOK:  cpu time    0.2732: real time    0.2734
    SETDIJ:  cpu time    0.0112: real time    0.0112
    EDDIAG:  cpu time    2.5038: real time    2.5062
  RMM-DIIS:  cpu time   42.2421: real time   42.3152
    ORTHCH:  cpu time    0.2164: real time    0.2166
       DOS:  cpu time    0.0004: real time    0.0004
    CHARGE:  cpu time    1.1470: real time    1.1479
    MIXING:  cpu time    0.0082: real time    0.0082
    --------------------------------------------
      LOOP:  cpu time   46.4024: real time   46.4792

 eigenvalue-minimisations  :  2127
 total energy-change (2. order) : 0.1015488E-01  (-0.2148448E-01)
 number of electron     324.0000000 magnetization 
 augmentation part      -21.3496354 magnetization 

 Broyden mixing:
  rms(total) = 0.42534E-01    rms(broyden)= 0.42534E-01
  rms(prec ) = 0.48313E-01
  weight for this iteration     100.00

 eigenvalues of (default mixing * dielectric matrix)
  average eigenvalue GAMMA=   1.2348
  2.5449  1.5140  1.5140  0.7312  0.7312  0.3733

 Free energy of the ion-electron system (eV)
  ---------------------------------------------------
  alpha Z        PSCENC =       245.29827220
  Ewald energy   TEWEN  =     59990.32095232
  -Hartree energ DENC   =    -71810.38325799
  -exchange      EXHF   =         0.00000000
  -V(xc)+E(xc)   XCENC  =     -2089.34532616
  PAW double counting   =      8307.86335813    -5664.02036421
  entropy T*S    EENTRO =        -0.00000000
  eigenvalues    EBANDS =     -1256.56768159
  atomic energy  EATOM  =     11953.08265402
  Solvation  Ediel_sol  =         0.00000000
  ---------------------------------------------------
  free energy    TOTEN  =      -323.75139328 eV

  energy without entropy =     -323.75139328  energy(sigma->0) =     -323.75139328


--------------------------------------------------------------------------------------------------------




--------------------------------------- Iteration      1(  12)  ---------------------------------------


    POTLOK:  cpu time    0.2705: real time    0.2707
    SETDIJ:  cpu time    0.0112: real time    0.0112
    EDDIAG:  cpu time    2.4893: real time    2.4918
  RMM-DIIS:  cpu time   45.9369: real time   46.0290
    ORTHCH:  cpu time    0.2142: real time    0.2167
       DOS:  cpu time    0.0004: real time    0.0004
    CHARGE:  cpu time    1.1525: real time    1.1534
    MIXING:  cpu time    0.0078: real time    0.0078
    --------------------------------------------
      LOOP:  cpu time   50.0826: real time   50.1810

 eigenvalue-minimisations  :  2298
 total energy-change (2. order) : 0.3007855E-02  (-0.3900384E-02)
 number of electron     324.0000000 magnetization 
 augmentation part      -21.3099111 magnetization 

 Broyden mixing:
  rms(total) = 0.28414E-01    rms(broyden)= 0.28414E-01
  rms(prec ) = 0.32743E-01
  weight for this iteration     100.00

 eigenvalues of (default mixing * dielectric matrix)
  average eigenvalue GAMMA=   1.1955
  2.5331  1.7230  1.7230  0.8094  0.8094  0.4032  0.3674

 Free energy of the ion-electron system (eV)
  ---------------------------------------------------
  alpha Z        PSCENC =       245.29827220
  Ewald energy   TEWEN  =     59990.32095232
  -Hartree energ DENC   =    -71813.61444125
  -exchange      EXHF   =         0.00000000
  -V(xc)+E(xc)   XCENC  =     -2089.21905259
  PAW double counting   =      8310.20807755    -5666.39618384
  entropy T*S    EENTRO =        -0.00000000
  eigenvalues    EBANDS =     -1253.42866384
  atomic energy  EATOM  =     11953.08265402
  Solvation  Ediel_sol  =         0.00000000
  ---------------------------------------------------
  free energy    TOTEN  =      -323.74838543 eV

  energy without entropy =     -323.74838543  energy(sigma->0) =     -323.74838543


--------------------------------------------------------------------------------------------------------




--------------------------------------- Iteration      1(  13)  ---------------------------------------


    POTLOK:  cpu time    0.2714: real time    0.2717
    SETDIJ:  cpu time    0.0123: real time    0.0123
    EDDIAG:  cpu time    2.5043: real time    2.5069
  RMM-DIIS:  cpu time   47.9381: real time   48.0207
    ORTHCH:  cpu time    0.2166: real time    0.2170
       DOS:  cpu time    0.0004: real time    0.0004
    CHARGE:  cpu time    1.1522: real time    1.1532
    MIXING:  cpu time    0.0075: real time    0.0075
    --------------------------------------------
      LOOP:  cpu time   52.1028: real time   52.1896

 eigenvalue-minimisations  :  2402
 total energy-change (2. order) : 0.1544349E-02  (-0.2619816E-02)
 number of electron     324.0000000 magnetization 
 augmentation part      -21.2031324 magnetization 

 Broyden mixing:
  rms(total) = 0.97859E-02    rms(broyden)= 0.97859E-02
  rms(prec ) = 0.12894E-01
  weight for this iteration     100.00

 eigenvalues of (default mixing * dielectric matrix)
  average eigenvalue GAMMA=   1.3440
  2.6849  2.6849  1.7207  1.2685  0.8089  0.8089  0.3683  0.4065

 Free energy of the ion-electron system (eV)
  ---------------------------------------------------
  alpha Z        PSCENC =       245.29827220
  Ewald energy   TEWEN  =     59990.32095232
  -Hartree energ DENC   =    -71815.38800663
  -exchange      EXHF   =         0.00000000
  -V(xc)+E(xc)   XCENC  =     -2089.14082499
  PAW double counting   =      8305.91756249    -5662.09293163
  entropy T*S    EENTRO =        -0.00000000
  eigenvalues    EBANDS =     -1251.74451886
  atomic energy  EATOM  =     11953.08265402
  Solvation  Ediel_sol  =         0.00000000
  ---------------------------------------------------
  free energy    TOTEN  =      -323.74684108 eV

  energy without entropy =     -323.74684108  energy(sigma->0) =     -323.74684108


--------------------------------------------------------------------------------------------------------




--------------------------------------- Iteration      1(  14)  ---------------------------------------


    POTLOK:  cpu time    0.2875: real time    0.2877
    SETDIJ:  cpu time    0.0144: real time    0.0144
    EDDIAG:  cpu time    2.5002: real time    2.5048
  RMM-DIIS:  cpu time   44.7339: real time   44.8170
    ORTHCH:  cpu time    0.2145: real time    0.2149
       DOS:  cpu time    0.0004: real time    0.0004
    CHARGE:  cpu time    1.1544: real time    1.1583
    MIXING:  cpu time    0.0076: real time    0.0076
    --------------------------------------------
      LOOP:  cpu time   48.9129: real time   49.0051

 eigenvalue-minimisations  :  2239
 total energy-change (2. order) :-0.6701569E-03  (-0.6420996E-03)
 number of electron     324.0000000 magnetization 
 augmentation part      -21.2174812 magnetization 

 Broyden mixing:
  rms(total) = 0.51719E-02    rms(broyden)= 0.51719E-02
  rms(prec ) = 0.67948E-02
  weight for this iteration     100.00

 eigenvalues of (default mixing * dielectric matrix)
  average eigenvalue GAMMA=   1.3393
  3.2709  2.5665  1.5621  1.5621  0.8016  0.8016  0.7113  0.3684  0.4091

 Free energy of the ion-electron system (eV)
  ---------------------------------------------------
  alpha Z        PSCENC =       245.29827220
  Ewald energy   TEWEN  =     59990.32095232
  -Hartree energ DENC   =    -71825.26275300
  -exchange      EXHF   =         0.00000000
  -V(xc)+E(xc)   XCENC  =     -2089.09809370
  PAW double counting   =      8302.67424579    -5658.74281954
  entropy T*S    EENTRO =        -0.00000000
  eigenvalues    EBANDS =     -1242.01996933
  atomic energy  EATOM  =     11953.08265402
  Solvation  Ediel_sol  =         0.00000000
  ---------------------------------------------------
  free energy    TOTEN  =      -323.74751124 eV

  energy without entropy =     -323.74751124  energy(sigma->0) =     -323.74751124


--------------------------------------------------------------------------------------------------------




--------------------------------------- Iteration      1(  15)  ---------------------------------------


    POTLOK:  cpu time    0.2764: real time    0.2767
    SETDIJ:  cpu time    0.0111: real time    0.0111
    EDDIAG:  cpu time    2.4970: real time    2.5023
  RMM-DIIS:  cpu time   53.4193: real time   53.5328
    ORTHCH:  cpu time    0.2173: real time    0.2175
       DOS:  cpu time    0.0005: real time    0.0005
    CHARGE:  cpu time    1.1516: real time    1.1527
    MIXING:  cpu time    0.0078: real time    0.0078
    --------------------------------------------
      LOOP:  cpu time   57.5810: real time   57.7012

 eigenvalue-minimisations  :  2681
 total energy-change (2. order) :-0.8064945E-03  (-0.2546389E-03)
 number of electron     324.0000000 magnetization 
 augmentation part      -21.2147177 magnetization 

 Broyden mixing:
  rms(total) = 0.47044E-02    rms(broyden)= 0.47044E-02
  rms(prec ) = 0.58644E-02
  weight for this iteration     100.00

 eigenvalues of (default mixing * dielectric matrix)
  average eigenvalue GAMMA=   1.3038
  3.5069  2.4811  1.6987  1.6987  0.8729  0.8069  0.8069  0.4125  0.3682  0.3856

 Free energy of the ion-electron system (eV)
  ---------------------------------------------------
  alpha Z        PSCENC =       245.29827220
  Ewald energy   TEWEN  =     59990.32095232
  -Hartree energ DENC   =    -71827.73844873
  -exchange      EXHF   =         0.00000000
  -V(xc)+E(xc)   XCENC  =     -2089.07872957
  PAW double counting   =      8302.87991773    -5658.94960393
  entropy T*S    EENTRO =        -0.00000000
  eigenvalues    EBANDS =     -1239.56333177
  atomic energy  EATOM  =     11953.08265402
  Solvation  Ediel_sol  =         0.00000000
  ---------------------------------------------------
  free energy    TOTEN  =      -323.74831773 eV

  energy without entropy =     -323.74831773  energy(sigma->0) =     -323.74831773


--------------------------------------------------------------------------------------------------------




--------------------------------------- Iteration      1(  16)  ---------------------------------------


    POTLOK:  cpu time    0.2728: real time    0.2731
    SETDIJ:  cpu time    0.0111: real time    0.0112
    EDDIAG:  cpu time    2.5060: real time    2.5087
  RMM-DIIS:  cpu time   49.4311: real time   49.5310
    ORTHCH:  cpu time    0.2153: real time    0.2155
       DOS:  cpu time    0.0004: real time    0.0004
    CHARGE:  cpu time    1.1550: real time    1.1560
    MIXING:  cpu time    0.0085: real time    0.0085
    --------------------------------------------
      LOOP:  cpu time   53.6004: real time   53.7045

 eigenvalue-minimisations  :  2490
 total energy-change (2. order) :-0.7285259E-03  (-0.4939053E-04)
 number of electron     324.0000000 magnetization 
 augmentation part      -21.2145316 magnetization 

 Broyden mixing:
  rms(total) = 0.31518E-02    rms(broyden)= 0.31518E-02
  rms(prec ) = 0.41789E-02
  weight for this iteration     100.00

 eigenvalues of (default mixing * dielectric matrix)
  average eigenvalue GAMMA=   1.3921
  4.1109  2.4727  1.9960  1.9960  0.9948  0.9948  0.8070  0.8070  0.4093  0.3686
  0.3560

 Free energy of the ion-electron system (eV)
  ---------------------------------------------------
  alpha Z        PSCENC =       245.29827220
  Ewald energy   TEWEN  =     59990.32095232
  -Hartree energ DENC   =    -71829.18211047
  -exchange      EXHF   =         0.00000000
  -V(xc)+E(xc)   XCENC  =     -2089.06868645
  PAW double counting   =      8302.85500403    -5658.93390183
  entropy T*S    EENTRO =        -0.00000000
  eigenvalues    EBANDS =     -1238.12123008
  atomic energy  EATOM  =     11953.08265402
  Solvation  Ediel_sol  =         0.00000000
  ---------------------------------------------------
  free energy    TOTEN  =      -323.74904626 eV

  energy without entropy =     -323.74904626  energy(sigma->0) =     -323.74904626


--------------------------------------------------------------------------------------------------------




--------------------------------------- Iteration      1(  17)  ---------------------------------------


    POTLOK:  cpu time    0.2748: real time    0.2751
    SETDIJ:  cpu time    0.0108: real time    0.0108
    EDDIAG:  cpu time    2.5002: real time    2.5040
  RMM-DIIS:  cpu time   41.9700: real time   42.0434
    ORTHCH:  cpu time    0.2206: real time    0.2208
       DOS:  cpu time    0.0004: real time    0.0004
    CHARGE:  cpu time    1.1525: real time    1.1556
    MIXING:  cpu time    0.0082: real time    0.0082
    --------------------------------------------
      LOOP:  cpu time   46.1376: real time   46.2183

 eigenvalue-minimisations  :  2095
 total energy-change (2. order) :-0.1779308E-02  (-0.4002400E-04)
 number of electron     324.0000000 magnetization 
 augmentation part      -21.2182263 magnetization 

 Broyden mixing:
  rms(total) = 0.18064E-02    rms(broyden)= 0.18064E-02
  rms(prec ) = 0.22931E-02
  weight for this iteration     100.00

 eigenvalues of (default mixing * dielectric matrix)
  average eigenvalue GAMMA=   1.4074
  4.5965  2.6570  2.2343  1.5162  1.5162  0.9936  0.8117  0.8117  0.6233  0.4089
  0.3686  0.3511

 Free energy of the ion-electron system (eV)
  ---------------------------------------------------
  alpha Z        PSCENC =       245.29827220
  Ewald energy   TEWEN  =     59990.32095232
  -Hartree energ DENC   =    -71832.87256332
  -exchange      EXHF   =         0.00000000
  -V(xc)+E(xc)   XCENC  =     -2089.05470048
  PAW double counting   =      8301.74290108    -5657.82910591
  entropy T*S    EENTRO =        -0.00000000
  eigenvalues    EBANDS =     -1234.43923547
  atomic energy  EATOM  =     11953.08265402
  Solvation  Ediel_sol  =         0.00000000
  ---------------------------------------------------
  free energy    TOTEN  =      -323.75082556 eV

  energy without entropy =     -323.75082556  energy(sigma->0) =     -323.75082556


--------------------------------------------------------------------------------------------------------




--------------------------------------- Iteration      1(  18)  ---------------------------------------


    POTLOK:  cpu time    0.2745: real time    0.2749
    SETDIJ:  cpu time    0.0109: real time    0.0110
    EDDIAG:  cpu time    2.5106: real time    2.5133
  RMM-DIIS:  cpu time   44.8166: real time   44.8990
    ORTHCH:  cpu time    0.2170: real time    0.2173
       DOS:  cpu time    0.0004: real time    0.0004
    CHARGE:  cpu time    1.1560: real time    1.1571
    MIXING:  cpu time    0.0081: real time    0.0081
    --------------------------------------------
      LOOP:  cpu time   48.9941: real time   49.0809

 eigenvalue-minimisations  :  2253
 total energy-change (2. order) :-0.5950759E-03  (-0.1718067E-04)
 number of electron     324.0000000 magnetization 
 augmentation part      -21.2184269 magnetization 

 Broyden mixing:
  rms(total) = 0.15239E-02    rms(broyden)= 0.15239E-02
  rms(prec ) = 0.18884E-02
  weight for this iteration     100.00

 eigenvalues of (default mixing * dielectric matrix)
  average eigenvalue GAMMA=   1.4120
  4.8830  2.7969  2.2886  1.7206  1.7206  0.8215  0.8215  0.8781  0.8781  0.4074
  0.4203  0.3686  0.3511

 Free energy of the ion-electron system (eV)
  ---------------------------------------------------
  alpha Z        PSCENC =       245.29827220
  Ewald energy   TEWEN  =     59990.32095232
  -Hartree energ DENC   =    -71833.99778696
  -exchange      EXHF   =         0.00000000
  -V(xc)+E(xc)   XCENC  =     -2089.05079235
  PAW double counting   =      8301.53133227    -5657.61500548
  entropy T*S    EENTRO =        -0.00000000
  eigenvalues    EBANDS =     -1233.32104666
  atomic energy  EATOM  =     11953.08265402
  Solvation  Ediel_sol  =         0.00000000
  ---------------------------------------------------
  free energy    TOTEN  =      -323.75142064 eV

  energy without entropy =     -323.75142064  energy(sigma->0) =     -323.75142064


--------------------------------------------------------------------------------------------------------




--------------------------------------- Iteration      1(  19)  ---------------------------------------


    POTLOK:  cpu time    0.2731: real time    0.2745
    SETDIJ:  cpu time    0.0112: real time    0.0112
    EDDIAG:  cpu time    2.5016: real time    2.5043
  RMM-DIIS:  cpu time   45.4847: real time   45.5851
    ORTHCH:  cpu time    0.2199: real time    0.2202
       DOS:  cpu time    0.0005: real time    0.0005
    CHARGE:  cpu time    1.1535: real time    1.1545
    MIXING:  cpu time    0.0089: real time    0.0089
    --------------------------------------------
      LOOP:  cpu time   49.6535: real time   49.7592

 eigenvalue-minimisations  :  2263
 total energy-change (2. order) :-0.4466762E-03  (-0.5878326E-05)
 number of electron     324.0000000 magnetization 
 augmentation part      -21.2161362 magnetization 

 Broyden mixing:
  rms(total) = 0.89507E-03    rms(broyden)= 0.89507E-03
  rms(prec ) = 0.11424E-02
  weight for this iteration     100.00

 eigenvalues of (default mixing * dielectric matrix)
  average eigenvalue GAMMA=   1.5116
  5.9384  3.0659  2.5020  1.8506  1.8506  1.0465  1.0465  0.8056  0.8056  0.7340
  0.4093  0.3685  0.3895  0.3496

 Free energy of the ion-electron system (eV)
  ---------------------------------------------------
  alpha Z        PSCENC =       245.29827220
  Ewald energy   TEWEN  =     59990.32095232
  -Hartree energ DENC   =    -71834.56539831
  -exchange      EXHF   =         0.00000000
  -V(xc)+E(xc)   XCENC  =     -2089.04888066
  PAW double counting   =      8301.68388732    -5657.76523279
  entropy T*S    EENTRO =        -0.00000000
  eigenvalues    EBANDS =     -1232.75812142
  atomic energy  EATOM  =     11953.08265402
  Solvation  Ediel_sol  =         0.00000000
  ---------------------------------------------------
  free energy    TOTEN  =      -323.75186732 eV

  energy without entropy =     -323.75186732  energy(sigma->0) =     -323.75186732


--------------------------------------------------------------------------------------------------------




--------------------------------------- Iteration      1(  20)  ---------------------------------------


    POTLOK:  cpu time    0.2755: real time    0.2759
    SETDIJ:  cpu time    0.0123: real time    0.0123
    EDDIAG:  cpu time    2.5041: real time    2.5102
  RMM-DIIS:  cpu time   44.2171: real time   44.3066
    ORTHCH:  cpu time    0.2184: real time    0.2188
       DOS:  cpu time    0.0004: real time    0.0004
    CHARGE:  cpu time    1.1450: real time    1.1490
    MIXING:  cpu time    0.0087: real time    0.0087
    --------------------------------------------
      LOOP:  cpu time   48.3815: real time   48.4818

 eigenvalue-minimisations  :  2191
 total energy-change (2. order) :-0.5598643E-03  (-0.6473283E-05)
 number of electron     324.0000000 magnetization 
 augmentation part      -21.2139996 magnetization 

 Broyden mixing:
  rms(total) = 0.61122E-03    rms(broyden)= 0.61122E-03
  rms(prec ) = 0.71262E-03
  weight for this iteration     100.00

 eigenvalues of (default mixing * dielectric matrix)
  average eigenvalue GAMMA=   1.5673
  6.9072  3.1955  2.4869  1.8146  1.8146  1.2558  1.2558  0.9646  0.8045  0.8045
  0.6876  0.4088  0.3685  0.3917  0.3491

 Free energy of the ion-electron system (eV)
  ---------------------------------------------------
  alpha Z        PSCENC =       245.29827220
  Ewald energy   TEWEN  =     59990.32095232
  -Hartree energ DENC   =    -71835.23904043
  -exchange      EXHF   =         0.00000000
  -V(xc)+E(xc)   XCENC  =     -2089.04822347
  PAW double counting   =      8302.17235741    -5658.25358180
  entropy T*S    EENTRO =        -0.00000000
  eigenvalues    EBANDS =     -1232.08581743
  atomic energy  EATOM  =     11953.08265402
  Solvation  Ediel_sol  =         0.00000000
  ---------------------------------------------------
  free energy    TOTEN  =      -323.75242718 eV

  energy without entropy =     -323.75242718  energy(sigma->0) =     -323.75242718


--------------------------------------------------------------------------------------------------------




--------------------------------------- Iteration      1(  21)  ---------------------------------------


    POTLOK:  cpu time    0.2755: real time    0.2758
    SETDIJ:  cpu time    0.0118: real time    0.0118
    EDDIAG:  cpu time    2.4981: real time    2.5047
  RMM-DIIS:  cpu time   40.6808: real time   40.7655
    ORTHCH:  cpu time    0.2138: real time    0.2154
       DOS:  cpu time    0.0004: real time    0.0004
    CHARGE:  cpu time    1.1516: real time    1.1524
    MIXING:  cpu time    0.0086: real time    0.0086
    --------------------------------------------
      LOOP:  cpu time   44.8406: real time   44.9347

 eigenvalue-minimisations  :  1979
 total energy-change (2. order) :-0.1363643E-03  (-0.1347338E-05)
 number of electron     324.0000000 magnetization 
 augmentation part      -21.2158983 magnetization 

 Broyden mixing:
  rms(total) = 0.31521E-03    rms(broyden)= 0.31521E-03
  rms(prec ) = 0.38743E-03
  weight for this iteration     100.00

 eigenvalues of (default mixing * dielectric matrix)
  average eigenvalue GAMMA=   1.5407
  7.1378  3.2561  2.4636  1.8645  1.8645  1.6919  1.0235  1.0235  0.8043  0.8043
  0.7064  0.4927  0.4093  0.3918  0.3686  0.3491

 Free energy of the ion-electron system (eV)
  ---------------------------------------------------
  alpha Z        PSCENC =       245.29827220
  Ewald energy   TEWEN  =     59990.32095232
  -Hartree energ DENC   =    -71835.49505018
  -exchange      EXHF   =         0.00000000
  -V(xc)+E(xc)   XCENC  =     -2089.05008313
  PAW double counting   =      8302.23523631    -5658.31580712
  entropy T*S    EENTRO =        -0.00000000
  eigenvalues    EBANDS =     -1231.82873796
  atomic energy  EATOM  =     11953.08265402
  Solvation  Ediel_sol  =         0.00000000
  ---------------------------------------------------
  free energy    TOTEN  =      -323.75256355 eV

  energy without entropy =     -323.75256355  energy(sigma->0) =     -323.75256355


--------------------------------------------------------------------------------------------------------




--------------------------------------- Iteration      1(  22)  ---------------------------------------


    POTLOK:  cpu time    0.2754: real time    0.2757
    SETDIJ:  cpu time    0.0111: real time    0.0111
    EDDIAG:  cpu time    2.5012: real time    2.5047
  RMM-DIIS:  cpu time   30.0943: real time   30.1679
    ORTHCH:  cpu time    0.2133: real time    0.2135
       DOS:  cpu time    0.0004: real time    0.0004
    CHARGE:  cpu time    1.1496: real time    1.1506
    MIXING:  cpu time    0.0088: real time    0.0088
    --------------------------------------------
      LOOP:  cpu time   34.2542: real time   34.3328

 eigenvalue-minimisations  :  1467
 total energy-change (2. order) :-0.5734012E-04  (-0.4788659E-06)
 number of electron     324.0000000 magnetization 
 augmentation part      -21.2161867 magnetization 

 Broyden mixing:
  rms(total) = 0.25157E-03    rms(broyden)= 0.25157E-03
  rms(prec ) = 0.30734E-03
  weight for this iteration     100.00

 eigenvalues of (default mixing * dielectric matrix)
  average eigenvalue GAMMA=   1.6046
  7.2854  3.7318  2.5755  2.5755  1.8371  1.8371  1.1076  1.1076  1.0251  0.8037
  0.8037  0.6870  0.4088  0.3491  0.3686  0.3941  0.3807

[...]
  0.000   0.000   0.000  -0.000   0.000   0.011   0.000  -0.000
 -0.000   0.000  -0.000   0.000  -0.000   0.000   0.011   0.000
  0.000   0.000   0.000  -0.000   0.000  -0.000   0.000   0.011
 -0.000  -0.000  -0.000   0.000  -0.001  -0.000   0.000   0.000
 -0.000   0.000  -0.014  -0.001   0.000  -0.000   0.000   0.000
 -0.009  -0.000   0.000  -0.019   0.000  -0.000  -0.000   0.000
  0.000   0.000   0.000   0.000  -0.015   0.000   0.000  -0.000
  0.000   0.000   0.001  -0.000  -0.000   0.000   0.000  -0.000
 total augmentation occupancy for first ion, spin component:           1
  1.934   0.208  -0.001   0.200  -0.003   0.008   0.042  -0.002   0.000   0.001   0.007   0.000   0.000
  0.208   1.347  -0.018  -0.938   0.012   0.011   0.369   0.007  -0.003   0.003  -0.023  -0.001   0.005
 -0.001  -0.018   1.331   0.014   0.002  -0.468  -0.008   0.001   0.002  -0.115   0.000  -0.000  -0.041
  0.200  -0.938   0.014   1.498  -0.002  -0.008  -0.542   0.002  -0.000  -0.004  -0.039  -0.001  -0.004
 -0.003   0.012   0.002  -0.002   1.339   0.001   0.002  -0.485  -0.045  -0.001  -0.002  -0.119   0.002
  0.008   0.011  -0.468  -0.008   0.001   0.294   0.002  -0.004   0.000   0.038  -0.001   0.000   0.006
  0.042   0.369  -0.008  -0.542   0.002   0.002   0.286  -0.000   0.000   0.002   0.045  -0.000   0.000
 -0.002   0.007   0.001   0.002  -0.485  -0.004  -0.000   0.306   0.010   0.000  -0.001   0.038   0.001
  0.000  -0.003   0.002  -0.000  -0.045   0.000   0.000   0.010   0.020  -0.000   0.000   0.000   0.000
  0.001   0.003  -0.115  -0.004  -0.001   0.038   0.002   0.000  -0.000   0.018   0.000  -0.000  -0.001
  0.007  -0.023   0.000  -0.039  -0.002  -0.001   0.045  -0.001   0.000   0.000   0.020  -0.000  -0.001
  0.000  -0.001  -0.000  -0.001  -0.119   0.000  -0.000   0.038   0.000  -0.000  -0.000   0.019  -0.000
  0.000   0.005  -0.041  -0.004   0.002   0.006   0.000   0.001   0.000  -0.001  -0.001  -0.000   0.020


------------------------ aborting loop because EDIFF is reached ----------------------------------------


    CHARGE:  cpu time    1.1654: real time    1.1666
    FORLOC:  cpu time    0.0758: real time    0.0759
    FORNL :  cpu time   13.8691: real time   13.8839
    STRESS:  cpu time   72.2996: real time   72.4204
    FORCOR:  cpu time    0.3096: real time    0.3099
    FORHAR:  cpu time    0.1275: real time    0.1276
    MIXING:  cpu time    0.0073: real time    0.0073
    OFIELD:  cpu time    0.0000: real time    0.0000

  Number of pair interactions contributing to vdW energy:  269127
  Edisp (eV):  -18.98285
    FORVDW:  cpu time    0.0294: real time    0.0294

  FORCE on cell =-STRESS in cart. coord.  units (eV):
  Direction    XX          YY          ZZ          XY          YZ          ZX
  --------------------------------------------------------------------------------------
  Alpha Z   245.29827   245.29827   245.29827
  Ewald   69181.01008 69157.09785-78295.24100   -20.31365    45.50120   -29.35512
  Hartree 71511.28696 71504.68795-71129.76761    -4.87210     7.72039    -0.85583
  E(xc)   -1353.57367 -1353.00207 -1372.21363     0.53803    -1.25803     1.64384
  Local  ************************144365.02926    24.36897   -51.64587    30.15834
  n-local  3549.11491  3551.14917  3733.04786     1.01276     8.60303   -11.82637
  augment  -759.82604  -760.89268  -800.84926    -0.76230    -1.22269     2.08978
  Kinetic  3290.56661  3279.87888  3257.38217    -7.89178     7.52586    -4.56388
  Fock        0.00000     0.00000     0.00000     0.00000     0.00000     0.00000
  vdW       -12.46692   -12.37719    -9.33402     0.12032     0.10509     0.95454
  -------------------------------------------------------------------------------------
  Total       0.61325    -9.21110    -6.64795    -7.79973    15.32898   -11.75470
  in kB       0.33583    -5.04422    -3.64058    -4.27132     8.39452    -6.43716
  external pressure =       -2.78 kB  Pullay stress =        0.00 kB

  kinetic pressure (ideal gas correction) =      0.21 kB
  total pressure  =     -2.57 kB
  Total+kin.     0.538      -4.778      -3.470      -4.268       8.404      -6.400

 VOLUME and BASIS-vectors are now :
 -----------------------------------------------------------------------------
  energy-cutoff  :      550.00
  volume of cell :     2925.69
      direct lattice vectors                 reciprocal lattice vectors
    10.518106443  0.000000000  0.000000000     0.095074147  0.052239973 -0.001230133
    -5.070821653  9.228642744  0.000000000     0.000000000  0.108358296  0.001832249
     0.670016747 -0.509653287 30.140648688     0.000000000  0.000000000  0.033177786

  length of vectors
    10.518106443 10.530008506 30.152402430     0.108487886  0.108373786  0.033177786


 FORCES acting on ions
    electron-ion (+dipol)            ewald-force                    non-local-force                 convergence-correction
 -----------------------------------------------------------------------------------------------
   0.110E+00 -.213E+01 -.825E+03   -.105E+00 0.210E+01 0.831E+03   0.982E-01 0.344E+00 -.533E+01   0.701E-03 0.140E-02 -.581E-03
   0.155E+01 -.128E+01 -.825E+03   -.140E+01 0.128E+01 0.830E+03   -.423E+00 -.320E-01 -.580E+01   0.727E-03 -.185E-03 -.144E-02
   -.205E+00 0.120E+01 -.824E+03   0.275E+00 -.129E+01 0.829E+03   -.115E+00 0.975E-01 -.557E+01   0.106E-02 0.292E-03 -.890E-04
   -.147E+01 0.368E+00 -.825E+03   0.155E+01 -.474E+00 0.830E+03   0.248E-01 0.338E+00 -.520E+01   -.147E-02 0.113E-02 -.414E-04
   0.460E+01 -.163E+01 -.826E+03   -.452E+01 0.157E+01 0.831E+03   -.625E+00 0.285E+00 -.553E+01   -.535E-03 -.127E-02 -.122E-02
   0.157E+01 -.229E+01 -.823E+03   -.149E+01 0.224E+01 0.829E+03   -.375E+00 0.304E+00 -.549E+01   -.871E-03 -.152E-02 0.367E-03
   0.224E+01 0.187E+01 -.825E+03   -.221E+01 -.189E+01 0.830E+03   -.318E+00 0.121E-01 -.545E+01   0.694E-03 0.140E-02 0.907E-03
   -.236E+00 -.285E+01 -.824E+03   0.333E+00 0.277E+01 0.829E+03   -.368E+00 0.399E+00 -.523E+01   -.214E-03 -.113E-02 -.256E-03
   0.341E+01 -.217E+01 -.823E+03   -.330E+01 0.205E+01 0.828E+03   -.455E+00 0.427E+00 -.540E+01   -.243E-03 -.123E-03 0.113E-02
   0.177E+00 0.166E+01 0.101E+03   -.900E-01 -.177E+01 -.955E+02   -.249E+00 0.597E-01 -.566E+01   0.116E-02 -.363E-03 0.701E-03
   0.745E+00 -.346E+01 0.102E+03   -.649E+00 0.335E+01 -.962E+02   -.346E+00 0.507E+00 -.550E+01   -.534E-03 0.896E-03 0.377E-03
   0.315E+01 -.171E+01 0.102E+03   -.305E+01 0.160E+01 -.963E+02   -.641E+00 0.361E+00 -.540E+01   0.906E-03 0.387E-03 -.774E-03
   0.626E+00 0.544E+00 0.100E+03   -.537E+00 -.673E+00 -.951E+02   -.355E+00 0.280E+00 -.534E+01   -.466E-03 -.396E-03 -.356E-03
   0.308E+01 -.301E+01 0.102E+03   -.299E+01 0.289E+01 -.970E+02   -.598E+00 0.464E+00 -.552E+01   0.444E-03 0.147E-03 0.664E-03
   0.171E+01 -.904E+00 0.101E+03   -.162E+01 0.768E+00 -.953E+02   -.434E+00 0.422E+00 -.568E+01   -.624E-03 -.137E-03 -.398E-03
   0.396E+01 0.295E+00 0.101E+03   -.393E+01 -.420E+00 -.951E+02   -.534E+00 0.301E+00 -.531E+01   -.776E-03 0.350E-03 0.535E-03
   0.219E+01 -.549E+00 0.992E+02   -.210E+01 0.481E+00 -.939E+02   -.493E+00 0.943E-01 -.561E+01   0.188E-04 -.229E-03 0.216E-03
   0.110E+01 -.604E+00 0.100E+03   -.103E+01 0.460E+00 -.946E+02   -.314E+00 0.274E+00 -.539E+01   -.294E-03 -.549E-03 0.543E-03
   -.597E+00 0.568E+00 -.983E+02   0.553E+00 -.478E+00 0.930E+02   0.421E+00 -.274E+00 0.549E+01   0.900E-03 0.145E-02 0.443E-03
   0.248E+01 0.911E+00 -.101E+03   -.249E+01 -.827E+00 0.957E+02   0.874E-02 -.472E+00 0.561E+01   0.831E-03 -.166E-03 0.127E-02
   -.580E+00 0.225E+00 -.102E+03   0.560E+00 -.117E+00 0.963E+02   0.356E+00 -.337E+00 0.572E+01   0.109E-02 0.389E-03 -.229E-03
   -.109E+01 0.670E-01 -.991E+02   0.107E+01 0.353E-01 0.938E+02   0.375E+00 -.241E+00 0.545E+01   -.144E-02 0.117E-02 -.133E-03
   -.856E-02 -.338E+00 -.101E+03   0.496E-01 0.489E+00 0.952E+02   0.146E+00 -.462E+00 0.531E+01   -.617E-03 -.135E-02 0.105E-02
   -.299E+01 -.202E+01 -.103E+03   0.296E+01 0.208E+01 0.974E+02   0.631E+00 -.589E-01 0.529E+01   -.103E-02 -.162E-02 -.586E-03
   -.108E+01 0.946E+00 -.996E+02   0.101E+01 -.792E+00 0.943E+02   0.464E+00 -.303E+00 0.534E+01   0.595E-03 0.140E-02 -.108E-02
   -.807E+00 0.993E+00 -.101E+03   0.819E+00 -.931E+00 0.959E+02   0.109E+00 -.531E+00 0.524E+01   -.133E-03 -.115E-02 -.168E-04
   0.291E+01 -.136E+01 -.102E+03   -.296E+01 0.142E+01 0.962E+02   0.140E+00 -.154E+00 0.550E+01   -.124E-03 -.175E-03 -.128E-02
   0.124E+01 -.180E+01 0.825E+03   -.126E+01 0.182E+01 -.830E+03   -.437E-01 0.117E+00 0.554E+01   0.116E-02 -.759E-03 -.319E-03
   -.142E+00 -.124E+01 0.824E+03   0.145E+00 0.123E+01 -.830E+03   0.730E-01 0.287E-01 0.540E+01   -.533E-03 0.977E-03 0.217E-03
   -.527E+00 -.156E+00 0.824E+03   0.532E+00 0.117E+00 -.829E+03   0.185E+00 0.299E-01 0.559E+01   0.814E-03 0.424E-03 0.102E-02
   0.268E-01 0.249E+00 0.824E+03   -.503E-01 -.180E+00 -.830E+03   0.162E+00 -.200E+00 0.529E+01   -.284E-03 -.610E-03 0.813E-03
   0.155E+01 0.103E+01 0.824E+03   -.157E+01 -.102E+01 -.829E+03   0.929E-01 -.354E+00 0.546E+01   0.463E-03 0.487E-03 -.238E-04
   0.604E+00 0.444E+00 0.824E+03   -.667E+00 -.400E+00 -.829E+03   0.249E+00 -.169E+00 0.578E+01   -.584E-03 -.350E-04 0.770E-03
   0.193E+00 0.432E+00 0.824E+03   -.216E+00 -.392E+00 -.830E+03   0.148E+00 -.197E+00 0.550E+01   -.745E-03 0.209E-03 -.199E-03
   -.116E+00 0.232E+00 0.823E+03   0.919E-01 -.216E+00 -.828E+03   0.203E+00 -.210E+00 0.522E+01   0.538E-04 -.251E-03 0.336E-03
   0.234E+00 -.597E+00 0.824E+03   -.289E+00 0.626E+00 -.829E+03   0.259E+00 -.170E+00 0.542E+01   -.237E-03 -.485E-03 -.276E-03
   0.186E+01 0.279E+01 -.460E+03   -.192E+01 -.278E+01 0.460E+03   -.478E+00 -.281E+00 0.797E-01   0.990E-03 0.151E-02 -.240E-04
   -.603E+01 -.192E+01 -.463E+03   0.623E+01 0.192E+01 0.463E+03   0.490E+00 0.589E+00 -.873E-02   0.853E-03 0.823E-03 -.880E-04
   -.453E+01 -.751E-01 -.463E+03   0.465E+01 0.105E+00 0.463E+03   0.257E+00 0.682E-01 0.122E+00   0.653E-03 -.699E-03 -.128E-03
   0.314E+00 0.245E+01 -.466E+03   -.426E+00 -.246E+01 0.466E+03   -.425E+00 0.227E-01 -.367E+00   -.170E-03 0.114E-02 -.185E-03
   -.553E+00 -.124E+01 -.461E+03   0.551E+00 0.129E+01 0.461E+03   0.257E+00 0.157E+00 0.409E+00   0.302E-03 0.286E-03 -.125E-03
   0.200E+01 0.171E+01 -.464E+03   -.210E+01 -.175E+01 0.465E+03   -.373E+00 0.168E+00 0.256E+00   0.211E-03 -.113E-02 -.129E-03
   -.269E+01 0.312E+01 -.461E+03   0.265E+01 -.310E+01 0.461E+03   0.865E-02 -.175E+00 0.284E+00   -.107E-02 0.532E-03 -.578E-04
   -.841E+00 0.112E+01 -.461E+03   0.906E+00 -.116E+01 0.461E+03   -.680E-01 -.123E-01 0.840E-02   -.119E-02 -.167E-03 -.898E-04
   -.923E+00 -.180E+01 -.463E+03   0.971E+00 0.178E+01 0.463E+03   0.303E-01 0.343E+00 0.106E+00   -.944E-03 -.190E-02 -.964E-04
   -.329E+01 0.216E+00 0.469E+03   0.343E+01 -.294E+00 -.469E+03   0.265E+00 -.992E-01 0.161E+00   0.352E-03 0.367E-03 0.432E-03
   -.449E+01 0.946E+00 0.461E+03   0.467E+01 -.104E+01 -.461E+03   0.271E+00 -.285E+00 -.221E+00   -.169E-03 0.792E-03 0.219E-03
   -.136E+00 0.300E+01 0.462E+03   0.171E+00 -.307E+01 -.462E+03   -.843E-01 -.250E+00 0.773E-01   0.989E-03 -.571E-03 0.272E-03
   -.164E+01 0.237E+00 0.463E+03   0.174E+01 -.272E+00 -.463E+03   0.213E+00 0.579E-01 0.929E-01   0.200E-03 -.412E-03 0.325E-03
   0.194E+01 0.872E+00 0.463E+03   -.194E+01 -.877E+00 -.463E+03   -.200E+00 -.100E+00 0.338E-01   -.517E-03 -.221E-04 0.251E-03
   -.223E+01 0.435E+01 0.460E+03   0.234E+01 -.447E+01 -.460E+03   0.894E-01 -.190E+00 -.171E+00   -.106E-02 -.312E-03 0.215E-03
   -.786E+00 0.625E+00 0.465E+03   0.839E+00 -.658E+00 -.465E+03   0.963E-02 -.683E-01 0.124E+00   -.481E-03 0.484E-03 0.297E-03
   -.257E+01 -.639E+00 0.461E+03   0.265E+01 0.654E+00 -.461E+03   0.135E+00 0.171E+00 0.483E-01   0.678E-03 -.111E-03 0.180E-03
   -.303E+01 0.130E+01 0.460E+03   0.317E+01 -.133E+01 -.461E+03   0.172E+00 -.984E-01 -.285E+00   -.273E-04 -.309E-03 0.188E-03
 -----------------------------------------------------------------------------------------------
   0.197E+01 -.999E+00 -.499E+00   0.107E-13 -.382E-13 -.256E-11   -.197E+01 0.100E+01 0.495E+00   -.542E-03 0.308E-03 0.351E-02
 
 
 POSITION                                       TOTAL-FORCE (eV/Angst)
 -----------------------------------------------------------------------------------
      2.19739      0.67478     20.57878         0.095731      0.313218     -0.063646
      0.53089      3.76510     20.60555        -0.268579     -0.031042     -0.521445
     -1.16816      6.84029     20.57965        -0.046218      0.006520     -0.194907
      5.71693      0.67671     20.56516         0.093705      0.231399      0.107174
      4.06111      3.72676     20.59135        -0.520528      0.202899     -0.255946
      2.36572      6.82120     20.57232        -0.280980      0.242842     -0.124330
      9.24973      0.67618     20.58196        -0.280561     -0.008511     -0.177254
      7.54322      3.73879     20.56046        -0.269469      0.304326      0.116941
      5.86443      6.82159     20.56287        -0.342093      0.298842     -0.032259
      1.44763     -0.18369     13.21152        -0.176448     -0.055216     -0.253951
     -0.24510      2.83188     13.19644        -0.261509      0.359379     -0.068876
     -1.91430      5.93821     13.19433        -0.540611      0.231561      0.044848
      4.95750     -0.21635     13.19428        -0.277343      0.129945      0.105826
      3.28090      2.83761     13.19625        -0.509027      0.316758     -0.100857
      1.59122      5.91274     13.21828        -0.349842      0.257150     -0.240537
      8.48089     -0.20938     13.19134        -0.511792      0.156916      0.132870
      6.78454      2.86551     13.21072        -0.400195      0.008263     -0.151623
      5.08384      5.94038     13.19579        -0.249808      0.110261      0.081681
      2.16465      0.74427     16.92139         0.387601     -0.155425      0.104406
      0.46163      3.82683     16.93035         0.002539     -0.358455      0.161929
     -1.23214      6.91324     16.93445         0.335545     -0.192339      0.253175
      5.64957      0.74686     16.93834         0.344346     -0.106922      0.002436
      3.97150      3.81932     16.95094         0.188283     -0.285029     -0.151256
      2.24827      6.86989     16.96574         0.593823      0.022372     -0.232540
      9.15337      0.72793     16.94004         0.397576     -0.123734     -0.107531
      7.48739      3.84660     16.96347         0.124958     -0.435461     -0.258265
      5.79259      6.89191     16.95109         0.094107     -0.075793     -0.036464
     -3.66096      9.03059      9.55031        -0.056329      0.134721      0.225289
     -0.30388      2.90960      9.56390         0.066462      0.019662      0.039183
     -2.00486      5.97413      9.55548         0.176099     -0.005812      0.264915
     -0.16793      9.06481      9.57063         0.131823     -0.125309     -0.015039
      3.20857      2.94294      9.56040         0.066211     -0.322397      0.092589
      1.50150      5.99635      9.53750         0.171344     -0.115970      0.519881
      3.33360      9.06521      9.56034         0.116706     -0.150508      0.188068
      6.69521      2.91322      9.58785         0.164122     -0.186855     -0.152623
      5.01656      6.00434      9.56544         0.193420     -0.128827      0.108710
      0.46180     -0.30169     18.74638        -0.553230     -0.300206      0.058800
      9.22002      2.71310     18.76152         0.710131      0.620166     -0.057253
      7.55366      5.83141     18.75133         0.401554      0.087910      0.189794
      3.95615     -0.31276     18.78266        -0.532959     -0.007979     -0.432957
      2.21917      2.73917     18.73410         0.277281      0.212550      0.548319
      0.56236      5.81581     18.75117        -0.489013      0.125751      0.435676
      2.36937      8.91075     18.74058        -0.003181     -0.183590      0.390568
      5.74716      2.75368     18.75515        -0.015204     -0.059992     -0.054724
      4.05670      5.79897     18.75867         0.080872      0.342239      0.134887
      1.44908      1.86297     11.36015         0.410796     -0.171390      0.065975
     -0.23904      4.94539     11.39454         0.467659     -0.375537     -0.349755
     -1.90802      8.02564     11.37692        -0.060217     -0.330536      0.106398
      4.95866      1.84867     11.38004         0.316025      0.030780      0.045564
      3.29605      4.94466     11.37818        -0.217347     -0.113464      0.027935
      1.59141      8.01820     11.39405         0.199880     -0.317003     -0.227914
      8.47558      1.85914     11.37295         0.054253     -0.100337      0.081720
      6.77643      4.92569     11.38347         0.225967      0.190299      0.043486
      5.09719      8.01785     11.40021         0.322333     -0.131750     -0.417651
 -----------------------------------------------------------------------------------
    total drift:                               -0.001331      0.001340     -0.000559


--------------------------------------------------------------------------------------------------------



  FREE ENERGIE OF THE ION-ELECTRON SYSTEM (eV)
  ---------------------------------------------------
  free  energy   TOTEN  =      -342.61087921 eV

  energy  without entropy=     -342.61087921  energy(sigma->0) =     -342.61087921
 
 d Force =-0.2485169E-01[-0.271E-01,-0.226E-01]  d Energy =-0.2480826E-01-0.434E-04
 d Force =-0.7518068E+01[-0.753E+01,-0.751E+01]  d Ewald  =-0.7518070E+01 0.159E-05


--------------------------------------------------------------------------------------------------------


    POTLOK:  cpu time    0.2905: real time    0.2907


--------------------------------------------------------------------------------------------------------


           RANDOM_SEED =         124180764              324                0
   IONSTEP:  cpu time    0.0001: real time    0.0001

  ENERGY OF THE ELECTRON-ION-THERMOSTAT SYSTEM (eV)
  ---------------------------------------------------
% ion-electron   TOTEN  =      -342.610879  see above
  kinetic energy EKIN   =         0.574016
  kin. lattice  EKIN_LAT=         0.000000  (temperature   83.79 K)
  nose potential ES     =        -0.018581
  nose kinetic   EPS    =         0.002223
  ---------------------------------------------------
  total energy   ETOTAL =      -342.053221 eV

  maximum distance moved by ions :      0.53E-03


 mean value of Nose-termostat <S>:     0.979 mean value of <T> :    83.788
 mean temperature <T/S>/<1/S>  :    83.788

    WAVPRE:  cpu time    0.0995: real time    0.1040
    FEWALD:  cpu time    0.0025: real time    0.0024
    ORTHCH:  cpu time    8.1171: real time    8.1314
    POTLOK:  cpu time    0.2893: real time    0.2896
    EDDIAG:  cpu time    2.5117: real time    2.5178
     LOOP+:  cpu time  477.1683: real time  478.0649
    4ORBIT:  cpu time    0.0000: real time    0.0000

 total amount of memory used by VASP MPI-rank0   363172. kBytes
=======================================================================

   base      :      30000. kBytes
   nonl-proj :     197591. kBytes
   fftplans  :      17372. kBytes
   grid      :      82746. kBytes
   one-center:        839. kBytes
   wavefun   :      34624. kBytes
 
  
  
 General timing and accounting informations for this job:
 ========================================================
  
                  Total CPU time used (sec):     5772.325
                            User time (sec):     5759.146
                          System time (sec):       13.178
                         Elapsed time (sec):     5783.817
  
                   Maximum memory used (kb):      809608.
                   Average memory used (kb):           0.
  
                          Minor page faults:       376132
                          Major page faults:            0
                 Voluntary context switches:          805
