-3.431980853800000091e+02
-3.431951630099999875e+02
-3.431868440499999906e+02
-3.431733286099999987e+02
-3.431549488300000235e+02
-3.431321518500000138e+02
-3.431054793000000132e+02
-3.430755411999999751e+02
-3.430429940000000215e+02
-3.430085172700000271e+02
-3.420795799800000054e+02
-3.420931342299999756e+02
-3.421067030599999725e+02
-3.421203789300000153e+02
-3.421343544499999894e+02
-3.421489141000000131e+02
-3.421643999899999926e+02
-3.421811878899999897e+02
-3.421996480700000234e+02
-3.422201059399999963e+02
-3.427874757199999749e+02
-3.427881415499999775e+02
-3.427834785900000156e+02
-3.427736079800000084e+02
-3.427587861399999838e+02
-3.427394028100000014e+02
-3.427159509200000116e+02
-3.426890067799999997e+02
-3.426592072299999927e+02
-3.426272270100000128e+02
-3.424830119399999830e+02
-3.424784310900000150e+02
-3.424702761799999848e+02
-3.424587378499999772e+02
-3.424440978999999743e+02
-3.424267155000000002e+02
-3.424070138100000236e+02
-3.423854638299999920e+02
-3.423625660299999822e+02
-3.423388358999999923e+02
-3.425021958599999721e+02
-3.425021807599999875e+02
-3.424974823100000094e+02
-3.424883040600000186e+02
-3.424750073199999747e+02
-3.424580939100000023e+02
-3.424381775499999776e+02
-3.424159594600000105e+02
-3.423921872899999812e+02
-3.423676312399999802e+02
-3.425614105999999879e+02
-3.425661100300000044e+02
-3.425687259800000106e+02
-3.425693344399999773e+02
-3.425681096899999716e+02
-3.425653139600000259e+02
-3.425612857500000246e+02
-3.425564219299999991e+02
-3.425511585500000251e+02
-3.425459476899999913e+02
-3.411411423000000127e+02
-3.411563338799999769e+02
-3.411742917999999918e+02
-3.411948106099999904e+02
-3.412176616899999999e+02
-3.412426005099999884e+02
-3.412693678200000136e+02
-3.412976963500000238e+02
-3.413273130599999945e+02
-3.413579483600000231e+02
-3.427018572900000208e+02
-3.427010979400000110e+02
-3.426966274999999769e+02
-3.426885594400000059e+02
-3.426771072600000139e+02
-3.426625594399999954e+02
-3.426452815100000180e+02
-3.426256935100000192e+02
-3.426042532899999742e+02
-3.425814449399999830e+02
-3.426557500000000118e+02
-3.426522173999999836e+02
-3.426449564299999793e+02
-3.426341722999999888e+02
-3.426201931800000011e+02
-3.426034574299999917e+02
-3.425844893899999875e+02
-3.425638720800000101e+02
-3.425422329200000036e+02
-3.425202080899999828e+02
-3.426822588100000075e+02
-3.426858170799999925e+02
-3.426867930199999819e+02
-3.426852226600000222e+02
-3.426812149500000260e+02
-3.426749499900000160e+02
-3.426666684599999826e+02
-3.426566654399999834e+02
-3.426452787499999886e+02
-3.426328741699999796e+02
-3.418599461599999927e+02
-3.418640459200000237e+02
-3.418716664400000127e+02
-3.418827537999999890e+02
-3.418972893900000258e+02
-3.419152743700000201e+02
-3.419367185599999743e+02
-3.419616239000000064e+02
-3.419899558399999933e+02
-3.420216320999999766e+02
-3.426244331400000078e+02
-3.426309586500000250e+02
-3.426326471799999922e+02
-3.426295437900000138e+02
-3.426218282599999725e+02
-3.426098173199999906e+02
-3.425939372600000183e+02
-3.425747055799999998e+02
-3.425527149700000109e+02
-3.425286007199999858e+02
-3.421930919900000276e+02
-3.421899657899999738e+02
-3.421852082099999848e+02
-3.421790746199999944e+02
-3.421719405100000131e+02
-3.421642742700000213e+02
-3.421566107699999861e+02
-3.421495224000000235e+02
-3.421435775799999988e+02
-3.421393157499999802e+02
-3.424607999799999902e+02
-3.424616297200000190e+02
-3.424598578000000089e+02
-3.424556099999999788e+02
-3.424490907599999900e+02
-3.424405726599999866e+02
-3.424303878800000120e+02
-3.424189177100000165e+02
-3.424065753099999938e+02
-3.423937930000000165e+02
-3.428274369299999762e+02
-3.428263061200000266e+02
-3.428201063000000204e+02
-3.428090184000000136e+02
-3.427933475599999724e+02
-3.427735045000000014e+02
-3.427499929400000269e+02
-3.427233797200000254e+02
-3.426942780200000129e+02
-3.426633193499999948e+02
-3.421427495400000112e+02
-3.421524939000000245e+02
-3.421612646500000210e+02
-3.421689642599999956e+02
-3.421755788799999891e+02
-3.421811716700000261e+02
-3.421858788399999867e+02
-3.421898834300000090e+02
-3.421934023700000012e+02
-3.421966611999999941e+02
-3.421279513999999722e+02
-3.421192179799999735e+02
-3.421063226800000052e+02
-3.420896398599999770e+02
-3.420697013999999854e+02
-3.420471694500000126e+02
-3.420228006300000061e+02
-3.419974232700000130e+02
-3.419718940600000110e+02
-3.419470705300000191e+02
-3.427404260600000043e+02
-3.427342704299999809e+02
-3.427235026399999924e+02
-3.427084871900000280e+02
-3.426897241799999847e+02
-3.426678226000000222e+02
-3.426434843499999943e+02
-3.426174680899999885e+02
-3.425905599800000232e+02
-3.425635563499999989e+02
-3.423990491999999790e+02
-3.424009931699999925e+02
-3.424006741700000021e+02
-3.423982717800000160e+02
-3.423940793200000030e+02
-3.423884931399999800e+02
-3.423819846900000243e+02
-3.423750692500000241e+02
-3.423682739399999946e+02
-3.423620996500000047e+02
-3.425467747600000052e+02
-3.425486432600000057e+02
-3.425495348499999864e+02
-3.425496494999999868e+02
-3.425492944399999828e+02
-3.425488653500000282e+02
-3.425488156100000197e+02
-3.425496253800000090e+02
-3.425517717299999845e+02
-3.425556974300000093e+02
-3.425617578399999843e+02
-3.425536132600000201e+02
-3.425411066500000175e+02
-3.425244866900000034e+02
-3.425041173600000093e+02
-3.424804696300000160e+02
-3.424540911400000027e+02
-3.424255865499999913e+02
-3.423955931300000088e+02
-3.423647642000000246e+02
-3.425076431100000036e+02
-3.424977226400000063e+02
-3.424844044399999916e+02
-3.424679806999999983e+02
-3.424488641899999948e+02
-3.424275771000000077e+02
-3.424047188200000278e+02
-3.423809516900000176e+02
-3.423569729399999915e+02
-3.423334877500000175e+02
-3.426719446800000242e+02
-3.426763284599999793e+02
-3.426755832299999724e+02
-3.426698205499999972e+02
-3.426592999800000143e+02
-3.426444233799999779e+02
-3.426257091699999933e+02
-3.426037734199999818e+02
-3.425792957099999967e+02
-3.425530032799999844e+02
-3.411327764000000116e+02
-3.411438689700000282e+02
-3.411602498099999821e+02
-3.411818099999999845e+02
-3.412084360499999889e+02
-3.412399861100000180e+02
-3.412762735499999849e+02
-3.413170404499999790e+02
-3.413619364799999971e+02
-3.414105049699999768e+02
-3.425064618600000017e+02
-3.425098569900000030e+02
-3.425100572100000136e+02
-3.425072351300000264e+02
-3.425016407699999945e+02
-3.424935954700000025e+02
-3.424834729199999970e+02
-3.424716933299999937e+02
-3.424586987299999805e+02
-3.424449402700000178e+02
-3.421465155299999878e+02
-3.421429129300000227e+02
-3.421362754200000040e+02
-3.421268245800000045e+02
-3.421148786300000211e+02
-3.421008400800000118e+02
-3.420851810400000090e+02
-3.420684178000000202e+02
-3.420510957800000256e+02
-3.420337676799999826e+02
-3.424312453599999913e+02
-3.424341785999999956e+02
-3.424332517600000187e+02
-3.424286235899999724e+02
-3.424205718200000206e+02
-3.424094806800000015e+02
-3.423958233600000085e+02
-3.423801444700000047e+02
-3.423630383600000187e+02
-3.423451332000000207e+02
-3.423224028199999793e+02
-3.423214300700000194e+02
-3.423153647400000068e+02
-3.423043991499999947e+02
-3.422888976300000081e+02
-3.422693613199999731e+02
-3.422464147200000184e+02
-3.422207860699999742e+02
-3.421932600000000093e+02
-3.421646635600000081e+02
-3.425510416800000257e+02
-3.425460740999999985e+02
-3.425391658699999766e+02
-3.425305484099999944e+02
-3.425205046500000208e+02
-3.425093608999999901e+02
-3.424974789799999826e+02
-3.424852397799999721e+02
-3.424730370999999991e+02
-3.424612639599999966e+02
-3.406035932500000172e+02
-3.406120593200000144e+02
-3.406300345999999877e+02
-3.406573127099999851e+02
-3.406935914800000091e+02
-3.407384694099999933e+02
-3.407914139299999761e+02
-3.408517395599999986e+02
-3.409185962099999756e+02
-3.409909542500000157e+02
-3.426959026700000095e+02
-3.426906798900000126e+02
-3.426818121300000257e+02
-3.426694863899999746e+02
-3.426539742100000012e+02
-3.426356151200000113e+02
-3.426148067799999808e+02
-3.425919852800000172e+02
-3.425676161200000251e+02
-3.425421721899999739e+02
-3.420692382500000122e+02
-3.420675153600000158e+02
-3.420647393899999997e+02
-3.420610137400000212e+02
-3.420565040000000181e+02
-3.420514408299999900e+02
-3.420460963599999786e+02
-3.420407882200000245e+02
-3.420358644300000037e+02
-3.420316868099999965e+02
-3.420538508199999796e+02
-3.420563730000000078e+02
-3.420559069099999761e+02
-3.420526930300000004e+02
-3.420471100199999910e+02
-3.420396544100000256e+02
-3.420309159500000078e+02
-3.420215349599999968e+02
-3.420121762499999818e+02
-3.420034885499999859e+02
-3.423741077399999995e+02
-3.423732434300000023e+02
-3.423703729999999723e+02
-3.423656029699999976e+02
-3.423591528499999868e+02
-3.423513487499999997e+02
-3.423426022500000272e+02
-3.423333865399999922e+02
-3.423242077200000040e+02
-3.423155831600000170e+02
-3.426896315600000094e+02
-3.426815222500000004e+02
-3.426709965399999760e+02
-3.426583134499999801e+02
-3.426438212200000066e+02
-3.426279477900000074e+02
-3.426111739300000067e+02
-3.425940192799999977e+02
-3.425770186699999726e+02
-3.425606956199999900e+02
-3.420270101500000237e+02
-3.420261689000000160e+02
-3.420240749000000164e+02
-3.420209428399999751e+02
-3.420170416600000181e+02
-3.420126765300000216e+02
-3.420081827000000203e+02
-3.420039080099999751e+02
-3.420002028299999779e+02
-3.419974114400000076e+02
-3.421709124999999858e+02
-3.421670488400000067e+02
-3.421635057699999720e+02
-3.421603897400000278e+02
-3.421578249899999946e+02
-3.421559532800000056e+02
-3.421549317299999871e+02
-3.421549226299999873e+02
-3.421560928900000249e+02
-3.421586075100000244e+02
-3.422111113799999771e+02
-3.422077937299999917e+02
-3.422014999300000113e+02
-3.421923806400000103e+02
-3.421806854299999827e+02
-3.421667613100000267e+02
-3.421510294799999770e+02
-3.421339757200000236e+02
-3.421161324600000171e+02
-3.420980603300000098e+02
-3.418280509100000017e+02
-3.418329801099999941e+02
-3.418405395099999851e+02
-3.418506872099999896e+02
-3.418633760800000232e+02
-3.418785539500000255e+02
-3.418961540099999752e+02
-3.419160826400000133e+02
-3.419382077600000116e+02
-3.419623559899999918e+02
-3.421009294300000079e+02
-3.421010371599999758e+02
-3.420996374999999716e+02
-3.420968508600000177e+02
-3.420928579399999876e+02
-3.420878917499999829e+02
-3.420822358199999940e+02
-3.420761937300000000e+02
-3.420700997499999971e+02
-3.420642823499999849e+02
-3.419737795199999937e+02
-3.419741485800000191e+02
-3.419724770400000011e+02
-3.419688433800000098e+02
-3.419634060700000191e+02
-3.419564007700000161e+02
-3.419481299400000012e+02
-3.419389550399999962e+02
-3.419292718899999954e+02
-3.419195124500000134e+02
-3.420029578900000047e+02
-3.420084263800000031e+02
-3.420115340500000229e+02
-3.420123487500000010e+02
-3.420110379000000194e+02
-3.420078632699999730e+02
-3.420031612799999721e+02
-3.419973230699999931e+02
-3.419907658700000184e+02
-3.419839092000000278e+02
-3.418431599900000037e+02
-3.418369933299999843e+02
-3.418311513799999943e+02
-3.418258084500000109e+02
-3.418211544399999866e+02
-3.418173949100000186e+02
-3.418147393400000169e+02
-3.418133999300000028e+02
-3.418135795000000030e+02
-3.418154658299999937e+02
-3.424530909800000131e+02
-3.424541751300000101e+02
-3.424541878900000142e+02
-3.424531745400000204e+02
-3.424512203699999873e+02
-3.424484498200000075e+02
-3.424450269899999739e+02
-3.424411467799999969e+02
-3.424370303900000181e+02
-3.424329157799999734e+02
-3.418769193699999960e+02
-3.418861249700000258e+02
-3.418969789500000047e+02
-3.419093485800000281e+02
-3.419231051699999853e+02
-3.419381239300000175e+02
-3.419542845000000284e+02
-3.419714791399999854e+02
-3.419896098400000142e+02
-3.420085923600000228e+02
-3.428343480099999852e+02
-3.428318073899999945e+02
-3.428247785600000270e+02
-3.428134774000000107e+02
-3.427982712599999786e+02
-3.427796612899999786e+02
-3.427582610300000283e+02
-3.427347653799999989e+02
-3.427099321499999860e+02
-3.426845502900000042e+02
-3.416027319699999794e+02
-3.415953012300000182e+02
-3.415870868999999743e+02
-3.415784623100000204e+02
-3.415699106399999891e+02
-3.415619946200000072e+02
-3.415553262600000153e+02
-3.415505297999999925e+02
-3.415482034699999758e+02
-3.415488859000000161e+02
-3.407825020700000209e+02
-3.407973606499999732e+02
-3.408182683399999746e+02
-3.408450013500000182e+02
-3.408773084800000106e+02
-3.409149050500000158e+02
-3.409574511800000209e+02
-3.410045360400000050e+02
-3.410556575599999860e+02
-3.411102121100000204e+02
-3.419963510000000042e+02
-3.419928578500000071e+02
-3.419885279900000228e+02
-3.419835554399999751e+02
-3.419782120400000167e+02
-3.419728244199999949e+02
-3.419677633100000094e+02
-3.419634208699999931e+02
-3.419601907399999732e+02
-3.419584535299999857e+02
-3.428938729999999850e+02
-3.428907763099999784e+02
-3.428832208399999786e+02
-3.428713744500000189e+02
-3.428555133699999828e+02
-3.428360221699999784e+02
-3.428133672399999909e+02
-3.427880833799999891e+02
-3.427607512199999746e+02
-3.427319776800000000e+02
-3.419132639499999868e+02
-3.419180190100000232e+02
-3.419218250399999874e+02
-3.419248530099999925e+02
-3.419273982400000023e+02
-3.419298609200000101e+02
-3.419327212499999860e+02
-3.419365077699999915e+02
-3.419417624100000239e+02
-3.419490073200000211e+02
-3.422538189499999817e+02
-3.422541079999999738e+02
-3.422530562599999939e+02
-3.422507115500000054e+02
-3.422471585499999946e+02
-3.422425283700000023e+02
-3.422369924600000104e+02
-3.422307529099999783e+02
-3.422240381299999967e+02
-3.422170914100000232e+02
-3.423590684100000203e+02
-3.423527205400000071e+02
-3.423439959500000214e+02
-3.423330368399999770e+02
-3.423200444999999945e+02
-3.423052769999999896e+02
-3.422890306499999724e+02
-3.422716437299999939e+02
-3.422534746800000107e+02
-3.422348958100000118e+02
-3.425359935500000006e+02
-3.425356187699999850e+02
-3.425335485699999936e+02
-3.425299001399999952e+02
-3.425248437299999864e+02
-3.425185931199999914e+02
-3.425114126600000191e+02
-3.425035895999999980e+02
-3.424954367700000262e+02
-3.424872764799999914e+02
-3.419091470500000014e+02
-3.419163189999999872e+02
-3.419236073399999896e+02
-3.419309437900000148e+02
-3.419383052800000087e+02
-3.419457153500000004e+02
-3.419532365499999855e+02
-3.419609776799999850e+02
-3.419690803699999719e+02
-3.419777214999999728e+02
-3.423028031299999725e+02
-3.423060592100000008e+02
-3.423063402399999973e+02
-3.423038025000000175e+02
-3.422987107800000217e+02
-3.422914417800000138e+02
-3.422824457599999732e+02
-3.422722372200000223e+02
-3.422613584299999729e+02
-3.422503576999999950e+02
-3.415686260699999934e+02
-3.415850418399999739e+02
-3.416015752000000134e+02
-3.416180840700000090e+02
-3.416345540899999946e+02
-3.416510827299999846e+02
-3.416678590099999724e+02
-3.416851266900000041e+02
-3.417031552799999758e+02
-3.417222004899999774e+02
-3.428932813299999793e+02
-3.428936722199999849e+02
-3.428883654900000124e+02
-3.428776025799999729e+02
-3.428617846600000121e+02
-3.428414517499999761e+02
-3.428172473000000195e+02
-3.427898975900000096e+02
-3.427601747900000078e+02
-3.427288641399999847e+02
-3.424869070899999883e+02
-3.424865194100000281e+02
-3.424824885300000119e+02
-3.424749673599999937e+02
-3.424642353500000240e+02
-3.424506807500000036e+02
-3.424347813800000040e+02
-3.424170804999999973e+02
-3.423981672900000035e+02
-3.423786420800000201e+02
-3.421893572399999925e+02
-3.421922395099999790e+02
-3.421929976000000124e+02
-3.421918309800000202e+02
-3.421890853900000025e+02
-3.421852373699999816e+02
-3.421808661200000188e+02
-3.421766080200000033e+02
-3.421731221499999833e+02
-3.421710522999999853e+02
-3.426803013900000110e+02
-3.426740299300000174e+02
-3.426644689899999889e+02
-3.426519231400000081e+02
-3.426368298500000265e+02
-3.426197432600000070e+02
-3.426013037399999916e+02
-3.425822033599999941e+02
-3.425631697000000031e+02
-3.425449179400000048e+02
-3.418785347499999716e+02
-3.418849961199999825e+02
-3.418895723699999962e+02
-3.418922891000000277e+02
-3.418932414199999812e+02
-3.418925851999999850e+02
-3.418905361500000026e+02
-3.418873606700000209e+02
-3.418833634399999823e+02
-3.418788751299999831e+02
-3.422039748799999757e+02
-3.422047051900000270e+02
-3.422052560299999868e+02
-3.422056882900000119e+02
-3.422060872999999788e+02
-3.422065648099999748e+02
-3.422072555500000135e+02
-3.422083044500000142e+02
-3.422098777200000086e+02
-3.422121422999999822e+02
-3.424657638699999893e+02
-3.424623985200000220e+02
-3.424553722800000060e+02
-3.424448513199999979e+02
-3.424311160799999811e+02
-3.424145484800000077e+02
-3.423956047400000102e+02
-3.423748056800000086e+02
-3.423527044200000091e+02
-3.423298610499999768e+02
-3.425563065700000038e+02
-3.425501984699999980e+02
-3.425410008299999731e+02
-3.425289057100000036e+02
-3.425141851700000188e+02
-3.424971732199999792e+02
-3.424782582000000275e+02
-3.424578583499999809e+02
-3.424364179500000205e+02
-3.424143875299999991e+02
-3.418960302400000160e+02
-3.418898035199999867e+02
-3.418870450699999992e+02
-3.418880183100000067e+02
-3.418930298000000221e+02
-3.419024062799999797e+02
-3.419164592999999854e+02
-3.419354523999999742e+02
-3.419595579900000075e+02
-3.419888289400000190e+02
-3.421092612900000063e+02
-3.421044816400000173e+02
-3.420986848000000009e+02
-3.420920490199999904e+02
-3.420848017199999731e+02
-3.420772307999999953e+02
-3.420696613700000057e+02
-3.420624395300000060e+02
-3.420559176900000011e+02
-3.420504352799999879e+02
-3.424126902799999925e+02
-3.424061489800000118e+02
-3.423953444499999819e+02
-3.423805263699999841e+02
-3.423620649900000217e+02
-3.423404406700000209e+02
-3.423162156999999866e+02
-3.422900141399999825e+02
-3.422624980300000175e+02
-3.422343534500000146e+02
-3.417013713900000198e+02
-3.416985762900000054e+02
-3.416962743299999943e+02
-3.416945416099999875e+02
-3.416934843299999898e+02
-3.416932327200000259e+02
-3.416939455099999918e+02
-3.416958003699999722e+02
-3.416989934599999970e+02
-3.417037261899999976e+02
-3.424931025899999781e+02
-3.424916179200000101e+02
-3.424868422100000203e+02
-3.424789975599999821e+02
-3.424684294799999975e+02
-3.424555969799999957e+02
-3.424410351199999809e+02
-3.424253425100000072e+02
-3.424091367600000240e+02
-3.423930456499999764e+02
-3.426275982399999975e+02
-3.426252275499999769e+02
-3.426183180099999959e+02
-3.426070675999999935e+02
-3.425918050999999878e+02
-3.425729817700000126e+02
-3.425511488500000041e+02
-3.425269192299999759e+02
-3.425009641799999827e+02
-3.424739672200000200e+02
-3.416479811099999893e+02
-3.416514927399999806e+02
-3.416573713399999974e+02
-3.416656171000000199e+02
-3.416762567800000170e+02
-3.416893476800000258e+02
-3.417049517099999889e+02
-3.417231205300000170e+02
-3.417438830199999984e+02
-3.417672230800000079e+02
-3.423755361400000083e+02
-3.423783566399999927e+02
-3.423793339200000219e+02
-3.423785656200000176e+02
-3.423762218800000028e+02
-3.423725345899999866e+02
-3.423677889800000003e+02
-3.423623028900000236e+02
-3.423564129299999763e+02
-3.423504571899999860e+02
-3.416890894300000241e+02
-3.416840740800000162e+02
-3.416840780399999744e+02
-3.416893246899999781e+02
-3.417000673900000152e+02
-3.417165684500000111e+02
-3.417390660899999943e+02
-3.417677314499999852e+02
-3.418026275199999873e+02
-3.418436737800000174e+02
-3.424325670800000125e+02
-3.424279875799999786e+02
-3.424197405200000048e+02
-3.424080324099999757e+02
-3.423931680700000015e+02
-3.423755358999999885e+02
-3.423555948599999965e+02
-3.423338568799999848e+02
-3.423108666100000050e+02
-3.422871867499999894e+02
-3.422508732499999837e+02
-3.422513751700000171e+02
-3.422487757499999930e+02
-3.422431331199999818e+02
-3.422345878900000002e+02
-3.422233528699999852e+02
-3.422097060799999895e+02
-3.421939756200000033e+02
-3.421765224600000010e+02
-3.421577310900000271e+02
-3.424686427500000150e+02
-3.424621450600000117e+02
-3.424528866399999742e+02
-3.424410507000000052e+02
-3.424269089499999836e+02
-3.424108085199999891e+02
-3.423931690699999990e+02
-3.423744574500000226e+02
-3.423551889299999971e+02
-3.423358945699999936e+02
-3.423865646900000002e+02
-3.423876806100000181e+02
-3.423867156900000168e+02
-3.423837387300000046e+02
-3.423788716899999827e+02
-3.423722980699999994e+02
-3.423642504000000031e+02
-3.423550055100000122e+02
-3.423448669599999903e+02
-3.423341647899999884e+02
-3.410843424999999911e+02
-3.410965998099999865e+02
-3.411141372999999817e+02
-3.411367277800000011e+02
-3.411641864499999883e+02
-3.411963554499999987e+02
-3.412330767400000013e+02
-3.412741748899999834e+02
-3.413194198900000060e+02
-3.413685008799999991e+02
-3.428373560699999985e+02
-3.428379889199999866e+02
-3.428340995400000111e+02
-3.428258217700000046e+02
-3.428134325899999908e+02
-3.427973504700000262e+02
-3.427781026600000018e+02
-3.427562914900000237e+02
-3.427325816100000111e+02
-3.427076584299999809e+02
-3.428981756900000164e+02
-3.428954482600000233e+02
-3.428894998399999849e+02
-3.428804862499999899e+02
-3.428686450999999806e+02
-3.428542813199999841e+02
-3.428377588199999764e+02
-3.428194856200000231e+02
-3.427998981499999900e+02
-3.427794500200000130e+02
-3.425967503699999952e+02
-3.425894532400000116e+02
-3.425800126999999975e+02
-3.425686025300000210e+02
-3.425554478299999914e+02
-3.425408114300000193e+02
-3.425249857399999769e+02
-3.425082861500000035e+02
-3.424910375100000124e+02
-3.424735653800000250e+02
-3.424400023700000020e+02
-3.424378895799999896e+02
-3.424322668799999860e+02
-3.424232890900000257e+02
-3.424111828299999729e+02
-3.423962469200000100e+02
-3.423788393199999973e+02
-3.423593603900000062e+02
-3.423382451499999775e+02
-3.423159477699999798e+02
-3.423866957999999840e+02
-3.423867950100000144e+02
-3.423836435800000118e+02
-3.423773752700000159e+02
-3.423682246299999861e+02
-3.423565118700000198e+02
-3.423426379599999905e+02
-3.423270724600000108e+02
-3.423103330600000049e+02
-3.422929617400000097e+02
-3.421434034499999939e+02
-3.421455191700000000e+02
-3.421453740599999946e+02
-3.421430555399999776e+02
-3.421387331399999994e+02
-3.421326461699999868e+02
-3.421250963599999864e+02
-3.421164317899999787e+02
-3.421070371399999885e+02
-3.420973147199999858e+02
-3.425592636200000243e+02
-3.425638758800000119e+02
-3.425648287600000117e+02
-3.425622716899999887e+02
-3.425564644699999803e+02
-3.425477665199999819e+02
-3.425366225600000121e+02
-3.425235359000000130e+02
-3.425090432200000237e+02
-3.424936929899999996e+02
-3.424182138300000133e+02
-3.424116520599999944e+02
-3.424018690400000082e+02
-3.423891260799999827e+02
-3.423737734700000033e+02
-3.423562464899999895e+02
-3.423370361099999855e+02
-3.423166822900000170e+02
-3.422957547600000225e+02
-3.422748383699999977e+02
-3.421613249800000176e+02
-3.421550776700000256e+02
-3.421448445699999752e+02
-3.421309448700000075e+02
-3.421137965699999768e+02
-3.420939119500000061e+02
-3.420718675300000200e+02
-3.420482840199999828e+02
-3.420238000900000088e+02
-3.419990502699999979e+02
-3.419266163300000017e+02
-3.419274511200000006e+02
-3.419288342500000226e+02
-3.419308189500000026e+02
-3.419335042899999735e+02
-3.419370136000000002e+02
-3.419414875200000097e+02
-3.419470718000000033e+02
-3.419539012700000171e+02
-3.419620840499999872e+02
-3.426147118999999748e+02
-3.426152922100000069e+02
-3.426129652600000099e+02
-3.426077866599999879e+02
-3.425998906699999793e+02
-3.425894765499999721e+02
-3.425768022500000143e+02
-3.425621755899999812e+02
-3.425459482300000218e+02
-3.425284919399999808e+02
-3.422677836600000205e+02
-3.422719558699999993e+02
-3.422742995199999996e+02
-3.422748599799999738e+02
-3.422737682100000143e+02
-3.422712405799999829e+02
-3.422675626999999849e+02
-3.422630830300000184e+02
-3.422581956399999967e+02
-3.422533214399999792e+02
-3.427878396799999905e+02
-3.427815144099999998e+02
-3.427713103099999898e+02
-3.427574228700000276e+02
-3.427401686599999948e+02
-3.427199613999999883e+02
-3.426972974999999906e+02
-3.426727457700000059e+02
-3.426469114199999808e+02
-3.426204324400000019e+02
-3.423453240599999958e+02
-3.423434823700000038e+02
-3.423393090899999720e+02
-3.423329470699999888e+02
-3.423246181100000172e+02
-3.423146133199999781e+02
-3.423032838099999822e+02
-3.422910231899999758e+02
-3.422782551600000147e+02
-3.422654152499999896e+02
-3.427193687999999838e+02
-3.427171765100000016e+02
-3.427111302700000124e+02
-3.427013669199999981e+02
-3.426881053800000245e+02
-3.426716435299999830e+02
-3.426523385500000245e+02
-3.426306089899999847e+02
-3.426069004199999881e+02
-3.425816877600000225e+02
-3.427523706900000207e+02
-3.427472955200000229e+02
-3.427382597100000226e+02
-3.427255084299999908e+02
-3.427094006599999716e+02
-3.426903826299999878e+02
-3.426689834300000257e+02
-3.426457867099999817e+02
-3.426214134900000090e+02
-3.425965060999999992e+02
-3.425385411600000225e+02
-3.425357492100000059e+02
-3.425288237899999899e+02
-3.425180085599999984e+02
-3.425036642700000016e+02
-3.424862539200000242e+02
-3.424663293899999985e+02
-3.424445003600000064e+02
-3.424214306999999735e+02
-3.423978008099999784e+02
-3.428374676099999760e+02
-3.428327073699999801e+02
-3.428240039500000194e+02
-3.428115770300000236e+02
-3.427957493499999941e+02
-3.427769410899999798e+02
-3.427556412499999965e+02
-3.427323974199999839e+02
-3.427077874899999870e+02
-3.426824102200000084e+02
-3.417183232300000100e+02
-3.417135935499999846e+02
-3.417154799300000150e+02
-3.417240780700000187e+02
-3.417394218800000090e+02
-3.417614678499999741e+02
-3.417900751899999818e+02
-3.418249940300000276e+02
-3.418658410400000207e+02
-3.419120955700000195e+02
-3.421918235599999889e+02
-3.421936534999999822e+02
-3.421932640300000230e+02
-3.421907087000000161e+02
-3.421861122899999827e+02
-3.421796696800000177e+02
-3.421716298399999800e+02
-3.421622978999999987e+02
-3.421520203300000276e+02
-3.421411702699999751e+02
-3.423537687200000050e+02
-3.423589986599999975e+02
-3.423611109999999940e+02
-3.423600815899999930e+02
-3.423559652299999811e+02
-3.423488848599999983e+02
-3.423390314000000103e+02
-3.423266459499999996e+02
-3.423120179000000007e+02
-3.422954663799999935e+02
-3.428232155399999783e+02
-3.428226501699999744e+02
-3.428177875200000244e+02
-3.428088084899999899e+02
-3.427960152599999901e+02
-3.427798103100000162e+02
-3.427606865999999854e+02
-3.427391903899999761e+02
-3.427159111400000029e+02
-3.426914439199999833e+02
-3.425768397200000095e+02
-3.425730426399999828e+02
-3.425665965499999857e+02
-3.425577344600000060e+02
-3.425467697799999769e+02
-3.425340874500000155e+02
-3.425201332699999739e+02
-3.425053979900000058e+02
-3.424904007200000251e+02
-3.424756711800000062e+02
-3.424329881200000045e+02
-3.424347991800000273e+02
-3.424321432400000162e+02
-3.424250856500000282e+02
-3.424138000300000044e+02
-3.423985583599999813e+02
-3.423797191300000122e+02
-3.423577029699999912e+02
-3.423329829200000063e+02
-3.423060586999999941e+02
-3.410119579799999769e+02
-3.410207370699999956e+02
-3.410325708799999802e+02
-3.410472881399999778e+02
-3.410646898800000031e+02
-3.410845673100000113e+02
-3.411066956700000219e+02
-3.411308459100000050e+02
-3.411567890800000100e+02
-3.411842965700000150e+02
-3.420172363799999857e+02
-3.420326034400000026e+02
-3.420500404399999752e+02
-3.420694579299999987e+02
-3.420908669099999884e+02
-3.421143600500000161e+02
-3.421400824500000226e+02
-3.421682092199999943e+02
-3.421989086899999961e+02
-3.422323025000000030e+02
-3.414950224699999808e+02
-3.414933887799999752e+02
-3.414920918700000243e+02
-3.414911570400000187e+02
-3.414906401499999902e+02
-3.414906240899999830e+02
-3.414912214600000198e+02
-3.414925702200000046e+02
-3.414948279999999841e+02
-3.414981752799999981e+02
-3.424858853499999896e+02
-3.424869990400000006e+02
-3.424850448500000084e+02
-3.424801700300000107e+02
-3.424726237099999935e+02
-3.424627418900000180e+02
-3.424509331099999940e+02
-3.424376685299999963e+02
-3.424234542400000123e+02
-3.424088110000000142e+02
-3.418416422700000226e+02
-3.418471396200000072e+02
-3.418541185099999780e+02
-3.418625348799999983e+02
-3.418724226499999759e+02
-3.418838948499999901e+02
-3.418971141499999931e+02
-3.419122838100000195e+02
-3.419296210399999723e+02
-3.419493298699999855e+02
-3.423919166700000005e+02
-3.423898136799999747e+02
-3.423858462800000098e+02
-3.423802319900000271e+02
-3.423732529600000021e+02
-3.423652361900000187e+02
-3.423565532599999983e+02
-3.423475924200000122e+02
-3.423387442399999827e+02
-3.423303891200000066e+02
-3.422011605999999801e+02
-3.421959837200000152e+02
-3.421860234200000264e+02
-3.421716044400000101e+02
-3.421532389700000181e+02
-3.421316000900000063e+02
-3.421074923900000044e+02
-3.420818138199999794e+02
-3.420555142000000046e+02
-3.420295633499999894e+02
-3.424849959800000079e+02
-3.424828309299999773e+02
-3.424774163299999827e+02
-3.424689789700000233e+02
-3.424578571399999873e+02
-3.424444942599999990e+02
-3.424294138100000282e+02
-3.424131851399999960e+02
-3.423964015799999743e+02
-3.423796543099999781e+02
-3.421548427800000240e+02
-3.421520614199999955e+02
-3.421490789399999812e+02
-3.421461163399999919e+02
-3.421434625800000049e+02
-3.421414661900000169e+02
-3.421405138399999828e+02
-3.421410168500000282e+02
-3.421433821100000046e+02
-3.421479921800000170e+02
-3.426461118600000191e+02
-3.426415801399999737e+02
-3.426347728200000233e+02
-3.426258457100000214e+02
-3.426150094600000102e+02
-3.426025256699999773e+02
-3.425886930799999845e+02
-3.425738445399999819e+02
-3.425583323999999834e+02
-3.425425123699999972e+02
-3.426156828900000164e+02
-3.426129746500000124e+02
-3.426085084700000039e+02
-3.426024599599999760e+02
-3.425951103799999942e+02
-3.425868287999999779e+02
-3.425780505999999832e+02
-3.425692665199999851e+02
-3.425609820000000241e+02
-3.425537019899999791e+02
-3.426645176600000013e+02
-3.426661326999999915e+02
-3.426637136400000259e+02
-3.426573429000000033e+02
-3.426472048699999959e+02
-3.426335804500000108e+02
-3.426168317799999841e+02
-3.425973891900000012e+02
-3.425757313299999964e+02
-3.425523709700000268e+02
-3.408343453599999862e+02
-3.408413420499999802e+02
-3.408519175399999881e+02