1.567581202412784147e-01 -6.788755555082369719e-01 1.991959624102635606e+00 -6.788755555082369719e-01 9.402260876153730740e-01 -3.450785579375992285e+00 1.991959624102635606e+00 -3.450785579375992285e+00 -3.256558848623638536e-01
1.487721167016692880e-01 -6.652420320662839615e-01 2.063007315765500227e+00 -6.652420320662839615e-01 1.022985098201785181e+00 -3.386713957473455494e+00 2.063007315765500227e+00 -3.386713957473455494e+00 -2.191472968319722048e-01
1.525978046124290277e-01 -6.503379902392291134e-01 2.136588555684598933e+00 -6.503379902392291134e-01 1.117603001672596186e+00 -3.325378784406149979e+00 2.136588555684598933e+00 -3.325378784406149979e+00 -9.562265084969627515e-02
1.687218008091037058e-01 -6.343470704449216679e-01 2.212765335894850249e+00 -6.343470704449216679e-01 1.223936757282680921e+00 -3.266962014054002772e+00 2.212765335894850249e+00 -3.266962014054002772e+00 4.350758281852670772e-02
1.962817686863122246e-01 -6.174487169375815210e-01 2.291366517499835886e+00 -6.174487169375816320e-01 1.340624498525749608e+00 -3.211615404063791868e+00 2.291366517499835886e+00 -3.211615404063791868e+00 1.963627771514470099e-01
2.344731675099494539e-01 -5.999247280741806243e-01 2.372197384189847380e+00 -5.999247280741806243e-01 1.465993401694454246e+00 -3.159748544785611735e+00 2.372197384189847380e+00 -3.159748544785611735e+00 3.608272267501587138e-01
2.820466507113235655e-01 -5.819274236807365774e-01 2.455157830579447253e+00 -5.819274236807365774e-01 1.598200628543700264e+00 -3.111679487450248693e+00 2.455157830579447253e+00 -3.111679487450248693e+00 5.344416501253352880e-01
3.375994912030865769e-01 -5.637759793466001756e-01 2.540214588630524517e+00 -5.637759793466001756e-01 1.735140813448120767e+00 -3.067827513032615805e+00 2.540214588630524517e+00 -3.067827513032615805e+00 7.144031896972296014e-01
3.995999585767723294e-01 -5.457178880013923150e-01 2.627253666169169666e+00 -5.457178880013925371e-01 1.874620598677936512e+00 -3.028607057195216612e+00 2.627253666169169666e+00 -3.028607057195216612e+00 8.977100754126930982e-01
4.664530320914723194e-01 -5.280163028706502670e-01 2.716331560769132736e+00 -5.280163028706502670e-01 2.014365253218792340e+00 -2.994426585929456763e+00 2.716331560769132736e+00 -2.994426585929456763e+00 1.081288205410067649e+00
2.929709842061298630e+01 -9.219405141525641056e+00 -6.947331168663652967e+00 -9.219405141525641056e+00 3.753149929025791209e+01 2.082913965794412547e+01 -6.947331168663652967e+00 2.082913965794412547e+01 4.256405872163166038e+01
2.907969468797223556e+01 -9.189476519654434128e+00 -6.867064098630662805e+00 -9.189476519654434128e+00 3.743519965029623364e+01 2.056110218603781448e+01 -6.867064098630662805e+00 2.056110218603781448e+01 4.213176991576474251e+01
2.881031972106645256e+01 -9.147527812852947804e+00 -6.760151348997887943e+00 -9.147527812852947804e+00 3.727251162217916658e+01 2.022229906961420909e+01 -6.760151348997887943e+00 2.022229906961420909e+01 4.153073092912082842e+01
2.848782709561038473e+01 -9.094236453653376628e+00 -6.627200872037812829e+00 -9.094236453653376628e+00 3.704239300201101059e+01 1.981453679542584112e+01 -6.627200872037812829e+00 1.981453679542584112e+01 4.075812781118156636e+01
2.811355430660349342e+01 -9.030279874587922251e+00 -6.468994320672203813e+00 -9.030279874587922251e+00 3.674623339498602093e+01 1.934002136171858766e+01 -6.468994320672203813e+00 1.934002136171858766e+01 3.981828570811404688e+01
2.768836985729219080e+01 -8.956596059162700740e+00 -6.286608638926608705e+00 -8.956596059162700740e+00 3.638510974512973917e+01 1.880174041966008858e+01 -6.286608638926608705e+00 1.880174041966008858e+01 3.871540817563089121e+01
2.721328121144230749e+01 -8.874314061598045811e+00 -6.081363951735565543e+00 -8.874314061598045811e+00 3.596029006718192278e+01 1.820322009243075456e+01 -6.081363951735565543e+00 1.820322009243075456e+01 3.745470623321055115e+01
2.668938268314431639e+01 -8.784736636763566864e+00 -5.854736714617967408e+00 -8.784736636763566864e+00 3.547354610776525163e+01 1.754859445548349228e+01 -5.854736714617967408e+00 1.754859445548349228e+01 3.604224203351294875e+01
2.611837653876117571e+01 -8.689270759918443332e+00 -5.608429193936772528e+00 -8.689270759918443332e+00 3.492718808551516219e+01 1.684250131615411661e+01 -5.608429193936772528e+00 1.684250131615411661e+01 3.448555418471689649e+01
2.550232981601934057e+01 -8.589583957295779726e+00 -5.344299986639294175e+00 -8.589583957295779726e+00 3.432408206114480009e+01 1.609003010346657447e+01 -5.344299986639294175e+00 1.609003010346657447e+01 3.279339719954619170e+01
-1.167283329571839268e+01 1.048750648698346488e+01 -1.565094022042576860e+00 1.048750648698346488e+01 -1.446830783614936600e+01 -1.300662839094359491e+01 -1.565094022042576860e+00 -1.300662839094359491e+01 2.392923860443397999e+00
-1.156153706910494527e+01 1.035542470026137707e+01 -1.432773952885382451e+00 1.035542470026137707e+01 -1.449981610583785674e+01 -1.302264830235007409e+01 -1.432773952885382451e+00 -1.302264830235007409e+01 2.496448413788713960e+00
-1.144617171167657688e+01 1.021153876829241014e+01 -1.288264820701517488e+00 1.021153876829241014e+01 -1.451996013631351268e+01 -1.302594759760541443e+01 -1.288264820701517488e+00 -1.302594759760541443e+01 2.609412617447917526e+00
-1.132670056459712171e+01 1.005682015023507958e+01 -1.132043190361197604e+00 1.005682015023507958e+01 -1.452780512725398765e+01 -1.301683787681706050e+01 -1.132043190361197604e+00 -1.301683787681706050e+01 2.731504871313559679e+00
-1.120433336946019942e+01 9.892350281756410624e+00 -9.644389913899570344e-01 9.892350281756410624e+00 -1.452386430236566461e+01 -1.299546577532969494e+01 -9.644389913899570344e-01 -1.299546577532969494e+01 2.861332139611163949e+00
-1.108053647971263267e+01 9.719283916195774253e+00 -7.859287886580111904e-01 9.719283916195774253e+00 -1.450901747371663753e+01 -1.296210623441459653e+01 -7.859287886580111904e-01 -1.296210623441459653e+01 2.997134798204550421e+00
-1.095695954298208896e+01 9.538867453982966538e+00 -5.967691940185533284e-01 9.538867453982966538e+00 -1.448440106522818738e+01 -1.291696087767070189e+01 -5.967691940185533284e-01 -1.291696087767070189e+01 3.136841622850087941e+00
-1.083532552456857623e+01 9.352255648457353132e+00 -3.971801604886059378e-01 9.352255648457353132e+00 -1.445146310092904862e+01 -1.286023132869695118e+01 -3.971801604886059378e-01 -1.286023132869695118e+01 3.277941483270102374e+00
-1.071739404860827882e+01 9.160548264704049259e+00 -1.873266528309360246e-01 9.160548264704049259e+00 -1.441168826368412503e+01 -1.279210088167419279e+01 -1.873266528309360246e-01 -1.279210088167419279e+01 3.417904919768833150e+00
-1.060508970400014306e+01 8.964863397226254804e+00 3.275467011828597785e-02 8.964863397226254804e+00 -1.436690949530193606e+01 -1.271271617194711112e+01 3.275467011828597785e-02 -1.271271617194711112e+01 3.553652590107963416e+00
-3.266067229494871160e+00 -3.746350273822316002e+00 1.331597714106617225e+01 -3.746350273822316002e+00 -1.745956045021927494e+01 -2.373624075612357487e+01 1.331597714106617225e+01 -2.373624075612357487e+01 7.549072225918493473e+00
-3.258027184619506578e+00 -3.704852678567878588e+00 1.330793709619080900e+01 -3.704852678567878588e+00 -1.751216792566512126e+01 -2.381463119365837855e+01 1.330793709619080900e+01 -2.381463119365837855e+01 7.484989413695986471e+00
-3.256620176766317876e+00 -3.652683751024321523e+00 1.327749456263999939e+01 -3.652683751024321523e+00 -1.755505425594348523e+01 -2.386542965900727253e+01 1.327749456263999939e+01 -2.386542965900727253e+01 7.413634015427128965e+00
-3.261754841788993442e+00 -3.590282039093937172e+00 1.322479572304783701e+01 -3.590282039093937172e+00 -1.758761643768871252e+01 -2.388878233480435043e+01 1.322479572304783701e+01 -2.388878233480435043e+01 7.335170486575276705e+00
-3.274107274370235299e+00 -3.518086090679018341e+00 1.315016948834104760e+01 -3.518086090679018341e+00 -1.761025647314456677e+01 -2.388468922104961933e+01 1.315016948834104760e+01 -2.388468922104961933e+01 7.249105460750355334e+00
-3.294481478997578705e+00 -3.436717181974478397e+00 1.305410922490970549e+01 -3.436717181974478397e+00 -1.762372354831080301e+01 -2.385304068076750283e+01 1.305410922490970549e+01 -2.385304068076750283e+01 7.154507023659988363e+00
-3.323827642792658743e+00 -3.346906226150806685e+00 1.293714484480241644e+01 -3.346906226150806685e+00 -1.762889475899200420e+01 -2.379369053132390732e+01 1.293714484480241644e+01 -2.379369053132390732e+01 7.050223987060661557e+00
-3.363095952877108274e+00 -3.249329317890703450e+00 1.279991589704335730e+01 -3.249329317890703450e+00 -1.762697611191947189e+01 -2.370641949876767995e+01 1.279991589704335730e+01 -2.370641949876767995e+01 6.934867615928445694e+00
-3.413200050714038092e+00 -3.144808734510967430e+00 1.264306193065670492e+01 -3.144808734510967430e+00 -1.761904570401968328e+01 -2.359084385368431569e+01 1.264306193065670492e+01 -2.359084385368431569e+01 6.807195357873512265e+00
-3.475400761522538406e+00 -3.034203298986921205e+00 1.246729558598368293e+01 -3.034203298986921205e+00 -1.760682118124327644e+01 -2.344659813948857874e+01 1.246729558598368293e+01 -2.344659813948857874e+01 6.665270292994070367e+00
-2.031338639531974621e+01 1.947720000175281463e+00 -1.780559216917298349e+00 1.947720000175281463e+00 -4.787923406452949671e+00 -2.608968572518313156e+00 -1.780559216917298349e+00 -2.608968572518313156e+00 2.711108218684228532e+01
-2.026599563937757154e+01 2.051243849819907261e+00 -1.778173287236889166e+00 2.051243849819907261e+00 -4.871339879248935745e+00 -2.727973645280098225e+00 -1.778173287236889166e+00 -2.727973645280098225e+00 2.704919372078098050e+01
-2.023292046151785328e+01 2.150123332529386033e+00 -1.763584511099425267e+00 2.150123332529386033e+00 -4.985864503908577383e+00 -2.856322091523180173e+00 -1.763584511099425267e+00 -2.856322091523180173e+00 2.690567367588308301e+01
-2.021478011066527358e+01 2.243629920157026447e+00 -1.736774675301238968e+00 2.243629920157026447e+00 -5.130969097525526657e+00 -2.993995698043892428e+00 -1.736774675301238968e+00 -2.993995698043892428e+00 2.667990280322390007e+01
-2.021297700350221760e+01 2.330780099704798491e+00 -1.697670927027661980e+00 2.330780099704798491e+00 -5.306435101655774034e+00 -3.140775906398227679e+00 -1.697670927027661980e+00 -3.140775906398227679e+00 2.637179003678510369e+01
-2.022925960758073671e+01 2.410790703415009784e+00 -1.646200413464025125e+00 2.410790703415009784e+00 -5.512772486002003980e+00 -3.296444158142178615e+00 -1.646200413464025125e+00 -3.296444158142178615e+00 2.598084362006766668e+01
-2.026568601491522870e+01 2.482860350326302257e+00 -1.582235642184657287e+00 2.482860350326302257e+00 -5.750236235415555619e+00 -3.460781894831738814e+00 -1.582235642184657287e+00 -3.460781894831738814e+00 2.550649894375791504e+01
-2.032447823635309803e+01 2.546333365106653979e+00 -1.505649120763888016e+00 2.546333365106653979e+00 -6.019554878043122059e+00 -3.633679837244904398e+00 -1.505649120763888016e+00 -3.633679837244904398e+00 2.494795462689448229e+01
-2.040805862798208992e+01 2.600645138442381654e+00 -1.416222290757710445e+00 2.600645138442381654e+00 -6.321493368438725113e+00 -3.814974066548670439e+00 -1.416222290757710445e+00 -3.814974066548670439e+00 2.430391753201699956e+01
-2.051883133268627901e+01 2.645285700630801262e+00 -1.313754806925784502e+00 2.645285700630801262e+00 -6.656962366785728058e+00 -4.004573516724700966e+00 -1.313754806925784502e+00 -4.004573516724700966e+00 2.357309452166508734e+01
5.662012941973535440e+00 3.334768712087056386e+00 -7.175449869962025495e+00 3.334768712087056386e+00 -1.504250675356661482e+01 8.387334142221579469e+00 -7.175449869962025495e+00 8.387334142221579469e+00 2.750923091188324321e+01
5.658381083635616093e+00 3.304105709104732558e+00 -7.111377384060244999e+00 3.304105709104732558e+00 -1.507571747806956530e+01 8.095141201015238153e+00 -7.111377384060244999e+00 8.095141201015238153e+00 2.744141815396181983e+01
5.605999206413603275e+00 3.268997745171523750e+00 -7.022369751360818313e+00 3.268997745171523750e+00 -1.512632859849000688e+01 7.773008014704767099e+00 -7.022369751360818313e+00 7.773008014704767099e+00 2.726961860631541867e+01
5.505409378716138669e+00 3.229607440810023267e+00 -6.908155937659421930e+00 3.229607440810023267e+00 -1.519461114903226040e+01 7.421494720645763543e+00 -6.908155937659421930e+00 7.421494720645763543e+00 2.699273006317980972e+01
5.356991048429274649e+00 3.186187761277599062e+00 -6.768826287690830057e+00 3.186187761277599062e+00 -1.528087230179455425e+01 7.041631248814653077e+00 -6.768826287690830057e+00 7.041631248814653077e+00 2.661185473031923010e+01
5.161123663439061815e+00 3.138955533937707987e+00 -6.604525353030682666e+00 3.138955533937707987e+00 -1.538594322833681183e+01 6.634574011816542161e+00 -6.604525353030682666e+00 6.634574011816542161e+00 2.612787798613446455e+01
4.918277016366325860e+00 3.088181792994673103e+00 -6.415397685254616178e+00 3.088181792994673103e+00 -1.551076351390068808e+01 6.201497491203496359e+00 -6.415397685254616178e+00 6.201497491203496359e+00 2.554210079480626305e+01
4.628993175619711131e+00 3.034191779493681018e+00 -6.201804663301728304e+00 3.034191779493681018e+00 -1.565648957109128325e+01 5.743702651156261219e+00 -6.201804663301728304e+00 5.743702651156261219e+00 2.485582412051537204e+01
4.293994899077409499e+00 2.977310734479918342e+00 -5.964071528217205653e+00 2.977310734479918342e+00 -1.582436815724848778e+01 5.262382042173854302e+00 -5.964071528217205653e+00 5.262382042173854302e+00 2.407080065111640721e+01
3.913986875670659948e+00 2.917845830051616574e+00 -5.702740348409691684e+00 2.917845830051616574e+00 -1.601580865023477074e+01 4.758782421596158940e+00 -5.702740348409691684e+00 4.758782421596158940e+00 2.318881921235789534e+01
-4.272334065409337711e+01 3.048175795281231171e+00 -4.778933991310394092e+00 3.048175795281231171e+00 -5.644381031469751520e+01 -8.866158712674881315e+00 -4.778933991310394092e+00 -8.866158712674881315e+00 -5.796458845928546566e+01
-4.256868492054136510e+01 3.132734647465565292e+00 -4.868559386290897351e+00 3.132734647465565292e+00 -5.628604865452715700e+01 -8.828111111600202676e+00 -4.868559386290897351e+00 -8.828111111600202676e+00 -5.747107613167244011e+01
-4.235045475152018213e+01 3.215274647347977854e+00 -4.947663454851769949e+00 3.215274647347977854e+00 -5.605999543283602549e+01 -8.783405180337458873e+00 -4.947663454851769949e+00 -8.783405180337458873e+00 -5.678082276482888346e+01
-4.206909662398120986e+01 3.295271669811623561e+00 -5.016149136786189011e+00 3.295271669811623561e+00 -5.576580594595503726e+01 -8.731575029893893003e+00 -5.016149136786189011e+00 -8.731575029893893003e+00 -5.589817665602046048e+01
-4.172633820960592033e+01 3.372453946277397474e+00 -5.073705839432320452e+00 3.372453946277397474e+00 -5.540491668494517796e+01 -8.672193595359486196e+00 -5.073705839432320452e+00 -8.672193595359486196e+00 -5.482802963967107246e+01
-4.132377129578619446e+01 3.446394411835278060e+00 -5.120003558086966500e+00 3.446394411835278060e+00 -5.497851178432969022e+01 -8.604989108155130850e+00 -5.120003558086966500e+00 -8.604989108155130850e+00 -5.357552590674232817e+01
-4.086302649399667075e+01 3.516743649740702082e+00 -5.154945232543302502e+00 3.516743649740702082e+00 -5.448798891108682341e+01 -8.529845096032643070e+00 -5.154945232543302502e+00 -8.529845096032643070e+00 -5.214839144969736395e+01
-4.034940329152988880e+01 3.582841650587271332e+00 -5.178239682180859838e+00 3.582841650587271332e+00 -5.393837578393001309e+01 -8.446237433875175782e+00 -5.178239682180859838e+00 -8.446237433875175782e+00 -5.055631287717712752e+01
-3.978235815122764052e+01 3.644164289258141842e+00 -5.189828670875544780e+00 3.644164289258141842e+00 -5.332866297670830846e+01 -8.354243769848189061e+00 -5.189828670875544780e+00 -8.354243769848189061e+00 -4.880226023151040238e+01
-3.917241239950956100e+01 3.700381561050114065e+00 -5.189770434751451056e+00 3.700381561050114065e+00 -5.266952711217225414e+01 -8.253708807620762755e+00 -5.189770434751451056e+00 -8.253708807620762755e+00 -4.691374037531087993e+01
-1.229675520627516860e+01 -1.688122859609100956e+01 -1.020672834596606826e+01 -1.688122859609100956e+01 1.130538872561780428e+00 -6.251791434137764725e+00 -1.020672834596606826e+01 -6.251791434137764725e+00 -5.145370918497639279e-01
-1.227893968280886838e+01 -1.683169852624963170e+01 -1.004239926908521063e+01 -1.683169852624963170e+01 1.163000286485036172e+00 -6.385881483458239138e+00 -1.004239926908521063e+01 -6.385881483458239138e+00 -4.602707887760386640e-01
-1.224964790189495645e+01 -1.676777759389457856e+01 -9.854297944634291540e+00 -1.676777759389457856e+01 1.201054098878796550e+00 -6.519443260610489510e+00 -9.854297944634291540e+00 -6.519443260610489510e+00 -3.969327774341980253e-01
-1.220918954032169346e+01 -1.669015801772903984e+01 -9.642989077344861215e+00 -1.669015801772903984e+01 1.244554579489758783e+00 -6.652549630721168228e+00 -9.642989077344861215e+00 -6.652549630721168228e+00 -3.257435486956553050e-01
-1.215805643769398614e+01 -1.659960488158285585e+01 -9.409310616173410580e+00 -1.659960488158285585e+01 1.292754860769744552e+00 -6.785036647255308750e+00 -9.409310616173410580e+00 -6.785036647255308750e+00 -2.474317538269257544e-01
-1.209699546156000416e+01 -1.649688326928586335e+01 -9.154045861231445258e+00 -1.649688326928586335e+01 1.344689479790620812e+00 -6.916795012522934272e+00 -9.154045861231445258e+00 -6.916795012522934272e+00 -1.629082069111534026e-01
-1.202711780510118977e+01 -1.638284934607622034e+01 -8.877868814940491404e+00 -1.638284934607622034e+01 1.399119729399312284e+00 -7.047697212552403556e+00 -8.877868814940491404e+00 -7.047697212552403556e+00 -7.355734535471737667e-02
-1.194953466149897459e+01 -1.625843214231873546e+01 -8.581398830877088102e+00 -1.625843214231873546e+01 1.454770469879416828e+00 -7.177633949653740686e+00 -8.581398830877088102e+00 -7.177633949653740686e+00 1.923639343600335588e-02
-1.186543008906144792e+01 -1.612450603953322670e+01 -8.265073099801142575e+00 -1.612450603953322670e+01 1.510239047542892177e+00 -7.306623440108608314e+00 -8.265073099801142575e+00 -7.306623440108608314e+00 1.140521394913039804e-01
-1.177615209263166385e+01 -1.598196363552117916e+01 -7.929128433374272866e+00 -1.598196363552117916e+01 1.564013511011719926e+00 -7.434538169945366093e+00 -7.929128433374272866e+00 -7.434538169945366093e+00 2.091593460532107374e-01
5.301686657977993988e+00 -1.260813277223293838e+01 -1.685624652478913177e+01 -1.260813277223293838e+01 -1.476196214291065623e+00 -1.260394784724008055e+01 -1.685624652478913177e+01 -1.260394784724008055e+01 1.089004067796676090e+01
5.284730496369000718e+00 -1.261933466197675280e+01 -1.692203282413807131e+01 -1.261933466197675280e+01 -1.427835076765840316e+00 -1.256644586853252932e+01 -1.692203282413807131e+01 -1.256644586853252932e+01 1.093596662206941694e+01
5.255941098573305048e+00 -1.261783746898361613e+01 -1.694376918024321554e+01 -1.261783746898361613e+01 -1.379834708636550777e+00 -1.252263042539609650e+01 -1.694376918024321554e+01 -1.252263042539609650e+01 1.094751124273937037e+01
5.215985887973388913e+00 -1.260329846232739470e+01 -1.692134736228578973e+01 -1.260329846232739470e+01 -1.332555879299133661e+00 -1.247248347936098867e+01 -1.692134736228578973e+01 -1.247248347936098867e+01 1.092400711659413837e+01
5.164522133643113300e+00 -1.257535687261214896e+01 -1.685446071627924880e+01 -1.257535687261214896e+01 -1.287333435518551505e+00 -1.241598699195740707e+01 -1.685446071627924880e+01 -1.241598699195740707e+01 1.086458839708347490e+01
5.100900450669793251e+00 -1.253392250748889580e+01 -1.674305512681420183e+01 -1.253392250748889580e+01 -1.245808878046314128e+00 -1.235287038613839705e+01 -1.674305512681420183e+01 -1.235287038613839705e+01 1.076795631438200651e+01
5.024399300261557677e+00 -1.247892321307844732e+01 -1.658705844001146090e+01 -1.247892321307844732e+01 -1.209587630694336280e+00 -1.228277289250802617e+01 -1.658705844001146090e+01 -1.228277289250802617e+01 1.063301052183213358e+01
4.934116758928564828e+00 -1.241044918172978839e+01 -1.638654280975021393e+01 -1.241044918172978839e+01 -1.180690002079859857e+00 -1.220526158779116699e+01 -1.638654280975021393e+01 -1.220526158779116699e+01 1.045814559562193757e+01
4.828880326134023626e+00 -1.232868079814088702e+01 -1.614152627450025435e+01 -1.232868079814088702e+01 -1.161118262350329999e+00 -1.211974120248452991e+01 -1.614152627450025435e+01 -1.211974120248452991e+01 1.024170199653011259e+01
4.707589655220329128e+00 -1.223397883170767741e+01 -1.585202687273138622e+01 -1.223397883170767741e+01 -1.152946835532378644e+00 -1.202541804391705504e+01 -1.585202687273138622e+01 -1.202541804391705504e+01 9.981857839107183494e+00
-2.767810489754364056e+01 -3.781221343860281525e+00 -2.207208542574645271e+00 -3.781221343860281525e+00 -8.543891435655348587e+00 -1.596300696042922462e+00 -2.207208542574645271e+00 -1.596300696042922462e+00 -3.363029369968207760e+01
-2.759425553053939240e+01 -3.738692022144793015e+00 -2.132493863655395838e+00 -3.738692022144793015e+00 -8.464004774480235582e+00 -1.543259971541234066e+00 -2.132493863655395838e+00 -1.543259971541234066e+00 -3.338620590400962840e+01
-2.745388644377501564e+01 -3.692423245632797446e+00 -2.052997891787379459e+00 -3.692423245632797446e+00 -8.343337591345211024e+00 -1.492749425409320985e+00 -2.052997891787379459e+00 -1.492749425409320985e+00 -3.301432549641080527e+01
-2.725751855632664089e+01 -3.642675473862360569e+00 -1.968218312147185456e+00 -3.642675473862360569e+00 -8.182466618084566434e+00 -1.444564410867275051e+00 -1.968218312147185456e+00 -1.444564410867275051e+00 -3.251744311479344418e+01
-2.700608208083021111e+01 -3.589634749360672394e+00 -1.878043499218499335e+00 -3.589634749360672394e+00 -7.982359275839683299e+00 -1.398742136420533910e+00 -1.878043499218499335e+00 -1.398742136420533910e+00 -3.189831218855995587e+01
-2.670112117026139842e+01 -3.533524323160359248e+00 -1.782361827485007932e+00 -3.533524323160359248e+00 -7.744410883564483150e+00 -1.355412831838130661e+00 -1.782361827485007932e+00 -1.355412831838130661e+00 -3.116035590021061097e+01
-2.634449624989210292e+01 -3.474548842041329966e+00 -1.681005858672241171e+00 -3.474548842041329966e+00 -7.470221406992794577e+00 -1.314669518383659197e+00 -1.681005858672241171e+00 -1.314669518383659197e+00 -3.030785322787077618e+01
-2.593836541303771881e+01 -3.413005974047087498e+00 -1.573789550253009040e+00 -3.413005974047087498e+00 -7.161725688407386770e+00 -1.276623821573433792e+00 -1.573789550253009040e+00 -1.276623821573433792e+00 -2.934562267299465077e+01
-2.548516581680441817e+01 -3.349156178715697152e+00 -1.460526859700122637e+00 -3.349156178715697152e+00 -6.820951591354623922e+00 -1.241480388187362394e+00 -1.460526859700122637e+00 -1.241480388187362394e+00 -2.827872459232179025e+01
-2.498757647358374001e+01 -3.283297124090660990e+00 -1.341031744486392618e+00 -3.283297124090660990e+00 -6.450131626160779064e+00 -1.209406656499915744e+00 -1.341031744486392618e+00 -1.209406656499915744e+00 -2.711288909568962424e+01
3.053004683831370869e+01 1.372153706719395672e+01 -7.984121819138698228e+00 1.372153706719395672e+01 2.832083675372703979e+01 2.259124125599089439e+01 -7.984121819138698228e+00 2.259124125599089439e+01 5.008203502484288094e+01
3.054279529540410820e+01 1.365061942064735057e+01 -8.140273002571129624e+00 1.365061942064735057e+01 2.818816223717692893e+01 2.247586075295276586e+01 -8.140273002571129624e+00 2.247586075295276586e+01 4.992938444233281103e+01
3.047246979030705916e+01 1.355573746131878821e+01 -8.275559907869270759e+00 1.355573746131878821e+01 2.797878798698456748e+01 2.228674122352015630e+01 -8.275559907869270759e+00 2.228674122352015630e+01 4.955562127618922119e+01
3.031861750897289909e+01 1.343807547210737852e+01 -8.389198818408713620e+00 1.343807547210737852e+01 2.769449042749862144e+01 2.202497987096723264e+01 -8.389198818408713620e+00 2.202497987096723264e+01 4.896224329596097391e+01
3.008071597365201200e+01 1.329946212513674020e+01 -8.480214442390185070e+00 1.329946212513674020e+01 2.733722014231761221e+01 2.169226604001773850e+01 -8.480214442390185070e+00 2.169226604001773850e+01 4.815214154519591006e+01
2.975881743211937192e+01 1.314191766770535530e+01 -8.547492160614533319e+00 1.314191766770535530e+01 2.690936311316474772e+01 2.129072447352006137e+01 -8.547492160614533319e+00 2.129072447352006137e+01 4.712989641216556436e+01
2.935328761879969761e+01 1.296796740893632460e+01 -8.589778026482695950e+00 1.296796740893632460e+01 2.641347948101310195e+01 2.082301980799719843e+01 -8.589778026482695950e+00 2.082301980799719843e+01 4.590113324064071065e+01
2.886513665734223011e+01 1.278025856942765159e+01 -8.605852925245592644e+00 1.278025856942765159e+01 2.585252995311044444e+01 2.029232174179676562e+01 -8.605852925245592644e+00 2.029232174179676562e+01 4.447318413504082457e+01
2.829640221097043806e+01 1.258180410420206918e+01 -8.594654485479022554e+00 1.258180410420206918e+01 2.523010221000407682e+01 1.970240953064091372e+01 -8.594654485479022554e+00 1.970240953064091372e+01 4.285512279228407095e+01
2.765013206655701694e+01 1.237575629568220492e+01 -8.555189999458736594e+00 1.237575629568220492e+01 2.455034124184087219e+01 1.905756749207642287e+01 -8.555189999458736594e+00 1.905756749207642287e+01 4.105842630693682338e+01
-2.369940961298136806e+00 -1.809858955298935612e+01 5.936158096084169777e+00 -1.809858955298935612e+01 -1.017725082237340217e+01 1.730697099212365586e+00 5.936158096084169777e+00 1.730697099212365586e+00 -2.262154521347613567e+01
-2.423361047655812062e+00 -1.792796803446143983e+01 6.002910280890877637e+00 -1.792796803446143983e+01 -1.018614500084352414e+01 1.522554984499143504e+00 6.002910280890877637e+00 1.522554984499143504e+00 -2.272099496573074617e+01
-2.444156920614824813e+00 -1.774317084591825378e+01 6.062308722261461114e+00 -1.774317084591825378e+01 -1.015234712265705319e+01 1.305940477098916030e+00 6.062308722261461114e+00 1.305940477098916030e+00 -2.272778021528527503e+01
-2.430458051919602180e+00 -1.754502322041373219e+01 6.113821603338945643e+00 -1.754502322041373219e+01 -1.007426173724305229e+01 1.080725207425516476e+00 6.113821603338945643e+00 1.080725207425516476e+00 -2.264025049603186091e+01
-2.382997982062525555e+00 -1.733453377612488566e+01 6.156917107266352218e+00 -1.733453377612488566e+01 -9.953007493852407350e+00 8.472942842374455719e-01 6.156917107266352218e+00 8.472942842374455719e-01 -2.245950611870908631e+01
-2.302546928560595507e+00 -1.711267445420413225e+01 6.191045078674397573e+00 -1.711267445420413225e+01 -9.789794734297545986e+00 6.059594622439650191e-01 6.191045078674397573e+00 6.059594622439650191e-01 -2.218695914876477815e+01
-2.190443602812408130e+00 -1.688047221134079834e+01 6.215802070292268944e+00 -1.688047221134079834e+01 -9.586328940223253881e+00 3.570508346666464994e-01 6.215802070292268944e+00 3.570508346666464994e-01 -2.182517697792227196e+01
-2.048393486462749991e+00 -1.663906403529808387e+01 6.230857988898397259e+00 -1.663906403529808387e+01 -9.344700702032820772e+00 1.008251406778234299e-01 6.230857988898397259e+00 1.008251406778234299e-01 -2.137742386137266593e+01
-1.878285446279503335e+00 -1.638947688276530812e+01 6.235956095320448256e+00 -1.638947688276530812e+01 -9.067147318228009567e+00 -1.624975575747896195e-01 6.235956095320448256e+00 -1.624975575747896195e-01 -2.084725747050400457e+01
-1.682338442252121702e+00 -1.613273771043182236e+01 6.230931342947635621e+00 -1.613273771043182236e+01 -8.756217842019843545e+00 -4.329172600911927460e-01 6.230931342947635621e+00 -4.329172600911927460e-01 -2.023907904827058601e+01
1.484476105797122081e+01 -3.107793591863956983e+00 -3.414457636554169451e+00 -3.107793591863956983e+00 4.703193438939550930e+01 -9.634658011235927688e+00 -3.414457636554169451e+00 -9.634658011235927688e+00 4.262665037729452422e+01
1.488403411001601739e+01 -3.138762900191834238e+00 -3.297770017823555833e+00 -3.138762900191834238e+00 4.705914351188931732e+01 -9.590719543434037320e+00 -3.297770017823555833e+00 -9.590719543434037320e+00 4.269866838097772899e+01
1.489559319980225283e+01 -3.165414958117624522e+00 -3.159269839601750007e+00 -3.165414958117624522e+00 4.700582198776998410e+01 -9.538233616166722939e+00 -3.159269839601750007e+00 -9.538233616166722939e+00 4.261265413002323754e+01
1.487874199661990993e+01 -3.187662724302575246e+00 -2.999235634172757958e+00 -3.187662724302575246e+00 4.687177832609226868e+01 -9.477322087308237997e+00 -2.999235634172757958e+00 -9.477322087308237997e+00 4.236695383899476042e+01
1.483219228865546846e+01 -3.205384340872433846e+00 -2.818085199962588216e+00 -3.205384340872433846e+00 4.665680362764316413e+01 -9.408315713945841097e+00 -2.818085199962588216e+00 -9.408315713945841097e+00 4.196146305828579415e+01
1.475415102433063552e+01 -3.218632032630452500e+00 -2.616427826342503149e+00 -3.218632032630452500e+00 4.636088048415491869e+01 -9.331597477970037247e+00 -2.616427826342503149e+00 -9.331597477970037247e+00 4.139651254498360089e+01
1.464242476190887210e+01 -3.227405799576629875e+00 -2.394942435754766397e+00 -3.227405799576629875e+00 4.598420038657278752e+01 -9.247672219145586681e+00 -2.394942435754766397e+00 -9.247672219145586681e+00 4.067265936365618728e+01
1.449466338524387865e+01 -3.231827499585219421e+00 -2.154360175444892445e+00 -3.231827499585219421e+00 4.552735521600028079e+01 -9.157131818576003113e+00 -2.154360175444892445e+00 -9.157131818576003113e+00 3.979091319383307024e+01
1.430829047070860582e+01 -3.232106031869224960e+00 -1.895551458800399880e+00 -3.232106031869224960e+00 4.499119797755717087e+01 -9.060690015239048378e+00 -1.895551458800399880e+00 -9.060690015239048378e+00 3.875271892173753940e+01
1.408078181947924357e+01 -3.228432887373901217e+00 -1.619404107476555499e+00 -3.228432887373901217e+00 4.437715614919898144e+01 -8.959130181183493136e+00 -1.619404107476555499e+00 -8.959130181183493136e+00 3.756023517257063560e+01