 vasp.6.1.1 19Jun20 (build Dec 21 2021 08:45:49) complex                        
  
 executed on             LinuxIFC date 2023.10.08  07:49:23
 running on   40 total cores
 distrk:  each k-point on   40 cores,    1 groups
 distr:  one band on NCORE=   1 cores,   40 groups


--------------------------------------------------------------------------------------------------------


 INCAR:
 POTCAR:   PAW_PBE Te 08Apr2002                   
 POTCAR:   PAW_PBE Mo 08Apr2002                   
 -----------------------------------------------------------------------------
|                                                                             |
|           W    W    AA    RRRRR   N    N  II  N    N   GGGG   !!!           |
|           W    W   A  A   R    R  NN   N  II  NN   N  G    G  !!!           |
|           W    W  A    A  R    R  N N  N  II  N N  N  G       !!!           |
|           W WW W  AAAAAA  RRRRR   N  N N  II  N  N N  G  GGG   !            |
|           WW  WW  A    A  R   R   N   NN  II  N   NN  G    G                |
|           W    W  A    A  R    R  N    N  II  N    N   GGGG   !!!           |
|                                                                             |
|     For optimal performance we recommend to set                             |
|       NCORE = 4 - approx SQRT(number of cores).                             |
|     NCORE specifies how many cores store one orbital (NPAR=cpu/NCORE).      |
|     This setting can greatly improve the performance of VASP for DFT.       |
|     The default, NCORE=1 might be grossly inefficient on modern             |
|     multi-core architectures or massively parallel machines. Do your        |
|     own testing!!!!                                                         |
|     Unfortunately you need to use the default for GW and RPA                |
|     calculations (for HF NCORE is supported but not extensively tested      |
|     yet).                                                                   |
|                                                                             |
 -----------------------------------------------------------------------------

 POTCAR:   PAW_PBE Te 08Apr2002                   
   VRHFIN =Te: s2p4                                                                                 
   LEXCH  = PE                                                                                      
   EATOM  =   223.2721 eV,   16.4100 Ry                                                             
                                                                                                    
   TITEL  = PAW_PBE Te 08Apr2002                                                                    
   LULTRA =        F    use ultrasoft PP ?                                                          
   IUNSCR =        1    unscreen: 0-lin 1-nonlin 2-no                                               
   RPACOR =    2.200    partial core radius                                                         
   POMASS =  127.600; ZVAL   =    6.000    mass and valenz                                          
   RCORE  =    2.300    outmost cutoff radius                                                       
   RWIGS  =    2.900; RWIGS  =    1.535    wigner-seitz radius (au A)                               
   ENMAX  =  174.982; ENMIN  =  131.236 eV                                                          
   ICORE  =        3    local potential                                                             
   LCOR   =        T    correct aug charges                                                         
   LPAW   =        T    paw PP                                                                      
   EAUG   =  368.792                                                                                
   DEXC   =    -.169                                                                                
   RMAX   =    3.486    core radius for proj-oper                                                   
   RAUG   =    1.300    factor for augmentation sphere                                              
   RDEP   =    2.397    radius for radial grids                                                     
   QCUT   =   -3.586; QGAM   =    7.172    optimization parameters                                  
                                                                                                    
   Description                                                                                      
     l     E      TYP  RCUT    TYP  RCUT                                                            
     0   .000     23  2.300                                                                         
     0   .000     23  2.300                                                                         
     1   .000     23  2.300                                                                         
     1   .000     23  2.300                                                                         
     2   .000     23  2.300                                                                         
     3  -.100     23  2.300                                                                         
  local pseudopotential read in
  partial core-charges read in
  atomic valenz-charges read in
  non local Contribution for L=           0  read in
    real space projection operators read in
  non local Contribution for L=           0  read in
    real space projection operators read in
  non local Contribution for L=           1  read in
    real space projection operators read in
  non local Contribution for L=           1  read in
    real space projection operators read in
  non local Contribution for L=           2  read in
    real space projection operators read in
    PAW grid and wavefunctions read in
 
   number of l-projection  operators is LMAX  =           5
   number of lm-projection operators is LMMAX =          13
 
 POTCAR:   PAW_PBE Mo 08Apr2002                   
   VRHFIN =Mo: 4p5s4d                                                                               
   LEXCH  = PE                                                                                      
   EATOM  =   217.5180 eV,   15.9871 Ry                                                             
                                                                                                    
   TITEL  = PAW_PBE Mo 08Apr2002                                                                    
   LULTRA =        F    use ultrasoft PP ?                                                          
   IUNSCR =        1    unscreen: 0-lin 1-nonlin 2-no                                               
   RPACOR =    2.200    partial core radius                                                         
   POMASS =   95.940; ZVAL   =    6.000    mass and valenz                                          
   RCORE  =    2.750    outmost cutoff radius                                                       
   RWIGS  =    2.750; RWIGS  =    1.455    wigner-seitz radius (au A)                               
   ENMAX  =  224.584; ENMIN  =  168.438 eV                                                          
   RCLOC  =    2.111    cutoff for local pot                                                        
   LCOR   =        T    correct aug charges                                                         
   LPAW   =        T    paw PP                                                                      
   EAUG   =  345.278                                                                                
   DEXC   =    -.088                                                                                
   RMAX   =    3.077    core radius for proj-oper                                                   
   RAUG   =    1.300    factor for augmentation sphere                                              
   RDEP   =    2.815    radius for radial grids                                                     
   QCUT   =   -4.063; QGAM   =    8.126    optimization parameters                                  
                                                                                                    
   Description                                                                                      
     l     E      TYP  RCUT    TYP  RCUT                                                            
     2   .000     23  2.500                                                                         
     2   .000     23  2.500                                                                         
     0   .000     23  2.600                                                                         
     0  1.000     23  2.600                                                                         
     1   .400     23  2.750                                                                         
     1  2.000     23  2.750                                                                         
     3   .000      7   .000                                                                         
  local pseudopotential read in
  partial core-charges read in
  atomic valenz-charges read in
  non local Contribution for L=           2  read in
    real space projection operators read in
  non local Contribution for L=           2  read in
    real space projection operators read in
  non local Contribution for L=           0  read in
    real space projection operators read in
  non local Contribution for L=           0  read in
    real space projection operators read in
  non local Contribution for L=           1  read in
    real space projection operators read in
  non local Contribution for L=           1  read in
    real space projection operators read in
    PAW grid and wavefunctions read in
 
   number of l-projection  operators is LMAX  =           6
   number of lm-projection operators is LMMAX =          18
 
 -----------------------------------------------------------------------------
|                                                                             |
|               ----> ADVICE to this user running VASP <----                  |
|                                                                             |
|     You have a (more or less) 'large supercell' and for larger cells it     |
|     might be more efficient to use real-space projection operators.         |
|     Therefore, try LREAL= Auto in the INCAR file.                           |
|     Mind: If you want to do very accurate calculations, keep the            |
|     reciprocal projection scheme (i.e. LREAL=.FALSE.).                      |
|                                                                             |
 -----------------------------------------------------------------------------

 PAW_PBE Te 08Apr2002                   :
 energy of atom  1       EATOM= -223.2721
 kinetic energy error for atom=    0.0006 (will be added to EATOM!!)
 PAW_PBE Mo 08Apr2002                   :
 energy of atom  2       EATOM= -217.5180
 kinetic energy error for atom=    0.0009 (will be added to EATOM!!)
 
 
 POSCAR: Te Mo
  positions in cartesian coordinates
  No initial velocities read in
 exchange correlation table for  LEXCH =        8
   RHO(1)=    0.500       N(1)  =     2000
   RHO(2)=  100.500       N(2)  =     4000
 


--------------------------------------------------------------------------------------------------------


 ion  position               nearest neighbor table
   1  0.111  0.222  0.321-  41 2.73  37 2.74  38 2.77   4 3.45   7 3.45   3 3.54   2 3.54   9 3.55
                             5 3.56
   2  0.111  0.556  0.321-  42 2.73  38 2.74  39 2.77   8 3.45   5 3.45   3 3.54   1 3.54   7 3.55
                             6 3.56
   3  0.111  0.889  0.321-  40 2.73  39 2.74  37 2.78   6 3.45   9 3.45   1 3.54   2 3.54   8 3.55
                             4 3.56
   4  0.445  0.223  0.321-  44 2.74  40 2.75  41 2.77   7 3.44   1 3.45   5 3.53   6 3.54   8 3.55
                             3 3.56
   5  0.445  0.555  0.321-  45 2.73  41 2.74  42 2.77   8 3.44   2 3.45   4 3.53   6 3.55   9 3.55
                             1 3.56
   6  0.445  0.889  0.321-  43 2.73  42 2.75  40 2.78   3 3.45   9 3.45   4 3.54   5 3.55   7 3.55
                             2 3.56
   7  0.777  0.222  0.321-  38 2.74  43 2.75  44 2.77   4 3.44   1 3.45   8 3.54   9 3.54   6 3.55
                             2 3.55
   8  0.778  0.556  0.321-  39 2.73  44 2.74  45 2.77   5 3.44   2 3.45   9 3.54   7 3.54   3 3.55
                             4 3.55
   9  0.778  0.889  0.321-  37 2.73  45 2.74  43 2.77   6 3.45   3 3.45   8 3.54   7 3.54   1 3.55
                             5 3.55
  10  0.000  0.055  0.558-  46 2.73  54 2.73  52 2.78  13 3.44  16 3.46  12 3.53  11 3.54  14 3.55
                            18 3.56
  11  0.001  0.389  0.558-  47 2.73  52 2.75  53 2.78  14 3.44  17 3.46  12 3.54  10 3.54  15 3.55
                            16 3.56
  12  1.000  0.722  0.558-  48 2.73  53 2.74  54 2.77  15 3.44  18 3.45  10 3.53  11 3.54  17 3.55
                            13 3.55
  13  0.333  0.056  0.558-  48 2.74  49 2.74  46 2.78  10 3.44  16 3.45  15 3.53  14 3.54  17 3.55
                            12 3.55
  14  0.333  0.389  0.559-  50 2.73  46 2.74  47 2.77  11 3.44  17 3.45  13 3.54  15 3.55  18 3.55
                            10 3.55
  15  0.333  0.723  0.558-  51 2.74  47 2.74  48 2.77  12 3.44  18 3.45  13 3.53  16 3.55  14 3.55
                            11 3.55
  16  0.666  0.055  0.558-  52 2.74  51 2.74  49 2.78  13 3.45  10 3.46  18 3.54  17 3.54  15 3.55
                            11 3.56
  17  0.666  0.389  0.558-  53 2.73  49 2.74  50 2.77  14 3.45  11 3.46  18 3.54  16 3.54  13 3.55
                            12 3.55
  18  0.666  0.721  0.558-  54 2.74  50 2.74  51 2.77  12 3.45  15 3.45  17 3.54  16 3.54  14 3.55
                            10 3.56
  19  0.112  0.223  0.442-  38 2.70  41 2.74  37 2.82  22 3.45  25 3.45  20 3.54  23 3.55  21 3.55
                            27 3.56
  20  0.111  0.556  0.442-  39 2.69  42 2.75  38 2.81  26 3.45  23 3.46  19 3.54  21 3.54  24 3.55
                            25 3.55
  21  0.111  0.889  0.442-  37 2.70  40 2.74  39 2.81  24 3.44  27 3.46  20 3.54  19 3.55  26 3.55
                            22 3.56
  22  0.445  0.223  0.441-  41 2.69  44 2.74  40 2.80  25 3.44  19 3.45  23 3.53  24 3.54  26 3.55
                            21 3.56
  23  0.445  0.555  0.442-  42 2.70  45 2.74  41 2.81  26 3.44  20 3.46  22 3.53  19 3.55  24 3.55
                            27 3.55
  24  0.444  0.889  0.442-  40 2.69  43 2.75  42 2.81  21 3.44  27 3.45  22 3.54  23 3.55  20 3.55
                            25 3.55
  25  0.778  0.222  0.442-  44 2.70  38 2.75  43 2.81  22 3.44  19 3.45  27 3.54  26 3.54  24 3.55
                            20 3.55
  26  0.778  0.556  0.442-  45 2.70  39 2.75  44 2.81  23 3.44  20 3.45  25 3.54  27 3.54  22 3.55
                            21 3.55
  27  0.777  0.889  0.441-  43 2.69  37 2.74  45 2.80  24 3.45  21 3.46  25 3.54  26 3.54  23 3.55
                            19 3.56
  28  1.000  0.055  0.679-  52 2.69  46 2.74  54 2.81  34 3.45  31 3.45  29 3.54  30 3.54  36 3.55
                            32 3.55
  29  0.001  0.389  0.680-  53 2.70  47 2.74  52 2.82  32 3.44  35 3.46  30 3.54  28 3.54  33 3.55
                            34 3.56
  30  0.999  0.722  0.679-  54 2.70  48 2.75  53 2.80  33 3.45  36 3.45  29 3.54  28 3.54  35 3.55
                            31 3.56
  31  0.334  0.056  0.679-  46 2.69  49 2.74  48 2.81  34 3.45  28 3.45  33 3.53  32 3.54  35 3.55
                            30 3.56
  32  0.333  0.389  0.679-  47 2.70  50 2.75  46 2.81  29 3.44  35 3.45  31 3.54  33 3.55  28 3.55
                            36 3.55
  33  0.333  0.723  0.679-  48 2.69  51 2.75  47 2.81  30 3.45  36 3.45  31 3.53  32 3.55  34 3.55
                            29 3.55
  34  0.667  0.056  0.679-  49 2.69  52 2.74  51 2.81  28 3.45  31 3.45  36 3.54  35 3.54  33 3.55
                            29 3.56
  35  0.667  0.389  0.679-  50 2.69  53 2.74  49 2.80  32 3.45  29 3.46  36 3.54  34 3.54  30 3.55
                            31 3.55
  36  0.666  0.722  0.679-  51 2.69  54 2.75  50 2.81  30 3.45  33 3.45  34 3.54  35 3.54  28 3.55
                            32 3.55
  37  1.000  0.000  0.381-  21 2.70   9 2.73   1 2.74  27 2.74   3 2.78  19 2.82  43 3.44  40 3.45

  38  1.000  0.333  0.381-  19 2.70   7 2.74   2 2.74  25 2.75   1 2.77  20 2.81  41 3.44  44 3.44

  39  0.000  0.667  0.381-  20 2.69   8 2.73   3 2.74  26 2.75   2 2.77  21 2.81  42 3.45  45 3.45

  40  0.333  0.001  0.381-  24 2.69   3 2.73  21 2.74   4 2.75   6 2.78  22 2.80  37 3.45  43 3.45

  41  0.333  0.333  0.381-  22 2.69   1 2.73  19 2.74   5 2.74   4 2.77  23 2.81  38 3.44  44 3.46

  42  0.333  0.667  0.381-  23 2.70   2 2.73   6 2.75  20 2.75   5 2.77  24 2.81  45 3.44  39 3.45

  43  0.667  0.000  0.381-  27 2.69   6 2.73   7 2.75  24 2.75   9 2.77  25 2.81  37 3.44  40 3.45

  44  0.668  0.334  0.381-  25 2.70   4 2.74   8 2.74  22 2.74   7 2.77  26 2.81  38 3.44  41 3.46

  45  0.667  0.667  0.381-  26 2.70   5 2.73   9 2.74  23 2.74   8 2.77  27 2.80  42 3.44  39 3.45

  46  0.222  0.166  0.619-  31 2.69  10 2.73  28 2.74  14 2.74  13 2.78  32 2.81  52 3.45  49 3.46

  47  0.222  0.501  0.619-  32 2.70  11 2.73  15 2.74  29 2.74  14 2.77  33 2.81  53 3.44  50 3.46

  48  0.222  0.834  0.619-  33 2.69  12 2.73  13 2.74  30 2.75  15 2.77  31 2.81  54 3.45  51 3.45

  49  0.556  0.167  0.619-  34 2.69  13 2.74  17 2.74  31 2.74  16 2.78  35 2.80  52 3.44  46 3.46

  50  0.556  0.500  0.619-  35 2.69  14 2.73  18 2.74  32 2.75  17 2.77  36 2.81  53 3.45  47 3.46

  51  0.556  0.833  0.619-  36 2.69  15 2.74  16 2.74  33 2.75  18 2.77  34 2.81  54 3.45  48 3.45

  52  0.889  0.167  0.619-  28 2.69  16 2.74  34 2.74  11 2.75  10 2.78  29 2.82  49 3.44  46 3.45

  53  0.889  0.501  0.619-  29 2.70  17 2.73  12 2.74  35 2.74  11 2.78  30 2.80  47 3.44  50 3.45

  54  0.889  0.834  0.619-  30 2.70  10 2.73  18 2.74  36 2.75  12 2.77  28 2.81  48 3.45  51 3.45

 

IMPORTANT INFORMATION: All symmetrisations will be switched off!
NOSYMM: (Re-)initialisation of all symmetry stuff for point group C_1.


----------------------------------------------------------------------------------------

                                     Primitive cell                                     

  volume of cell :    2952.7669

  direct lattice vectors                    reciprocal lattice vectors
    10.347681842  0.000000000  0.000000000     0.096640003  0.053369707  0.000590605
    -5.134259756  9.296938343  0.000000000     0.000000000  0.107562292 -0.002611333
    -0.599095530  0.745157948 30.693481447     0.000000000  0.000000000  0.032580208

  length of vectors
    10.347681842 10.620437176 30.708369855     0.110399115  0.107593986  0.032580208

  position of ions in fractional coordinates (direct lattice)
     0.110845106  0.222053513  0.320728365
     0.111098253  0.555600716  0.320667099
     0.111208680  0.888998355  0.320712338
     0.444786415  0.222876566  0.320599172
     0.444753856  0.555358705  0.320813018
     0.444579502  0.889182300  0.320609529
     0.777365595  0.222481349  0.320553211
     0.777990361  0.556000919  0.320775775
     0.777744839  0.888917553  0.320652430
     0.000485815  0.055104011  0.558435737
     0.000907428  0.389079531  0.558319422
     0.999917884  0.722116089  0.558457319
     0.333403528  0.055620832  0.558388699
     0.333071115  0.388920681  0.558572023
     0.332969829  0.722782203  0.558408213
     0.666258453  0.054890857  0.558419487
     0.666467348  0.388743875  0.558496973
     0.665984579  0.721442196  0.558457808
     0.111909889  0.222997922  0.441660104
     0.111091077  0.555513887  0.441510594
     0.111258108  0.888768824  0.441532272
     0.444977584  0.222633690  0.441295725
     0.445003216  0.555368955  0.441501384
     0.444081292  0.888882041  0.441597350
     0.777610372  0.222072535  0.441702023
     0.777801887  0.555574083  0.441540551
     0.777332889  0.888807517  0.441424998
     0.999704346  0.055315375  0.679344295
     0.000580578  0.389007621  0.679582208
     0.999460585  0.721656046  0.679267918
     0.333822045  0.055923265  0.679347971
     0.333163367  0.388662890  0.679325829
     0.333234694  0.722907947  0.679377337
     0.666835231  0.055546706  0.679252932
     0.666659853  0.389122568  0.679161438
     0.666470679  0.722286337  0.679212089
     0.999645091  0.000354177  0.381107014
     0.999920291  0.333058214  0.381031020
     0.000036952  0.666653832  0.381066048
     0.333300482  0.000684635  0.381236859
     0.332513987  0.332868271  0.380967323
     0.333395499  0.666542915  0.381024892
     0.666680043  0.000016208  0.381072379
     0.667629933  0.334201107  0.381048195
     0.666512853  0.667252525  0.381070731
     0.221953721  0.166452085  0.618952260
     0.221701192  0.500529106  0.618820539
     0.222421965  0.833740259  0.618766445
     0.556211830  0.166924091  0.619002285
     0.555591972  0.499999654  0.618921225
     0.555569977  0.833067944  0.618940651
     0.888885420  0.166677528  0.618891733
     0.889154471  0.500521455  0.618855129
     0.889423859  0.834015047  0.618711865

  ion indices of the primitive-cell ions
   primitive index   ion index
                 1           1
                 2           2
                 3           3
                 4           4
                 5           5
                 6           6
                 7           7
                 8           8
                 9           9
                10          10
                11          11
                12          12
                13          13
                14          14
                15          15
                16          16
                17          17
                18          18
                19          19
                20          20
                21          21
                22          22
                23          23
                24          24
                25          25
                26          26
                27          27
                28          28
                29          29
                30          30
                31          31
                32          32
                33          33
                34          34
                35          35
                36          36
                37          37
                38          38
                39          39
                40          40
                41          41
                42          42
                43          43
                44          44
                45          45
                46          46
                47          47
                48          48
                49          49
                50          50
                51          51
                52          52
                53          53
                54          54

----------------------------------------------------------------------------------------

 
 

Automatic generation of k-mesh.
 generate k-points for:    3    3    1
Space group operators:
 irot       det(A)        alpha          n_x          n_y          n_z        tau_x        tau_y        tau_z
    1     1.000000     0.000000     1.000000     0.000000     0.000000     0.000000     0.000000     0.000000
 
 Subroutine IBZKPT returns following result:
 ===========================================
 
 Found      5 irreducible k-points:
 
 Following reciprocal coordinates:
            Coordinates               Weight
  0.000000  0.000000  0.000000      1.000000
  0.333333 -0.000000 -0.000000      2.000000
  0.000000  0.333333  0.000000      2.000000
  0.333333  0.333333 -0.000000      2.000000
 -0.333333  0.333333  0.000000      2.000000
 
 Following cartesian coordinates:
            Coordinates               Weight
  0.000000  0.000000  0.000000      1.000000
  0.032213  0.017790  0.000197      2.000000
  0.000000  0.035854 -0.000870      2.000000
  0.032213  0.053644 -0.000674      2.000000
 -0.032213  0.018064 -0.001067      2.000000
 


--------------------------------------------------------------------------------------------------------




 Dimension of arrays:
   k-points           NKPTS =      5   k-points in BZ     NKDIM =      5   number of bands    NBANDS=    200
   number of dos      NEDOS =    301   number of ions     NIONS =     54
   non local maximal  LDIM  =      6   non local SUM 2l+1 LMDIM =     18
   total plane-waves  NPLWV = ******
   max r-space proj   IRMAX =      1   max aug-charges    IRDMAX=  35264
   dimension x,y,z NGX =    80 NGY =   84 NGZ =  240
   dimension x,y,z NGXF=   160 NGYF=  168 NGZF=  480
   support grid    NGXF=   160 NGYF=  168 NGZF=  480
   ions per type =              36  18
   NGX,Y,Z   is equivalent  to a cutoff of  12.85, 13.15, 12.99 a.u.
   NGXF,Y,Z  is equivalent  to a cutoff of  25.71, 26.30, 25.99 a.u.

 SYSTEM =  dpgen_md                                
 POSCAR =  Te Mo                                   

 Startparameter for this run:
   NWRITE =      2    write-flag & timer
   PREC   = a         normal or accurate (medium, high low for compatibility)
   ISTART =      0    job   : 0-new  1-cont  2-samecut
   ICHARG =      2    charge: 1-file 2-atom 10-const
   ISPIN  =      1    spin polarized calculation?
   LNONCOLLINEAR =      F non collinear calculations
   LSORBIT =      F    spin-orbit coupling
   INIWAV =      1    electr: 0-lowe 1-rand  2-diag
   LASPH  =      F    aspherical Exc in radial PAW
   METAGGA=      F    non-selfconsistent MetaGGA calc.

 Electronic Relaxation 1
   ENCUT  =  550.0 eV  40.42 Ry    6.36 a.u.  19.79 20.31 58.72*2*pi/ulx,y,z
   ENINI  =  550.0     initial cutoff
   ENAUG  =  368.8 eV  augmentation charge cutoff
   NELM   =    100;   NELMIN=  6; NELMDL= -5     # of ELM steps 
   EDIFF  = 0.1E-05   stopping-criterion for ELM
   LREAL  =      F    real-space projection
   NLSPLINE    = F    spline interpolate recip. space projectors
   LCOMPAT=      F    compatible to vasp.4.4
   GGA_COMPAT  = T    GGA compatible to vasp.4.4-vasp.4.6
   LMAXPAW     = -100 max onsite density
   LMAXMIX     =    2 max onsite mixed and CHGCAR
   VOSKOWN=      0    Vosko Wilk Nusair interpolation
   ROPT   =    0.00000   0.00000
 Ionic relaxation
   EDIFFG = 0.1E-04   stopping-criterion for IOM
   NSW    =     10    number of steps for IOM
   NBLOCK =      1;   KBLOCK =      1    inner block; outer block 
   IBRION =      0    ionic relax: 0-MD 1-quasi-New 2-CG
   NFREE  =      0    steps in history (QN), initial steepest desc. (CG)
   ISIF   =      2    stress and relaxation
   IWAVPR =     11    prediction:  0-non 1-charg 2-wave 3-comb
   ISYM   =      0    0-nonsym 1-usesym 2-fastsym
   LCORR  =      T    Harris-Foulkes like correction to forces

   POTIM  = 2.0000    time-step for ionic-motion
   TEIN   =  100.0    initial temperature
   TEBEG  =  100.0;   TEEND  = 100.0 temperature during run
   SMASS  =   0.04    Nose mass-parameter (am)
   estimated Nose-frequenzy (Omega)   =  0.79E+14 period in steps = 0.40E+02 mass=   0.327E-28a.u.
   SCALEE = 1.0000    scale energy and forces
   NPACO  =    256;   APACO  = 16.0  distance and # of slots for P.C.
   PSTRESS=    0.0 pullay stress

  Mass of Ions in am
   POMASS = 127.60 95.94
  Ionic Valenz
   ZVAL   =   6.00  6.00
  Atomic Wigner-Seitz radii
   RWIGS  =  -1.00 -1.00
  virtual crystal weights 
   VCA    =   1.00  1.00
   NELECT =     324.0000    total number of electrons
   NUPDOWN=      -1.0000    fix difference up-down

 DOS related values:
   EMIN   =  10.00;   EMAX   =-10.00  energy-range for DOS
   EFERMI =   0.00
   ISMEAR =     0;   SIGMA  =   0.10  broadening in eV -4-tet -1-fermi 0-gaus

 Electronic relaxation 2 (details)
   IALGO  =     68    algorithm
   LDIAG  =      T    sub-space diagonalisation (order eigenvalues)
   LSUBROT=      F    optimize rotation matrix (better conditioning)
   TURBO    =      0    0=normal 1=particle mesh
   IRESTART =      0    0=no restart 2=restart with 2 vectors
   NREBOOT  =      0    no. of reboots
   NMIN     =      0    reboot dimension
   EREF     =   0.00    reference energy to select bands
   IMIX   =      4    mixing-type and parameters
     AMIX     =   0.40;   BMIX     =  1.00
     AMIX_MAG =   1.60;   BMIX_MAG =  1.00
     AMIN     =   0.10
     WC   =   100.;   INIMIX=   1;  MIXPRE=   1;  MAXMIX= -45

 Intra band minimization:
   WEIMIN = 0.0010     energy-eigenvalue tresh-hold
   EBREAK =  0.13E-08  absolut break condition
   DEPER  =   0.30     relativ break condition  

   TIME   =   0.40     timestep for ELM

  volume/ion in A,a.u.               =      54.68       369.00
  Fermi-wavevector in a.u.,A,eV,Ry     =   0.783755  1.481081  8.357668  0.614271
  Thomas-Fermi vector in A             =   1.887748
 
 Write flags
   LWAVE        =      F    write WAVECAR
   LDOWNSAMPLE  =      F    k-point downsampling of WAVECAR
   LCHARG       =      F    write CHGCAR
   LVTOT        =      F    write LOCPOT, total local potential
   LVHAR        =      F    write LOCPOT, Hartree potential only
   LELF         =      F    write electronic localiz. function (ELF)
   LORBIT       =      0    0 simple, 1 ext, 2 COOP (PROOUT), +10 PAW based schemes


 Dipole corrections
   LMONO  =      F    monopole corrections only (constant potential shift)
   LDIPOL =      F    correct potential (dipole corrections)
   IDIPOL =      0    1-x, 2-y, 3-z, 4-all directions 
   EPSILON=  1.0000000 bulk dielectric constant

 Exchange correlation treatment:
   GGA     =    --    GGA type
   LEXCH   =     8    internal setting for exchange type
   VOSKOWN=      0    Vosko Wilk Nusair interpolation
   LHFCALC =     F    Hartree Fock is set to
   LHFONE  =     F    Hartree Fock one center treatment
   AEXX    =    0.0000 exact exchange contribution

 Linear response parameters
   LEPSILON=     F    determine dielectric tensor
   LRPA    =     F    only Hartree local field effects (RPA)
   LNABLA  =     F    use nabla operator in PAW spheres
   LVEL    =     F    velocity operator in full k-point grid
   LINTERFAST=   F  fast interpolation
   KINTER  =     0    interpolate to denser k-point grid
   CSHIFT  =0.1000    complex shift for real part using Kramers Kronig
   OMEGAMAX=  -1.0    maximum frequency
   DEG_THRESHOLD= 0.2000000E-02 threshold for treating states as degnerate
   RTIME   =   -0.100 relaxation time in fs
  (WPLASMAI=    0.000 imaginary part of plasma frequency in eV, 0.658/RTIME)
   DFIELD  = 0.0000000 0.0000000 0.0000000 field for delta impulse in time
 
 Orbital magnetization related:
   ORBITALMAG=     F  switch on orbital magnetization
   LCHIMAG   =     F  perturbation theory with respect to B field
   DQ        =  0.001000  dq finite difference perturbation B field
   LLRAUG    =     F  two centre corrections for induced B field



--------------------------------------------------------------------------------------------------------


 molecular dynamics for ions
   using nose mass (canonical ensemble)
 charge density and potential will be updated during run
 non-spin polarized calculation
 RMM-DIIS sequential band-by-band and
  variant of blocked Davidson during initial phase
 perform sub-space diagonalisation
    before iterative eigenvector-optimisation
 modified Broyden-mixing scheme, WC =      100.0
 initial mixing is a Kerker type mixing with AMIX =  0.4000 and BMIX =      1.0000
 Hartree-type preconditioning will be used
 using additional bands           38
 reciprocal scheme for non local part
 use partial core corrections
 calculate Harris-corrections to forces 
   (improved forces if not selfconsistent)
 use gradient corrections 
 use of overlap-Matrix (Vanderbilt PP)
 Gauss-broadening in eV      SIGMA  =   0.10


--------------------------------------------------------------------------------------------------------


  energy-cutoff  :      550.00
  volume of cell :     2952.77
      direct lattice vectors                 reciprocal lattice vectors
    10.347681842  0.000000000  0.000000000     0.096640003  0.053369707  0.000590605
    -5.134259756  9.296938343  0.000000000     0.000000000  0.107562292 -0.002611333
    -0.599095530  0.745157948 30.693481447     0.000000000  0.000000000  0.032580208

  length of vectors
    10.347681842 10.620437176 30.708369855     0.110399115  0.107593986  0.032580208


 
 k-points in units of 2pi/SCALE and weight: read from INCAR                         
   0.00000000  0.00000000  0.00000000       0.111
   0.03221333  0.01778990  0.00019687       0.222
   0.00000000  0.03585410 -0.00087044       0.222
   0.03221333  0.05364400 -0.00067358       0.222
  -0.03221333  0.01806420 -0.00106731       0.222
 
 k-points in reciprocal lattice and weights: read from INCAR                         
   0.00000000  0.00000000  0.00000000       0.111
   0.33333333 -0.00000000 -0.00000000       0.222
   0.00000000  0.33333333  0.00000000       0.222
   0.33333333  0.33333333 -0.00000000       0.222
  -0.33333333  0.33333333  0.00000000       0.222
 
 position of ions in fractional coordinates (direct lattice) 
   0.11084511  0.22205351  0.32072836
   0.11109825  0.55560072  0.32066710
   0.11120868  0.88899836  0.32071234
   0.44478641  0.22287657  0.32059917
   0.44475386  0.55535870  0.32081302
   0.44457950  0.88918230  0.32060953
   0.77736559  0.22248135  0.32055321
   0.77799036  0.55600092  0.32077577
   0.77774484  0.88891755  0.32065243
   0.00048581  0.05510401  0.55843574
   0.00090743  0.38907953  0.55831942
   0.99991788  0.72211609  0.55845732
   0.33340353  0.05562083  0.55838870
   0.33307111  0.38892068  0.55857202
   0.33296983  0.72278220  0.55840821
   0.66625845  0.05489086  0.55841949
   0.66646735  0.38874388  0.55849697
   0.66598458  0.72144220  0.55845781
   0.11190989  0.22299792  0.44166010
   0.11109108  0.55551389  0.44151059
   0.11125811  0.88876882  0.44153227
   0.44497758  0.22263369  0.44129573
   0.44500322  0.55536895  0.44150138
   0.44408129  0.88888204  0.44159735
   0.77761037  0.22207254  0.44170202
   0.77780189  0.55557408  0.44154055
   0.77733289  0.88880752  0.44142500
   0.99970435  0.05531538  0.67934429
   0.00058058  0.38900762  0.67958221
   0.99946059  0.72165605  0.67926792
   0.33382204  0.05592326  0.67934797
   0.33316337  0.38866289  0.67932583
   0.33323469  0.72290795  0.67937734
   0.66683523  0.05554671  0.67925293
   0.66665985  0.38912257  0.67916144
   0.66647068  0.72228634  0.67921209
   0.99964509  0.00035418  0.38110701
   0.99992029  0.33305821  0.38103102
   0.00003695  0.66665383  0.38106605
   0.33330048  0.00068463  0.38123686
   0.33251399  0.33286827  0.38096732
   0.33339550  0.66654291  0.38102489
   0.66668004  0.00001621  0.38107238
   0.66762993  0.33420111  0.38104819
   0.66651285  0.66725252  0.38107073
   0.22195372  0.16645208  0.61895226
   0.22170119  0.50052911  0.61882054
   0.22242196  0.83374026  0.61876645
   0.55621183  0.16692409  0.61900228
   0.55559197  0.49999965  0.61892123
   0.55556998  0.83306794  0.61894065
   0.88888542  0.16667753  0.61889173
   0.88915447  0.50052146  0.61885513
   0.88942386  0.83401505  0.61871187
 
 position of ions in cartesian coordinates  (Angst):
  -0.18523745  2.30341110  9.84427011
  -1.89509925  5.40433324  9.84238964
  -3.60573377  8.50394425  9.84377819
   3.26613259  2.31096671  9.84030472
   1.55861791  5.40219201  9.84686841
  -0.15700140  8.50557776  9.84062264
   6.70961282  2.30725816  9.83889404
   5.00356825  5.40813488  9.84572528
   3.29182109  8.50314839  9.84193942
  -0.61244760  0.92842142 17.14033692
  -2.32273227  4.03328457 17.13676682
   6.30473127  7.12960767 17.14099937
   2.82985366  0.93319122 17.13889317
   1.11505612  4.03199597 17.14452003
  -0.60002559  7.13576390 17.13949211
   6.27785996  0.92642763 17.13983815
   4.56588700  4.03029630 17.14221648
   2.85275532  7.12334289 17.14101436
  -0.25151792  2.40230447 13.55608622
  -1.96712450  5.49357348 13.55149723
  -3.67642651  8.59184024 13.55216258
   3.19704898  2.39864670 13.54490215
   1.48884172  5.49221919 13.55121453
  -0.23309837  8.59294130 13.55416006
   6.64166493  2.39373244 13.55737286
   4.93145984  5.49415545 13.55241672
   3.21576901  8.59212003 13.54886999
   9.65362687  1.02048243 20.85144151
  -2.39839320  4.12297595 20.85874388
   6.22998418  7.21535365 20.84909725
   2.76016541  1.02613669 20.85155434
   1.04499122  4.11957996 20.85087473
  -0.67040251  7.22707404 20.85245569
   6.20807020  1.02256503 20.84863728
   4.49364514  4.12373106 20.84582898
   2.78110794  7.22117182 20.84738365
  10.11387141  0.28727768 11.69750105
   8.40857567  3.38034998 11.69516854
  -3.65068654  6.48179397 11.69624366
   3.21697496  0.29044668 11.70148646
   1.50348096  3.37853662 11.69321345
  -0.20060422  6.48073211 11.69498044
   6.67021100  0.28410980 11.69643800
   4.96426257  3.39098818 11.69569569
   3.24271739  6.48736347 11.69638742
   1.07128672  2.00871197 18.99779969
  -0.64648566  5.11450728 18.99375674
  -2.34978754  8.21231051 18.99209641
   4.52762990  2.01313746 18.99933514
   2.81116792  5.10966003 18.99684715
   1.10086956  8.20618986 18.99744339
   7.97136252  2.01076279 18.99594194
   6.26012707  5.11446193 18.99481843
   4.55075770  8.21482454 18.99042116
 


--------------------------------------------------------------------------------------------------------


 k-point   1 :   0.0000 0.0000 0.0000  plane waves:   86555
 k-point   2 :   0.3333-0.0000-0.0000  plane waves:   86484
 k-point   3 :   0.0000 0.3333 0.0000  plane waves:   86441
 k-point   4 :   0.3333 0.3333-0.0000  plane waves:   86474
 k-point   5 :  -0.3333 0.3333 0.0000  plane waves:   86470

 maximum and minimum number of plane-waves per node :     86555    86441

 maximum number of plane-waves:     86555
 maximum index in each direction: 
   IXMAX=   20   IYMAX=   20   IZMAX=   58
   IXMIN=  -20   IYMIN=  -20   IZMIN=  -58


 serial   3D FFT for wavefunctions
 parallel 3D FFT for charge:
    minimum data exchange during FFTs selected (reduces bandwidth)


 total amount of memory used by VASP MPI-rank0   365335. kBytes
=======================================================================

   base      :      30000. kBytes
   nonl-proj :     199434. kBytes
   fftplans  :      17372. kBytes
   grid      :      82746. kBytes
   one-center:        839. kBytes
   wavefun   :      34944. kBytes
 
     INWAV:  cpu time    0.0001: real time    0.0001
 Broyden mixing: mesh for mixing (old mesh)
   NGX = 39   NGY = 41   NGZ =117
  (NGX  =160   NGY  =168   NGZ  =480)
  gives a total of 187083 points

 initial charge density was supplied:
 charge density of overlapping atoms calculated
 number of electron     324.0000000 magnetization 
 keeping initial charge density in first step


--------------------------------------------------------------------------------------------------------


 Maximum index for augmentation-charges         1176 (set IRDMAX)


--------------------------------------------------------------------------------------------------------


 First call to EWALD:  gamma=   0.124
 Maximum number of real-space cells 4x 4x 2
 Maximum number of reciprocal cells 2x 2x 5

    FEWALD:  cpu time    0.0061: real time    0.0062


--------------------------------------- Iteration      1(   1)  ---------------------------------------


    POTLOK:  cpu time    0.3194: real time    0.3204
    SETDIJ:  cpu time    0.0135: real time    0.0136
     EDDAV:  cpu time   50.1844: real time   50.3206
       DOS:  cpu time    0.0010: real time    0.0010
    --------------------------------------------
      LOOP:  cpu time   50.5183: real time   50.6557

 eigenvalue-minimisations  :  2000
 total energy-change (2. order) : 0.2100041E+04  (-0.1147063E+05)
 number of electron     324.0000000 magnetization 
 augmentation part      324.0000000 magnetization 

 Free energy of the ion-electron system (eV)
  ---------------------------------------------------
  alpha Z        PSCENC =       243.04870439
  Ewald energy   TEWEN  =     64799.16737654
  -Hartree energ DENC   =    -76468.93774056
  -exchange      EXHF   =         0.00000000
  -V(xc)+E(xc)   XCENC  =     -2101.95029572
  PAW double counting   =      7476.04436201    -4809.59211051
  entropy T*S    EENTRO =        -0.13396743
  eigenvalues    EBANDS =      1009.31206004
  atomic energy  EATOM  =     11953.08265402
  Solvation  Ediel_sol  =         0.00000000
  ---------------------------------------------------
  free energy    TOTEN  =      2100.04104279 eV

  energy without entropy =     2100.17501022  energy(sigma->0) =     2100.10802650


--------------------------------------------------------------------------------------------------------




--------------------------------------- Iteration      1(   2)  ---------------------------------------


     EDDAV:  cpu time   69.5140: real time   69.7043
       DOS:  cpu time    0.0005: real time    0.0005
    --------------------------------------------
      LOOP:  cpu time   69.5145: real time   69.7048

 eigenvalue-minimisations  :  3000
 total energy-change (2. order) :-0.2195604E+04  (-0.2122074E+04)
 number of electron     324.0000000 magnetization 
 augmentation part      324.0000000 magnetization 

 Free energy of the ion-electron system (eV)
  ---------------------------------------------------
  alpha Z        PSCENC =       243.04870439
  Ewald energy   TEWEN  =     64799.16737654
  -Hartree energ DENC   =    -76468.93774056
  -exchange      EXHF   =         0.00000000
  -V(xc)+E(xc)   XCENC  =     -2101.95029572
  PAW double counting   =      7476.04436201    -4809.59211051
  entropy T*S    EENTRO =        -0.00001791
  eigenvalues    EBANDS =     -1186.42557272
  atomic energy  EATOM  =     11953.08265402
  Solvation  Ediel_sol  =         0.00000000
  ---------------------------------------------------
  free energy    TOTEN  =       -95.56264044 eV

  energy without entropy =      -95.56262254  energy(sigma->0) =      -95.56263149


--------------------------------------------------------------------------------------------------------




--------------------------------------- Iteration      1(   3)  ---------------------------------------


     EDDAV:  cpu time   61.7355: real time   61.9022
       DOS:  cpu time    0.0004: real time    0.0004
    --------------------------------------------
      LOOP:  cpu time   61.7359: real time   61.9026

 eigenvalue-minimisations  :  2600
 total energy-change (2. order) :-0.2302636E+03  (-0.2272484E+03)
 number of electron     324.0000000 magnetization 
 augmentation part      324.0000000 magnetization 

 Free energy of the ion-electron system (eV)
  ---------------------------------------------------
  alpha Z        PSCENC =       243.04870439
  Ewald energy   TEWEN  =     64799.16737654
  -Hartree energ DENC   =    -76468.93774056
  -exchange      EXHF   =         0.00000000
  -V(xc)+E(xc)   XCENC  =     -2101.95029572
  PAW double counting   =      7476.04436201    -4809.59211051
  entropy T*S    EENTRO =        -0.00000000
  eigenvalues    EBANDS =     -1416.68920266
  atomic energy  EATOM  =     11953.08265402
  Solvation  Ediel_sol  =         0.00000000
  ---------------------------------------------------
  free energy    TOTEN  =      -325.82625248 eV

  energy without entropy =     -325.82625248  energy(sigma->0) =     -325.82625248


--------------------------------------------------------------------------------------------------------




--------------------------------------- Iteration      1(   4)  ---------------------------------------


     EDDAV:  cpu time   70.2372: real time   70.4233
       DOS:  cpu time    0.0004: real time    0.0004
    --------------------------------------------
      LOOP:  cpu time   70.2376: real time   70.4237

 eigenvalue-minimisations  :  3040
 total energy-change (2. order) :-0.1014049E+02  (-0.1006546E+02)
 number of electron     324.0000000 magnetization 
 augmentation part      324.0000000 magnetization 

 Free energy of the ion-electron system (eV)
  ---------------------------------------------------
  alpha Z        PSCENC =       243.04870439
  Ewald energy   TEWEN  =     64799.16737654
  -Hartree energ DENC   =    -76468.93774056
  -exchange      EXHF   =         0.00000000
  -V(xc)+E(xc)   XCENC  =     -2101.95029572
  PAW double counting   =      7476.04436201    -4809.59211051
  entropy T*S    EENTRO =        -0.00000000
  eigenvalues    EBANDS =     -1426.82969536
  atomic energy  EATOM  =     11953.08265402
  Solvation  Ediel_sol  =         0.00000000
  ---------------------------------------------------
  free energy    TOTEN  =      -335.96674518 eV

  energy without entropy =     -335.96674518  energy(sigma->0) =     -335.96674518


--------------------------------------------------------------------------------------------------------




--------------------------------------- Iteration      1(   5)  ---------------------------------------


     EDDAV:  cpu time   69.4435: real time   69.6566
       DOS:  cpu time    0.0004: real time    0.0004
    CHARGE:  cpu time    1.1668: real time    1.1679
    MIXING:  cpu time    0.0073: real time    0.0077
    --------------------------------------------
      LOOP:  cpu time   70.6180: real time   70.8325

 eigenvalue-minimisations  :  3000
 total energy-change (2. order) :-0.3430206E+00  (-0.3422813E+00)
 number of electron     324.0000013 magnetization 
 augmentation part      -25.6901411 magnetization 

 Broyden mixing:
  rms(total) = 0.19334E+01    rms(broyden)= 0.19334E+01
  rms(prec ) = 0.20436E+01
  weight for this iteration     100.00

 Free energy of the ion-electron system (eV)
  ---------------------------------------------------
  alpha Z        PSCENC =       243.04870439
  Ewald energy   TEWEN  =     64799.16737654
  -Hartree energ DENC   =    -76468.93774056
  -exchange      EXHF   =         0.00000000
  -V(xc)+E(xc)   XCENC  =     -2101.95029572
  PAW double counting   =      7476.04436201    -4809.59211051
  entropy T*S    EENTRO =        -0.00000000
  eigenvalues    EBANDS =     -1427.17271599
  atomic energy  EATOM  =     11953.08265402
  Solvation  Ediel_sol  =         0.00000000
  ---------------------------------------------------
  free energy    TOTEN  =      -336.30976581 eV

  energy without entropy =     -336.30976581  energy(sigma->0) =     -336.30976581


--------------------------------------------------------------------------------------------------------




--------------------------------------- Iteration      1(   6)  ---------------------------------------


    POTLOK:  cpu time    0.2776: real time    0.2779
    SETDIJ:  cpu time    0.0176: real time    0.0177
    EDDIAG:  cpu time    2.5491: real time    2.5524
  RMM-DIIS:  cpu time   42.5756: real time   42.7015
    ORTHCH:  cpu time    0.2336: real time    0.2339
       DOS:  cpu time    0.0005: real time    0.0005
    CHARGE:  cpu time    1.1646: real time    1.1657
    MIXING:  cpu time    0.0091: real time    0.0091
    --------------------------------------------
      LOOP:  cpu time   46.8278: real time   46.9586

 eigenvalue-minimisations  :  2134
 total energy-change (2. order) : 0.9208168E+01  (-0.5813251E+01)
 number of electron     324.0000014 magnetization 
 augmentation part      -19.8500233 magnetization 

 Broyden mixing:
  rms(total) = 0.71475E+00    rms(broyden)= 0.71474E+00
  rms(prec ) = 0.83484E+00
  weight for this iteration     100.00

 eigenvalues of (default mixing * dielectric matrix)
  average eigenvalue GAMMA=   1.0234
  1.0234

 Free energy of the ion-electron system (eV)
  ---------------------------------------------------
  alpha Z        PSCENC =       243.04870439
  Ewald energy   TEWEN  =     64799.16737654
  -Hartree energ DENC   =    -76444.77249346
  -exchange      EXHF   =         0.00000000
  -V(xc)+E(xc)   XCENC  =     -2095.54597851
  PAW double counting   =      7643.40401402    -4987.86169581
  entropy T*S    EENTRO =        -0.00000000
  eigenvalues    EBANDS =     -1437.62417882
  atomic energy  EATOM  =     11953.08265402
  Solvation  Ediel_sol  =         0.00000000
  ---------------------------------------------------
  free energy    TOTEN  =      -327.10159764 eV

  energy without entropy =     -327.10159764  energy(sigma->0) =     -327.10159764


--------------------------------------------------------------------------------------------------------




--------------------------------------- Iteration      1(   7)  ---------------------------------------


    POTLOK:  cpu time    0.2717: real time    0.2719
    SETDIJ:  cpu time    0.0104: real time    0.0104
    EDDIAG:  cpu time    2.5768: real time    2.5837
  RMM-DIIS:  cpu time   40.1916: real time   40.3077
    ORTHCH:  cpu time    0.2455: real time    0.2458
       DOS:  cpu time    0.0004: real time    0.0004
    CHARGE:  cpu time    1.1652: real time    1.1664
    MIXING:  cpu time    0.0080: real time    0.0081
    --------------------------------------------
      LOOP:  cpu time   44.4696: real time   44.5944

 eigenvalue-minimisations  :  2018
 total energy-change (2. order) : 0.3474384E+01  (-0.1155803E+01)
 number of electron     324.0000014 magnetization 
 augmentation part      -21.8666788 magnetization 

 Broyden mixing:
  rms(total) = 0.47906E+00    rms(broyden)= 0.47906E+00
  rms(prec ) = 0.50691E+00
  weight for this iteration     100.00

 eigenvalues of (default mixing * dielectric matrix)
  average eigenvalue GAMMA=   1.4510
  0.7180  2.1840

 Free energy of the ion-electron system (eV)
  ---------------------------------------------------
  alpha Z        PSCENC =       243.04870439
  Ewald energy   TEWEN  =     64799.16737654
  -Hartree energ DENC   =    -76533.77606095
  -exchange      EXHF   =         0.00000000
  -V(xc)+E(xc)   XCENC  =     -2094.46478734
  PAW double counting   =      7911.82223431    -5260.84974285
  entropy T*S    EENTRO =        -0.00000000
  eigenvalues    EBANDS =     -1341.65759222
  atomic energy  EATOM  =     11953.08265402
  Solvation  Ediel_sol  =         0.00000000
  ---------------------------------------------------
  free energy    TOTEN  =      -323.62721409 eV

  energy without entropy =     -323.62721409  energy(sigma->0) =     -323.62721409


--------------------------------------------------------------------------------------------------------




--------------------------------------- Iteration      1(   8)  ---------------------------------------


    POTLOK:  cpu time    0.2742: real time    0.2747
    SETDIJ:  cpu time    0.0134: real time    0.0134
    EDDIAG:  cpu time    2.5658: real time    2.5760
  RMM-DIIS:  cpu time   40.1322: real time   40.2831
    ORTHCH:  cpu time    0.2366: real time    0.2369
       DOS:  cpu time    0.0004: real time    0.0004
    CHARGE:  cpu time    1.1589: real time    1.1599
    MIXING:  cpu time    0.0098: real time    0.0098
    --------------------------------------------
      LOOP:  cpu time   44.3914: real time   44.5543

 eigenvalue-minimisations  :  2009
 total energy-change (2. order) : 0.4704009E+00  (-0.8202275E+00)
 number of electron     324.0000014 magnetization 
 augmentation part      -21.6236342 magnetization 

 Broyden mixing:
  rms(total) = 0.13427E+00    rms(broyden)= 0.13427E+00
  rms(prec ) = 0.15555E+00
  weight for this iteration     100.00

 eigenvalues of (default mixing * dielectric matrix)
  average eigenvalue GAMMA=   1.2593
  2.1057  0.8361  0.8361

 Free energy of the ion-electron system (eV)
  ---------------------------------------------------
  alpha Z        PSCENC =       243.04870439
  Ewald energy   TEWEN  =     64799.16737654
  -Hartree energ DENC   =    -76592.91522539
  -exchange      EXHF   =         0.00000000
  -V(xc)+E(xc)   XCENC  =     -2090.70050924
  PAW double counting   =      8192.38146419    -5547.41962441
  entropy T*S    EENTRO =        -0.00000000
  eigenvalues    EBANDS =     -1279.80165331
  atomic energy  EATOM  =     11953.08265402
  Solvation  Ediel_sol  =         0.00000000
  ---------------------------------------------------
  free energy    TOTEN  =      -323.15681321 eV

  energy without entropy =     -323.15681321  energy(sigma->0) =     -323.15681321


--------------------------------------------------------------------------------------------------------




--------------------------------------- Iteration      1(   9)  ---------------------------------------


    POTLOK:  cpu time    0.2908: real time    0.2911
    SETDIJ:  cpu time    0.0193: real time    0.0193
    EDDIAG:  cpu time    2.5737: real time    2.5806
  RMM-DIIS:  cpu time   45.0830: real time   45.2080
    ORTHCH:  cpu time    0.2298: real time    0.2313
       DOS:  cpu time    0.0004: real time    0.0004
    CHARGE:  cpu time    1.1664: real time    1.1714
    MIXING:  cpu time    0.0070: real time    0.0071
    --------------------------------------------
      LOOP:  cpu time   49.3705: real time   49.5092

 eigenvalue-minimisations  :  2236
 total energy-change (2. order) :-0.5068703E-01  (-0.1595764E+00)
 number of electron     324.0000014 magnetization 
 augmentation part      -21.1778605 magnetization 

 Broyden mixing:
  rms(total) = 0.10272E+00    rms(broyden)= 0.10272E+00
  rms(prec ) = 0.11374E+00
  weight for this iteration     100.00

 eigenvalues of (default mixing * dielectric matrix)
  average eigenvalue GAMMA=   1.1449
  1.9679  1.4396  0.7173  0.4549

 Free energy of the ion-electron system (eV)
  ---------------------------------------------------
  alpha Z        PSCENC =       243.04870439
  Ewald energy   TEWEN  =     64799.16737654
  -Hartree energ DENC   =    -76590.06544556
  -exchange      EXHF   =         0.00000000
  -V(xc)+E(xc)   XCENC  =     -2090.37471068
  PAW double counting   =      8191.56461522    -5546.74896755
  entropy T*S    EENTRO =        -0.00000000
  eigenvalues    EBANDS =     -1282.88172662
  atomic energy  EATOM  =     11953.08265402
  Solvation  Ediel_sol  =         0.00000000
  ---------------------------------------------------
  free energy    TOTEN  =      -323.20750024 eV

  energy without entropy =     -323.20750024  energy(sigma->0) =     -323.20750024


--------------------------------------------------------------------------------------------------------




--------------------------------------- Iteration      1(  10)  ---------------------------------------


    POTLOK:  cpu time    0.2792: real time    0.2795
    SETDIJ:  cpu time    0.0116: real time    0.0116
    EDDIAG:  cpu time    2.6010: real time    2.6037
  RMM-DIIS:  cpu time   49.0476: real time   49.1634
    ORTHCH:  cpu time    0.2355: real time    0.2357
       DOS:  cpu time    0.0004: real time    0.0004
    CHARGE:  cpu time    1.1811: real time    1.1823
    MIXING:  cpu time    0.0106: real time    0.0106
    --------------------------------------------
      LOOP:  cpu time   53.3670: real time   53.4871

 eigenvalue-minimisations  :  2395
 total energy-change (2. order) :-0.7205988E-02  (-0.4383396E-01)
 number of electron     324.0000014 magnetization 
 augmentation part      -21.0116271 magnetization 

 Broyden mixing:
  rms(total) = 0.77144E-01    rms(broyden)= 0.77144E-01
  rms(prec ) = 0.86084E-01
  weight for this iteration     100.00

 eigenvalues of (default mixing * dielectric matrix)
  average eigenvalue GAMMA=   1.2805
  2.3358  1.8353  0.9465  0.8924  0.3924

 Free energy of the ion-electron system (eV)
  ---------------------------------------------------
  alpha Z        PSCENC =       243.04870439
  Ewald energy   TEWEN  =     64799.16737654
  -Hartree energ DENC   =    -76593.10092186
  -exchange      EXHF   =         0.00000000
  -V(xc)+E(xc)   XCENC  =     -2090.19103649
  PAW double counting   =      8205.70494691    -5560.90654318
  entropy T*S    EENTRO =        -0.00000000
  eigenvalues    EBANDS =     -1280.01988657
  atomic energy  EATOM  =     11953.08265402
  Solvation  Ediel_sol  =         0.00000000
  ---------------------------------------------------
  free energy    TOTEN  =      -323.21470622 eV

  energy without entropy =     -323.21470622  energy(sigma->0) =     -323.21470622


--------------------------------------------------------------------------------------------------------




--------------------------------------- Iteration      1(  11)  ---------------------------------------


    POTLOK:  cpu time    0.2755: real time    0.2757
    SETDIJ:  cpu time    0.0148: real time    0.0148
    EDDIAG:  cpu time    2.5565: real time    2.5634
  RMM-DIIS:  cpu time   42.7268: real time   42.8502
    ORTHCH:  cpu time    0.2450: real time    0.2493
       DOS:  cpu time    0.0004: real time    0.0004
    CHARGE:  cpu time    1.1719: real time    1.1731
    MIXING:  cpu time    0.0079: real time    0.0079
    --------------------------------------------
      LOOP:  cpu time   46.9987: real time   47.1348

 eigenvalue-minimisations  :  2119
 total energy-change (2. order) : 0.1189347E-01  (-0.2232402E-01)
 number of electron     324.0000014 magnetization 
 augmentation part      -21.3634611 magnetization 

 Broyden mixing:
  rms(total) = 0.42070E-01    rms(broyden)= 0.42070E-01
  rms(prec ) = 0.47588E-01
  weight for this iteration     100.00

 eigenvalues of (default mixing * dielectric matrix)
  average eigenvalue GAMMA=   1.2318
  2.5347  1.5259  1.5259  0.7088  0.7088  0.3867

 Free energy of the ion-electron system (eV)
  ---------------------------------------------------
  alpha Z        PSCENC =       243.04870439
  Ewald energy   TEWEN  =     64799.16737654
  -Hartree energ DENC   =    -76612.69059197
  -exchange      EXHF   =         0.00000000
  -V(xc)+E(xc)   XCENC  =     -2089.93145765
  PAW double counting   =      8257.58287916    -5612.98576384
  entropy T*S    EENTRO =        -0.00000000
  eigenvalues    EBANDS =     -1260.47661341
  atomic energy  EATOM  =     11953.08265402
  Solvation  Ediel_sol  =         0.00000000
  ---------------------------------------------------
  free energy    TOTEN  =      -323.20281275 eV

  energy without entropy =     -323.20281275  energy(sigma->0) =     -323.20281275


--------------------------------------------------------------------------------------------------------




--------------------------------------- Iteration      1(  12)  ---------------------------------------


    POTLOK:  cpu time    0.2793: real time    0.2796
    SETDIJ:  cpu time    0.0139: real time    0.0139
    EDDIAG:  cpu time    2.5976: real time    2.6017
  RMM-DIIS:  cpu time   48.1864: real time   48.3474
    ORTHCH:  cpu time    0.2226: real time    0.2270
       DOS:  cpu time    0.0004: real time    0.0004
    CHARGE:  cpu time    1.1636: real time    1.1648
    MIXING:  cpu time    0.0075: real time    0.0075
    --------------------------------------------
      LOOP:  cpu time   52.4713: real time   52.6424

 eigenvalue-minimisations  :  2359
 total energy-change (2. order) : 0.2395644E-02  (-0.4132806E-02)
 number of electron     324.0000014 magnetization 
 augmentation part      -21.3300583 magnetization 

 Broyden mixing:
  rms(total) = 0.29450E-01    rms(broyden)= 0.29450E-01
  rms(prec ) = 0.33806E-01
  weight for this iteration     100.00

 eigenvalues of (default mixing * dielectric matrix)
  average eigenvalue GAMMA=   1.1941
  2.5435  1.7340  1.7340  0.7871  0.7871  0.3979  0.3752

 Free energy of the ion-electron system (eV)
  ---------------------------------------------------
  alpha Z        PSCENC =       243.04870439
  Ewald energy   TEWEN  =     64799.16737654
  -Hartree energ DENC   =    -76616.21416192
  -exchange      EXHF   =         0.00000000
  -V(xc)+E(xc)   XCENC  =     -2089.80636165
  PAW double counting   =      8260.85114961    -5616.29091635
  entropy T*S    EENTRO =        -0.00000000
  eigenvalues    EBANDS =     -1257.03886176
  atomic energy  EATOM  =     11953.08265402
  Solvation  Ediel_sol  =         0.00000000
  ---------------------------------------------------
  free energy    TOTEN  =      -323.20041711 eV

  energy without entropy =     -323.20041711  energy(sigma->0) =     -323.20041711


--------------------------------------------------------------------------------------------------------




--------------------------------------- Iteration      1(  13)  ---------------------------------------


    POTLOK:  cpu time    0.2807: real time    0.2809
    SETDIJ:  cpu time    0.0185: real time    0.0185
    EDDIAG:  cpu time    2.5700: real time    2.5768
  RMM-DIIS:  cpu time   48.9357: real time   49.0906
    ORTHCH:  cpu time    0.2243: real time    0.2247
       DOS:  cpu time    0.0005: real time    0.0005
    CHARGE:  cpu time    1.1704: real time    1.1754
    MIXING:  cpu time    0.0151: real time    0.0151
    --------------------------------------------
      LOOP:  cpu time   53.2152: real time   53.3825

 eigenvalue-minimisations  :  2409
 total energy-change (2. order) : 0.1963509E-02  (-0.2480815E-02)
 number of electron     324.0000014 magnetization 
 augmentation part      -21.2287828 magnetization 

 Broyden mixing:
  rms(total) = 0.95095E-02    rms(broyden)= 0.95094E-02
  rms(prec ) = 0.12508E-01
  weight for this iteration     100.00

 eigenvalues of (default mixing * dielectric matrix)
  average eigenvalue GAMMA=   1.1980
  2.4643  1.9727  1.9727  0.8274  0.7870  0.7870  0.4009  0.3721

 Free energy of the ion-electron system (eV)
  ---------------------------------------------------
  alpha Z        PSCENC =       243.04870439
  Ewald energy   TEWEN  =     64799.16737654
  -Hartree energ DENC   =    -76618.08731271
  -exchange      EXHF   =         0.00000000
  -V(xc)+E(xc)   XCENC  =     -2089.72957795
  PAW double counting   =      8257.32820110    -5612.75825215
  entropy T*S    EENTRO =        -0.00000000
  eigenvalues    EBANDS =     -1255.25024684
  atomic energy  EATOM  =     11953.08265402
  Solvation  Ediel_sol  =         0.00000000
  ---------------------------------------------------
  free energy    TOTEN  =      -323.19845360 eV

  energy without entropy =     -323.19845360  energy(sigma->0) =     -323.19845360


--------------------------------------------------------------------------------------------------------




--------------------------------------- Iteration      1(  14)  ---------------------------------------


    POTLOK:  cpu time    0.2845: real time    0.2848
    SETDIJ:  cpu time    0.0118: real time    0.0118
    EDDIAG:  cpu time    2.5578: real time    2.5604
  RMM-DIIS:  cpu time   56.2973: real time   56.4394
    ORTHCH:  cpu time    0.2302: real time    0.2304
       DOS:  cpu time    0.0005: real time    0.0004
    CHARGE:  cpu time    1.1585: real time    1.1636
    MIXING:  cpu time    0.0077: real time    0.0077
    --------------------------------------------
      LOOP:  cpu time   60.5482: real time   60.6985

 eigenvalue-minimisations  :  2733
 total energy-change (2. order) :-0.1080353E-02  (-0.9430203E-03)
 number of electron     324.0000014 magnetization 
 augmentation part      -21.2023525 magnetization 

 Broyden mixing:
  rms(total) = 0.10529E-01    rms(broyden)= 0.10529E-01
  rms(prec ) = 0.13136E-01
  weight for this iteration     100.00

 eigenvalues of (default mixing * dielectric matrix)
  average eigenvalue GAMMA=   1.2660
  2.7517  2.7517  1.5168  1.5168  0.7825  0.7825  0.5245  0.3981  0.3693

 Free energy of the ion-electron system (eV)
  ---------------------------------------------------
  alpha Z        PSCENC =       243.04870439
  Ewald energy   TEWEN  =     64799.16737654
  -Hartree energ DENC   =    -76622.93405872
  -exchange      EXHF   =         0.00000000
  -V(xc)+E(xc)   XCENC  =     -2089.70306380
  PAW double counting   =      8255.03498169    -5610.40638015
  entropy T*S    EENTRO =        -0.00000000
  eigenvalues    EBANDS =     -1250.48974792
  atomic energy  EATOM  =     11953.08265402
  Solvation  Ediel_sol  =         0.00000000
  ---------------------------------------------------
  free energy    TOTEN  =      -323.19953395 eV

  energy without entropy =     -323.19953395  energy(sigma->0) =     -323.19953395


--------------------------------------------------------------------------------------------------------




--------------------------------------- Iteration      1(  15)  ---------------------------------------


    POTLOK:  cpu time    0.2791: real time    0.2794
    SETDIJ:  cpu time    0.0110: real time    0.0110
    EDDIAG:  cpu time    2.5511: real time    2.5582
  RMM-DIIS:  cpu time   43.6439: real time   43.7779
    ORTHCH:  cpu time    0.2439: real time    0.2441
       DOS:  cpu time    0.0005: real time    0.0005
    CHARGE:  cpu time    1.1628: real time    1.1640
    MIXING:  cpu time    0.0099: real time    0.0099
    --------------------------------------------
      LOOP:  cpu time   47.9022: real time   48.0450

 eigenvalue-minimisations  :  2149
 total energy-change (2. order) :-0.1865081E-03  (-0.2023477E-03)
 number of electron     324.0000014 magnetization 
 augmentation part      -21.2282585 magnetization 

 Broyden mixing:
  rms(total) = 0.54129E-02    rms(broyden)= 0.54129E-02
  rms(prec ) = 0.70334E-02
  weight for this iteration     100.00

 eigenvalues of (default mixing * dielectric matrix)
  average eigenvalue GAMMA=   1.2650
  3.4455  2.5418  1.6315  1.6315  0.7789  0.7789  0.6584  0.4291  0.3911  0.3630

 Free energy of the ion-electron system (eV)
  ---------------------------------------------------
  alpha Z        PSCENC =       243.04870439
  Ewald energy   TEWEN  =     64799.16737654
  -Hartree energ DENC   =    -76629.12066980
  -exchange      EXHF   =         0.00000000
  -V(xc)+E(xc)   XCENC  =     -2089.68458824
  PAW double counting   =      8254.60416626    -5609.92039048
  entropy T*S    EENTRO =        -0.00000000
  eigenvalues    EBANDS =     -1244.37697315
  atomic energy  EATOM  =     11953.08265402
  Solvation  Ediel_sol  =         0.00000000
  ---------------------------------------------------
  free energy    TOTEN  =      -323.19972046 eV

  energy without entropy =     -323.19972046  energy(sigma->0) =     -323.19972046


--------------------------------------------------------------------------------------------------------




--------------------------------------- Iteration      1(  16)  ---------------------------------------


    POTLOK:  cpu time    0.2757: real time    0.2760
    SETDIJ:  cpu time    0.0141: real time    0.0141
    EDDIAG:  cpu time    2.5583: real time    2.5690
  RMM-DIIS:  cpu time   47.9646: real time   48.1091
    ORTHCH:  cpu time    0.2326: real time    0.2409
       DOS:  cpu time    0.0004: real time    0.0004
    CHARGE:  cpu time    1.1665: real time    1.1675
    MIXING:  cpu time    0.0080: real time    0.0080
    --------------------------------------------
      LOOP:  cpu time   52.2201: real time   52.3851

 eigenvalue-minimisations  :  2377
 total energy-change (2. order) :-0.7129295E-03  (-0.1147871E-03)
 number of electron     324.0000014 magnetization 
 augmentation part      -21.2424395 magnetization 

 Broyden mixing:
  rms(total) = 0.50066E-02    rms(broyden)= 0.50066E-02
  rms(prec ) = 0.59807E-02
  weight for this iteration     100.00

 eigenvalues of (default mixing * dielectric matrix)
  average eigenvalue GAMMA=   1.2958
  3.5014  2.3948  1.9987  1.9987  1.0599  0.7852  0.7852  0.5745  0.3631  0.4028
  0.3891

 Free energy of the ion-electron system (eV)
  ---------------------------------------------------
  alpha Z        PSCENC =       243.04870439
  Ewald energy   TEWEN  =     64799.16737654
  -Hartree energ DENC   =    -76631.69299908
  -exchange      EXHF   =         0.00000000
  -V(xc)+E(xc)   XCENC  =     -2089.67386446
  PAW double counting   =      8254.53438256    -5609.84502505
  entropy T*S    EENTRO =        -0.00000000
  eigenvalues    EBANDS =     -1241.82166232
  atomic energy  EATOM  =     11953.08265402
  Solvation  Ediel_sol  =         0.00000000
  ---------------------------------------------------
  free energy    TOTEN  =      -323.20043339 eV

  energy without entropy =     -323.20043339  energy(sigma->0) =     -323.20043339


--------------------------------------------------------------------------------------------------------




--------------------------------------- Iteration      1(  17)  ---------------------------------------


    POTLOK:  cpu time    0.2795: real time    0.2798
    SETDIJ:  cpu time    0.0108: real time    0.0108
    EDDIAG:  cpu time    2.5602: real time    2.5669
  RMM-DIIS:  cpu time   41.6034: real time   41.7369
    ORTHCH:  cpu time    0.2243: real time    0.2327
       DOS:  cpu time    0.0005: real time    0.0005
    CHARGE:  cpu time    1.1666: real time    1.1675
    MIXING:  cpu time    0.0080: real time    0.0080
    --------------------------------------------
      LOOP:  cpu time   45.8532: real time   46.0031

 eigenvalue-minimisations  :  2052
 total energy-change (2. order) :-0.1530965E-02  (-0.3527420E-04)
 number of electron     324.0000014 magnetization 
 augmentation part      -21.2347243 magnetization 

 Broyden mixing:
  rms(total) = 0.20096E-02    rms(broyden)= 0.20096E-02
  rms(prec ) = 0.27948E-02
  weight for this iteration     100.00

 eigenvalues of (default mixing * dielectric matrix)
  average eigenvalue GAMMA=   1.3583
  4.2183  2.5541  2.3104  1.5023  1.5023  0.9197  0.7909  0.7909  0.5559  0.3644
  0.4021  0.3883

 Free energy of the ion-electron system (eV)
  ---------------------------------------------------
  alpha Z        PSCENC =       243.04870439
  Ewald energy   TEWEN  =     64799.16737654
  -Hartree energ DENC   =    -76634.64932634
  -exchange      EXHF   =         0.00000000
  -V(xc)+E(xc)   XCENC  =     -2089.65140513
  PAW double counting   =      8253.54647508    -5608.87893473
  entropy T*S    EENTRO =        -0.00000000
  eigenvalues    EBANDS =     -1238.86750818
  atomic energy  EATOM  =     11953.08265402
  Solvation  Ediel_sol  =         0.00000000
  ---------------------------------------------------
  free energy    TOTEN  =      -323.20196435 eV

  energy without entropy =     -323.20196435  energy(sigma->0) =     -323.20196435


--------------------------------------------------------------------------------------------------------




--------------------------------------- Iteration      1(  18)  ---------------------------------------


    POTLOK:  cpu time    0.2842: real time    0.2845
    SETDIJ:  cpu time    0.0136: real time    0.0136
    EDDIAG:  cpu time    2.5505: real time    2.5615
  RMM-DIIS:  cpu time   42.1776: real time   42.2974
    ORTHCH:  cpu time    0.2302: real time    0.2305
       DOS:  cpu time    0.0005: real time    0.0005
    CHARGE:  cpu time    1.1626: real time    1.1637
    MIXING:  cpu time    0.0126: real time    0.0126
    --------------------------------------------
      LOOP:  cpu time   46.4319: real time   46.5642

 eigenvalue-minimisations  :  2103
 total energy-change (2. order) :-0.1198858E-02  (-0.3925240E-04)
 number of electron     324.0000014 magnetization 
 augmentation part      -21.2328419 magnetization 

 Broyden mixing:
  rms(total) = 0.19970E-02    rms(broyden)= 0.19970E-02
  rms(prec ) = 0.24105E-02
  weight for this iteration     100.00

 eigenvalues of (default mixing * dielectric matrix)
  average eigenvalue GAMMA=   1.3974
  5.0936  2.7589  2.2863  1.6676  1.6676  0.9948  0.7917  0.7917  0.5574  0.3650
  0.3817  0.4072  0.4026

 Free energy of the ion-electron system (eV)
  ---------------------------------------------------
  alpha Z        PSCENC =       243.04870439
  Ewald energy   TEWEN  =     64799.16737654
  -Hartree energ DENC   =    -76637.18145051
  -exchange      EXHF   =         0.00000000
  -V(xc)+E(xc)   XCENC  =     -2089.64103326
  PAW double counting   =      8252.80609955    -5608.13802780
  entropy T*S    EENTRO =        -0.00000000
  eigenvalues    EBANDS =     -1236.34748615
  atomic energy  EATOM  =     11953.08265402
  Solvation  Ediel_sol  =         0.00000000
  ---------------------------------------------------
  free energy    TOTEN  =      -323.20316321 eV

  energy without entropy =     -323.20316321  energy(sigma->0) =     -323.20316321


--------------------------------------------------------------------------------------------------------




--------------------------------------- Iteration      1(  19)  ---------------------------------------


    POTLOK:  cpu time    0.2806: real time    0.2822
    SETDIJ:  cpu time    0.0131: real time    0.0131
    EDDIAG:  cpu time    2.5759: real time    2.5909
  RMM-DIIS:  cpu time   45.3038: real time   45.4357
    ORTHCH:  cpu time    0.2387: real time    0.2390
       DOS:  cpu time    0.0005: real time    0.0005
    CHARGE:  cpu time    1.1733: real time    1.1745
    MIXING:  cpu time    0.0092: real time    0.0092
    --------------------------------------------
      LOOP:  cpu time   49.5950: real time   49.7450

 eigenvalue-minimisations  :  2255
 total energy-change (2. order) :-0.6231639E-03  (-0.1309328E-04)
 number of electron     324.0000014 magnetization 
 augmentation part      -21.2318026 magnetization 

 Broyden mixing:
  rms(total) = 0.12476E-02    rms(broyden)= 0.12476E-02
  rms(prec ) = 0.15187E-02
  weight for this iteration     100.00

 eigenvalues of (default mixing * dielectric matrix)
  average eigenvalue GAMMA=   1.5097
  6.3325  2.9470  2.3374  1.9320  1.9320  0.9886  0.9886  0.7904  0.7904  0.5654
  0.4051  0.3902  0.3632  0.3732

 Free energy of the ion-electron system (eV)
  ---------------------------------------------------
  alpha Z        PSCENC =       243.04870439
  Ewald energy   TEWEN  =     64799.16737654
  -Hartree energ DENC   =    -76638.34198442
  -exchange      EXHF   =         0.00000000
  -V(xc)+E(xc)   XCENC  =     -2089.63794448
  PAW double counting   =      8252.67946184    -5608.00862236
  entropy T*S    EENTRO =        -0.00000000
  eigenvalues    EBANDS =     -1235.19343191
  atomic energy  EATOM  =     11953.08265402
  Solvation  Ediel_sol  =         0.00000000
  ---------------------------------------------------
  free energy    TOTEN  =      -323.20378638 eV

  energy without entropy =     -323.20378638  energy(sigma->0) =     -323.20378638


--------------------------------------------------------------------------------------------------------




--------------------------------------- Iteration      1(  20)  ---------------------------------------


    POTLOK:  cpu time    0.2814: real time    0.2817
    SETDIJ:  cpu time    0.0108: real time    0.0108
    EDDIAG:  cpu time    2.5442: real time    2.5594
  RMM-DIIS:  cpu time   42.0144: real time   42.1493
    ORTHCH:  cpu time    0.2367: real time    0.2369
       DOS:  cpu time    0.0004: real time    0.0004
    CHARGE:  cpu time    1.1626: real time    1.1637
    MIXING:  cpu time    0.0084: real time    0.0084
    --------------------------------------------
      LOOP:  cpu time   46.2591: real time   46.4106

 eigenvalue-minimisations  :  2077
 total energy-change (2. order) :-0.6169261E-03  (-0.9985078E-05)
 number of electron     324.0000014 magnetization 
 augmentation part      -21.2297004 magnetization 

 Broyden mixing:
  rms(total) = 0.75754E-03    rms(broyden)= 0.75754E-03
  rms(prec ) = 0.88259E-03
  weight for this iteration     100.00

 eigenvalues of (default mixing * dielectric matrix)
  average eigenvalue GAMMA=   1.5181
  6.7813  3.1225  2.4580  1.8712  1.8712  1.0875  1.0875  0.7893  0.7893  0.8106
  0.5712  0.4041  0.3915  0.3627  0.3733

 Free energy of the ion-electron system (eV)
  ---------------------------------------------------
  alpha Z        PSCENC =       243.04870439
  Ewald energy   TEWEN  =     64799.16737654
  -Hartree energ DENC   =    -76638.94211325
  -exchange      EXHF   =         0.00000000
  -V(xc)+E(xc)   XCENC  =     -2089.63804544
  PAW double counting   =      8253.26362915    -5608.59196352
  entropy T*S    EENTRO =        -0.00000000
  eigenvalues    EBANDS =     -1234.59464520
  atomic energy  EATOM  =     11953.08265402
  Solvation  Ediel_sol  =         0.00000000
  ---------------------------------------------------
  free energy    TOTEN  =      -323.20440330 eV

  energy without entropy =     -323.20440330  energy(sigma->0) =     -323.20440330


--------------------------------------------------------------------------------------------------------




--------------------------------------- Iteration      1(  21)  ---------------------------------------


    POTLOK:  cpu time    0.2829: real time    0.2832
    SETDIJ:  cpu time    0.0105: real time    0.0105
    EDDIAG:  cpu time    2.5678: real time    2.5748
  RMM-DIIS:  cpu time   47.5120: real time   47.6591
    ORTHCH:  cpu time    0.2266: real time    0.2269
       DOS:  cpu time    0.0004: real time    0.0004
    CHARGE:  cpu time    1.1677: real time    1.1689
    MIXING:  cpu time    0.0086: real time    0.0086
    --------------------------------------------
      LOOP:  cpu time   51.7765: real time   51.9324

 eigenvalue-minimisations  :  2329
 total energy-change (2. order) :-0.1753922E-03  (-0.2901760E-05)
 number of electron     324.0000014 magnetization 
 augmentation part      -21.2307845 magnetization 

 Broyden mixing:
  rms(total) = 0.55148E-03    rms(broyden)= 0.55148E-03
  rms(prec ) = 0.65467E-03
  weight for this iteration     100.00

 eigenvalues of (default mixing * dielectric matrix)
  average eigenvalue GAMMA=   1.5382
  7.2411  3.3786  2.5350  1.8033  1.8033  1.7807  0.9974  0.9974  0.7866  0.7866
  0.5681  0.4046  0.4046  0.3906  0.3638  0.3691

 Free energy of the ion-electron system (eV)
  ---------------------------------------------------
  alpha Z        PSCENC =       243.04870439
  Ewald energy   TEWEN  =     64799.16737654
  -Hartree energ DENC   =    -76639.10640037
  -exchange      EXHF   =         0.00000000
  -V(xc)+E(xc)   XCENC  =     -2089.63903266
  PAW double counting   =      8253.43486097    -5608.76451488
  entropy T*S    EENTRO =        -0.00000000
  eigenvalues    EBANDS =     -1234.42822671
  atomic energy  EATOM  =     11953.08265402
  Solvation  Ediel_sol  =         0.00000000
  ---------------------------------------------------
  free energy    TOTEN  =      -323.20457869 eV

  energy without entropy =     -323.20457869  energy(sigma->0) =     -323.20457869


--------------------------------------------------------------------------------------------------------




--------------------------------------- Iteration      1(  22)  ---------------------------------------


    POTLOK:  cpu time    0.2830: real time    0.2832
    SETDIJ:  cpu time    0.0140: real time    0.0140
    EDDIAG:  cpu time    2.5585: real time    2.5654
  RMM-DIIS:  cpu time   42.8605: real time   42.9662
    ORTHCH:  cpu time    0.2291: real time    0.2375
       DOS:  cpu time    0.0004: real time    0.0004
    CHARGE:  cpu time    1.1629: real time    1.1639
    MIXING:  cpu time    0.0121: real time    0.0121
    --------------------------------------------
      LOOP:  cpu time   47.1205: real time   47.2428

 eigenvalue-minimisations  :  2000
 total energy-change (2. order) :-0.1354463E-03  (-0.1245938E-05)
 number of electron     324.0000014 magnetization 
 augmentation part      -21.2327027 magnetization 

 Broyden mixing:
  rms(total) = 0.32781E-03    rms(broyden)= 0.32781E-03
  rms(prec ) = 0.37367E-03
  weight for this iteration     100.00

 eigenvalues of (default mixing * dielectric matrix)
  average eigenvalue GAMMA=   1.5963
  7.6334  3.4516  2.5139  2.5139  1.8790  1.8790  1.1533  1.0256  1.0256  0.7855
  0.7855  0.5695  0.4037  0.3968  0.3881  0.3627  0.3692

[...]
  0.000  -0.000   0.000  -0.000  -0.000   0.011   0.000   0.000
  0.000  -0.000  -0.000   0.000  -0.000   0.000   0.011   0.000
 -0.000  -0.000  -0.000  -0.000   0.000   0.000   0.000   0.011
  0.000   0.000   0.001   0.000   0.000  -0.000  -0.000  -0.000
 -0.000   0.000   0.012   0.001   0.000   0.000  -0.000  -0.000
 -0.009  -0.000  -0.000   0.017  -0.000   0.000   0.000   0.000
 -0.000   0.000   0.000   0.001   0.012  -0.000  -0.000   0.000
  0.001   0.000  -0.001   0.000   0.001  -0.000   0.000  -0.000
 total augmentation occupancy for first ion, spin component:           1
  1.940   0.168  -0.006  -0.200   0.004  -0.005  -0.031  -0.005   0.001   0.000   0.008   0.001  -0.002
  0.168   1.312   0.033   0.896   0.004  -0.013  -0.349  -0.013   0.002   0.004  -0.025   0.000   0.009
 -0.006   0.033   1.339   0.003   0.002  -0.449  -0.010  -0.012   0.000   0.111  -0.003   0.004   0.035
 -0.200   0.896   0.003   1.478   0.014  -0.010  -0.529  -0.003   0.005   0.003   0.040   0.003  -0.002
  0.004   0.004   0.002   0.014   1.324  -0.012  -0.003  -0.448   0.044   0.004   0.001   0.109  -0.000
 -0.005  -0.013  -0.449  -0.010  -0.012   0.280   0.004   0.003  -0.002  -0.035   0.000  -0.001  -0.006
 -0.031  -0.349  -0.010  -0.529  -0.003   0.004   0.266   0.000  -0.000  -0.002  -0.040  -0.001   0.000
 -0.005  -0.013  -0.012  -0.003  -0.448   0.003   0.000   0.294  -0.008  -0.001   0.001  -0.033  -0.002
  0.001   0.002   0.000   0.005   0.044  -0.002  -0.000  -0.008   0.018   0.000  -0.001   0.000  -0.000
  0.000   0.004   0.111   0.003   0.004  -0.035  -0.002  -0.001   0.000   0.016   0.000   0.000  -0.000
  0.008  -0.025  -0.003   0.040   0.001   0.000  -0.040   0.001  -0.001   0.000   0.018   0.000  -0.001
  0.001   0.000   0.004   0.003   0.109  -0.001  -0.001  -0.033   0.000   0.000   0.000   0.017   0.000
 -0.002   0.009   0.035  -0.002  -0.000  -0.006   0.000  -0.002  -0.000  -0.000  -0.001   0.000   0.019


------------------------ aborting loop because EDIFF is reached ----------------------------------------


    CHARGE:  cpu time    1.1722: real time    1.1734
    FORLOC:  cpu time    0.0758: real time    0.0800
    FORNL :  cpu time   14.1720: real time   14.2011
    STRESS:  cpu time   73.5394: real time   73.7398
    FORCOR:  cpu time    0.3160: real time    0.3163
    FORHAR:  cpu time    0.1361: real time    0.1362
    MIXING:  cpu time    0.0090: real time    0.0090
    OFIELD:  cpu time    0.0000: real time    0.0000

  Number of pair interactions contributing to vdW energy:  268078
  Edisp (eV):  -19.30604
    FORVDW:  cpu time    0.0305: real time    0.0305

  FORCE on cell =-STRESS in cart. coord.  units (eV):
  Direction    XX          YY          ZZ          XY          YZ          ZX
  --------------------------------------------------------------------------------------
  Alpha Z   243.04870   243.04870   243.04870
  Ewald   74125.26230 73995.14615-83189.00522     5.99116   -57.07038    34.07597
  Hartree 76416.64268 76384.56524-76030.85762     1.99793    -8.63240     3.27843
  E(xc)   -1352.20036 -1349.65677 -1369.02152     0.08298     1.74992    -1.47321
  Local  ************************154170.10380    -7.85664    64.66294   -37.09485
  n-local  3541.70509  3541.21447  3722.90634     0.73478   -12.02695    10.36376
  augment  -759.22909  -761.94255  -800.59690    -0.19139     1.78687    -1.74094
  Kinetic  3304.48430  3275.38778  3232.90599    -1.57956    -9.72903     5.85147
  Fock        0.00000     0.00000     0.00000     0.00000     0.00000     0.00000
  vdW       -12.11351   -12.02238    -9.82771     0.16398    -0.11600    -0.59384
  -------------------------------------------------------------------------------------
  Total      11.73894   -22.55679   -30.34412    -0.65676   -19.37503    12.66679
  in kB       6.36957   -12.23936   -16.46478    -0.35636   -10.51293     6.87303
  external pressure =       -7.44 kB  Pullay stress =        0.00 kB

  kinetic pressure (ideal gas correction) =      0.22 kB
  total pressure  =     -7.23 kB
  Total+kin.     6.532     -12.086     -16.132      -0.376     -10.504       6.807

 VOLUME and BASIS-vectors are now :
 -----------------------------------------------------------------------------
  energy-cutoff  :      550.00
  volume of cell :     2952.77
      direct lattice vectors                 reciprocal lattice vectors
    10.347681842  0.000000000  0.000000000     0.096640003  0.053369707  0.000590605
    -5.134259756  9.296938343  0.000000000     0.000000000  0.107562292 -0.002611333
    -0.599095530  0.745157948 30.693481447     0.000000000  0.000000000  0.032580208

  length of vectors
    10.347681842 10.620437176 30.708369855     0.110399115  0.107593986  0.032580208


 FORCES acting on ions
    electron-ion (+dipol)            ewald-force                    non-local-force                 convergence-correction
 -----------------------------------------------------------------------------------------------
   0.176E+01 0.251E+01 0.848E+03   -.175E+01 -.255E+01 -.853E+03   -.413E+00 0.535E-01 0.580E+01   0.103E-02 -.631E-03 0.395E-03
   0.346E+01 0.344E+01 0.844E+03   -.345E+01 -.342E+01 -.849E+03   -.480E+00 -.118E+00 0.520E+01   0.527E-03 0.140E-03 -.911E-03
   0.109E+00 -.762E+00 0.846E+03   -.975E-02 0.722E+00 -.852E+03   -.255E+00 0.251E+00 0.568E+01   -.365E-03 0.129E-02 -.122E-03
   -.234E+01 0.287E+01 0.844E+03   0.245E+01 -.295E+01 -.849E+03   -.124E+00 0.825E-01 0.584E+01   -.610E-03 0.581E-04 0.673E-03
   0.165E+00 0.377E+00 0.848E+03   -.125E+00 -.370E+00 -.853E+03   -.282E+00 0.348E+00 0.544E+01   -.850E-03 -.149E-02 -.947E-03
   0.182E+01 -.286E+01 0.848E+03   -.178E+01 0.283E+01 -.853E+03   -.294E+00 0.383E+00 0.554E+01   0.139E-03 0.641E-03 -.263E-03
   0.178E+01 -.244E+00 0.849E+03   -.171E+01 0.284E+00 -.854E+03   -.310E+00 0.121E+00 0.572E+01   -.439E-03 -.866E-03 -.101E-03
   -.218E+01 0.269E+01 0.844E+03   0.231E+01 -.275E+01 -.850E+03   -.940E-01 0.163E+00 0.557E+01   0.326E-03 -.103E-02 -.116E-02
   -.177E+00 -.127E+01 0.848E+03   0.247E+00 0.125E+01 -.853E+03   -.305E+00 0.345E+00 0.551E+01   0.192E-03 0.189E-02 -.741E-03
   0.653E+00 0.424E+00 -.113E+03   -.594E+00 -.497E+00 0.108E+03   -.352E+00 0.324E+00 0.514E+01   -.892E-03 0.144E-02 0.360E-03
   0.117E+01 0.109E+00 -.111E+03   -.117E+01 -.109E+00 0.106E+03   -.214E+00 0.106E-01 0.562E+01   -.101E-02 -.140E-02 0.925E-03
   -.452E+00 0.288E+01 -.114E+03   0.584E+00 -.293E+01 0.109E+03   -.235E+00 0.517E-01 0.576E+01   0.240E-03 -.860E-03 0.637E-04
   -.165E+01 0.178E+01 -.114E+03   0.173E+01 -.185E+01 0.108E+03   -.189E+00 -.233E-01 0.580E+01   0.174E-04 0.475E-03 0.144E-03
   -.147E+01 -.243E+01 -.115E+03   0.151E+01 0.242E+01 0.109E+03   -.993E-01 0.341E+00 0.574E+01   0.628E-03 -.673E-03 0.304E-03
   0.192E+01 0.288E+01 -.114E+03   -.192E+01 -.294E+01 0.109E+03   -.403E+00 -.467E-01 0.572E+01   0.362E-03 0.804E-03 -.712E-04
   0.213E+01 -.888E+00 -.111E+03   -.211E+01 0.864E+00 0.106E+03   -.333E+00 0.302E+00 0.548E+01   0.838E-03 0.615E-03 0.112E-02
   0.782E+00 0.916E+00 -.112E+03   -.757E+00 -.951E+00 0.107E+03   -.136E+00 0.517E-01 0.583E+01   0.360E-03 0.224E-05 0.116E-02
   0.823E+00 0.427E+01 -.115E+03   -.776E+00 -.440E+01 0.110E+03   -.232E+00 0.200E+00 0.560E+01   -.660E-03 -.316E-03 0.436E-03
   -.283E+01 0.138E+01 0.111E+03   0.277E+01 -.117E+01 -.106E+03   0.348E+00 -.528E+00 -.565E+01   0.880E-03 -.757E-03 -.932E-03
   -.180E+01 0.714E+00 0.113E+03   0.174E+01 -.495E+00 -.108E+03   0.347E+00 -.396E+00 -.573E+01   0.342E-03 0.499E-05 0.206E-03
   -.149E+01 0.148E+01 0.111E+03   0.149E+01 -.136E+01 -.106E+03   0.189E+00 -.341E+00 -.558E+01   -.357E-03 0.119E-02 -.649E-03
   -.163E+01 0.331E+01 0.114E+03   0.157E+01 -.315E+01 -.108E+03   0.415E+00 -.587E+00 -.564E+01   -.527E-03 -.973E-05 -.134E-02
   0.581E+00 0.117E+01 0.113E+03   -.668E+00 -.949E+00 -.108E+03   0.112E+00 -.402E+00 -.561E+01   -.809E-03 -.133E-02 -.205E-04
   -.559E+00 0.195E+01 0.112E+03   0.501E+00 -.181E+01 -.107E+03   0.301E+00 -.467E+00 -.558E+01   0.182E-03 0.718E-03 -.565E-03
   0.107E+01 0.336E+01 0.113E+03   -.119E+01 -.316E+01 -.108E+03   0.321E+00 -.715E+00 -.509E+01   -.478E-03 -.773E-03 -.321E-03
   -.104E+01 0.170E+01 0.115E+03   0.988E+00 -.151E+01 -.110E+03   0.371E+00 -.452E+00 -.546E+01   0.566E-03 -.103E-02 0.597E-03
   0.492E+00 0.394E+01 0.110E+03   -.586E+00 -.378E+01 -.105E+03   0.182E+00 -.619E+00 -.537E+01   0.167E-03 0.195E-02 -.174E-03
   -.208E+01 0.162E+01 -.847E+03   0.207E+01 -.152E+01 0.853E+03   0.255E+00 -.342E+00 -.560E+01   -.945E-03 0.124E-02 0.172E-03
   -.122E+01 0.698E+00 -.847E+03   0.115E+01 -.535E+00 0.853E+03   0.304E+00 -.350E+00 -.551E+01   -.103E-02 -.139E-02 -.781E-04
   0.903E+00 0.345E+01 -.845E+03   -.910E+00 -.333E+01 0.850E+03   0.947E-01 -.494E+00 -.545E+01   0.294E-03 -.882E-03 0.106E-02
   -.105E+01 -.781E+00 -.846E+03   0.987E+00 0.931E+00 0.851E+03   0.251E+00 -.343E+00 -.593E+01   0.784E-04 0.372E-03 0.619E-03
   -.119E+01 0.200E+01 -.845E+03   0.112E+01 -.189E+01 0.850E+03   0.175E+00 -.424E+00 -.561E+01   0.851E-03 -.536E-03 0.537E-03
   -.982E+00 0.454E+01 -.848E+03   0.891E+00 -.444E+01 0.853E+03   0.239E+00 -.603E+00 -.560E+01   0.376E-03 0.754E-03 0.117E-02
   0.457E+00 0.135E+01 -.847E+03   -.575E+00 -.118E+01 0.852E+03   0.284E+00 -.482E+00 -.564E+01   0.882E-03 0.534E-03 -.361E-03
   0.306E+00 0.335E+01 -.844E+03   -.381E+00 -.321E+01 0.849E+03   0.319E+00 -.640E+00 -.552E+01   0.335E-03 0.547E-04 -.383E-03
   -.132E+01 0.425E+01 -.846E+03   0.128E+01 -.411E+01 0.851E+03   0.329E+00 -.502E+00 -.569E+01   -.685E-03 -.287E-03 0.665E-03
   -.265E+01 -.494E+01 0.475E+03   0.268E+01 0.510E+01 -.476E+03   0.340E+00 0.175E+00 -.471E+00   0.476E-03 0.117E-02 -.102E-02
   -.115E+01 -.304E+01 0.483E+03   0.117E+01 0.309E+01 -.483E+03   0.261E+00 0.335E+00 -.108E+00   0.600E-03 -.950E-03 -.791E-03
   0.700E+00 -.269E+01 0.482E+03   -.696E+00 0.281E+01 -.482E+03   -.245E+00 0.178E-01 0.159E+00   0.400E-03 0.431E-03 -.844E-03
   -.391E+00 -.560E+01 0.478E+03   0.359E+00 0.566E+01 -.478E+03   0.478E-01 0.386E+00 -.240E+00   -.234E-03 0.991E-03 -.934E-03
   0.682E+00 0.148E+00 0.481E+03   -.770E+00 -.141E+00 -.481E+03   0.139E-01 0.617E-01 0.176E+00   0.485E-04 -.129E-02 -.883E-03
   -.417E+00 -.317E+01 0.481E+03   0.517E+00 0.329E+01 -.481E+03   0.151E+00 -.722E-01 0.521E+00   -.240E-03 -.242E-04 -.857E-03
   0.280E+01 -.382E+01 0.482E+03   -.282E+01 0.390E+01 -.482E+03   -.114E+00 0.224E+00 -.630E-01   -.813E-04 0.764E-03 -.797E-03
   0.229E+01 -.349E+00 0.477E+03   -.238E+01 0.406E+00 -.477E+03   -.308E+00 0.967E-01 -.493E+00   -.530E-03 -.119E-02 -.967E-03
   0.432E+00 -.298E+01 0.481E+03   -.523E+00 0.312E+01 -.481E+03   0.778E-01 0.488E-01 0.131E+00   -.246E-03 -.275E-04 -.864E-03
   -.404E+01 -.404E+01 -.480E+03   0.412E+01 0.408E+01 0.480E+03   0.195E+00 0.835E-01 0.365E+00   -.301E-03 0.424E-03 0.918E-03
   -.139E+01 -.508E+01 -.482E+03   0.134E+01 0.522E+01 0.482E+03   0.143E+00 0.112E+00 -.958E-01   -.342E-03 -.830E-03 0.852E-03
   -.133E+01 -.391E+01 -.483E+03   0.136E+01 0.405E+01 0.483E+03   0.195E+00 0.343E+00 -.337E+00   0.405E-03 0.313E-03 0.833E-03
   0.336E+01 -.387E+01 -.476E+03   -.339E+01 0.394E+01 0.476E+03   -.190E+00 0.223E+00 0.245E+00   0.905E-03 0.502E-03 0.106E-02
   0.938E+00 -.205E+01 -.480E+03   -.102E+01 0.211E+01 0.480E+03   -.138E+00 0.146E+00 -.174E+00   0.447E-03 -.444E-03 0.993E-03
   0.121E+01 -.750E+00 -.481E+03   -.124E+01 0.854E+00 0.481E+03   0.123E+00 -.680E-03 0.168E+00   0.352E-03 0.850E-03 0.942E-03
   0.184E+01 -.466E+01 -.476E+03   -.189E+01 0.479E+01 0.476E+03   0.306E-01 -.418E-02 0.256E+00   -.601E-03 0.119E-03 0.983E-03
   0.170E+01 -.298E+01 -.478E+03   -.168E+01 0.306E+01 0.478E+03   -.286E+00 0.187E+00 -.124E+00   -.371E-03 -.121E-02 0.958E-03
   0.821E-01 0.133E+01 -.480E+03   -.785E-01 -.132E+01 0.481E+03   0.367E-01 -.219E+00 0.232E+00   -.503E-03 0.349E-03 0.891E-03
 -----------------------------------------------------------------------------------------------
   -.418E+00 0.370E+01 -.885E+00   0.908E-13 0.888E-14 -.136E-11   0.418E+00 -.371E+01 0.884E+00   0.136E-03 -.144E-03 0.194E-02
 
 
 POSITION                                       TOTAL-FORCE (eV/Angst)
 -----------------------------------------------------------------------------------
     -0.17327      2.30767      9.82617        -0.381047     -0.004919      0.726782
     -1.87252      5.42143      9.89358        -0.452177     -0.103043     -0.045122
     -3.62524      8.51310      9.84718        -0.155329      0.201418      0.576451
      3.25736      2.31412      9.85181        -0.007086     -0.003757      0.678255
      1.56051      5.38392      9.84757        -0.231391      0.335083      0.259541
     -0.15688      8.49500      9.84162        -0.251777      0.334778      0.433242
      6.71276      2.29970      9.82768        -0.224181      0.145396      0.619428
      4.99041      5.40590      9.87481         0.028114      0.099884      0.316032
      3.29963      8.49088      9.84935        -0.222077      0.308584      0.424005
      9.73001      0.91767     17.16573        -0.285540      0.210865     -0.090076
     -2.31717      4.05056     17.12660        -0.202558     -0.025669      0.452409
      6.29002      7.14166     17.14269        -0.105889     -0.032617      0.487416
      2.81782      0.93843     17.12781        -0.104512     -0.124609      0.591407
      1.10108      4.01097     17.13989        -0.062448      0.292007      0.485936
     -0.58854      7.15720     17.14172        -0.392980     -0.130379      0.530296
      6.29801      0.91165     17.13441        -0.289385      0.236074      0.257311
      4.56986      4.04118     17.12168        -0.103339     -0.015153      0.578582
      2.84300      7.12483     17.15839        -0.184603      0.036877      0.302433
     -0.26721      2.41068     13.56938         0.278877     -0.287895     -0.464651
     -1.96167      5.48415     13.54680         0.280934     -0.147254     -0.451766
     -3.68063      8.58358     13.56630         0.186520     -0.198081     -0.350773
      3.17110      2.41575     13.55396         0.335412     -0.392491     -0.383815
      1.49689      5.49135     13.53545         0.028531     -0.156438     -0.344802
     -0.22570      8.59578     13.55384         0.241019     -0.293537     -0.391738
      6.65015      2.40224     13.53047         0.209213     -0.483717      0.082094
      4.92980      5.50786     13.51966         0.314376     -0.226631     -0.104714
      3.21717      8.60753     13.55246         0.083372     -0.427058     -0.164468
      9.64951      1.01686     20.84518         0.229503     -0.234993     -0.494241
      7.95763      4.09463     20.85057         0.227010     -0.189688     -0.454238
      6.22891      7.21234     20.83171         0.080224     -0.361792     -0.293269
      2.76252      1.01348     20.87066         0.178167     -0.189086     -0.829066
      1.06428      4.10781     20.84098         0.109092     -0.305364     -0.457840
     -0.65764      7.24332     20.86470         0.143857     -0.489267     -0.498824
      6.21698      1.03189     20.85138         0.165339     -0.309961     -0.592067
      4.51611      4.12753     20.83233         0.243668     -0.491656     -0.394090
      2.77183      7.22776     20.85059         0.271040     -0.350226     -0.526229
     10.09198      0.28599     11.73790         0.394524      0.330665     -0.621066
      8.39085      3.36277     11.70195         0.299775      0.413140     -0.280594
     -3.63697      6.50136     11.69225        -0.266023      0.119309      0.111869
     -1.92796      9.56638     11.71933         0.021138      0.478555     -0.368529
      1.49596      3.39009     11.68491        -0.061599      0.069761      0.195983
     -0.19765      6.49574     11.67023         0.239306      0.039506      0.670584
      1.53702      9.57498     11.69460        -0.166040      0.316974     -0.164410
      4.97515      3.38350     11.73096        -0.434237      0.163242     -0.706059
      3.23570      6.49204     11.68658         0.010368      0.171612      0.107525
      1.05980      2.00021     18.97196         0.292269      0.139308      0.518766
     -0.64229      5.11287     19.00253         0.121996      0.261247     -0.096443
     -2.36960      8.19636     19.01861         0.233280      0.489885     -0.458854
      4.53869      1.99711     18.96626        -0.257738      0.296388      0.240535
      2.82315      5.10049     19.00051        -0.217106      0.208888     -0.253337
      1.08584      8.22028     18.98833         0.093519      0.091052      0.224755
      7.97290      2.01581     18.97002        -0.021214      0.126448      0.254868
      6.28605      5.09851     18.99079        -0.298951      0.280784     -0.184761
      4.53276      8.22759     18.98249         0.039292     -0.225902      0.340278
 -----------------------------------------------------------------------------------
    total drift:                                0.000507     -0.003457      0.000943


--------------------------------------------------------------------------------------------------------



  FREE ENERGIE OF THE ION-ELECTRON SYSTEM (eV)
  ---------------------------------------------------
  free  energy   TOTEN  =      -342.38808584 eV

  energy  without entropy=     -342.38808584  energy(sigma->0) =     -342.38808584
 
 d Force =-0.1316582E-01[-0.152E-01,-0.111E-01]  d Energy =-0.1310704E-01-0.588E-04
 d Force =-0.2233739E+02[-0.223E+02,-0.223E+02]  d Ewald  =-0.2233739E+02 0.697E-06


--------------------------------------------------------------------------------------------------------


    POTLOK:  cpu time    0.2866: real time    0.2869


--------------------------------------------------------------------------------------------------------


           RANDOM_SEED =         235523362              324                0
   IONSTEP:  cpu time    0.0001: real time    0.0001

  ENERGY OF THE ELECTRON-ION-THERMOSTAT SYSTEM (eV)
  ---------------------------------------------------
% ion-electron   TOTEN  =      -342.388086  see above
  kinetic energy EKIN   =         0.595919
  kin. lattice  EKIN_LAT=         0.000000  (temperature   86.99 K)
  nose potential ES     =        -0.036339
  nose kinetic   EPS    =         0.003876
  ---------------------------------------------------
  total energy   ETOTAL =      -341.824629 eV

  maximum distance moved by ions :      0.40E-03


 mean value of Nose-termostat <S>:     0.965 mean value of <T> :    86.985
 mean temperature <T/S>/<1/S>  :    86.985

    WAVPRE:  cpu time    0.1040: real time    0.1072
    FEWALD:  cpu time    0.0020: real time    0.0020
    ORTHCH:  cpu time    8.2371: real time    8.2615
    POTLOK:  cpu time    0.2961: real time    0.2964
    EDDIAG:  cpu time    2.5610: real time    2.5755
     LOOP+:  cpu time  488.9441: real time  490.2764
    4ORBIT:  cpu time    0.0000: real time    0.0000

 total amount of memory used by VASP MPI-rank0   365335. kBytes
=======================================================================

   base      :      30000. kBytes
   nonl-proj :     199434. kBytes
   fftplans  :      17372. kBytes
   grid      :      82746. kBytes
   one-center:        839. kBytes
   wavefun   :      34944. kBytes
 
  
  
 General timing and accounting informations for this job:
 ========================================================
  
                  Total CPU time used (sec):     5901.018
                            User time (sec):     5887.438
                          System time (sec):       13.580
                         Elapsed time (sec):     5917.407
  
                   Maximum memory used (kb):      809748.
                   Average memory used (kb):           0.
  
                          Minor page faults:       383359
                          Major page faults:            0
                 Voluntary context switches:          598
