 vasp.6.1.1 19Jun20 (build Dec 21 2021 08:45:49) complex                        
  
 executed on             LinuxIFC date 2023.10.08  01:59:50
 running on   40 total cores
 distrk:  each k-point on   40 cores,    1 groups
 distr:  one band on NCORE=   1 cores,   40 groups


--------------------------------------------------------------------------------------------------------


 INCAR:
 POTCAR:   PAW_PBE Te 08Apr2002                   
 POTCAR:   PAW_PBE Mo 08Apr2002                   
 -----------------------------------------------------------------------------
|                                                                             |
|           W    W    AA    RRRRR   N    N  II  N    N   GGGG   !!!           |
|           W    W   A  A   R    R  NN   N  II  NN   N  G    G  !!!           |
|           W    W  A    A  R    R  N N  N  II  N N  N  G       !!!           |
|           W WW W  AAAAAA  RRRRR   N  N N  II  N  N N  G  GGG   !            |
|           WW  WW  A    A  R   R   N   NN  II  N   NN  G    G                |
|           W    W  A    A  R    R  N    N  II  N    N   GGGG   !!!           |
|                                                                             |
|     For optimal performance we recommend to set                             |
|       NCORE = 4 - approx SQRT(number of cores).                             |
|     NCORE specifies how many cores store one orbital (NPAR=cpu/NCORE).      |
|     This setting can greatly improve the performance of VASP for DFT.       |
|     The default, NCORE=1 might be grossly inefficient on modern             |
|     multi-core architectures or massively parallel machines. Do your        |
|     own testing!!!!                                                         |
|     Unfortunately you need to use the default for GW and RPA                |
|     calculations (for HF NCORE is supported but not extensively tested      |
|     yet).                                                                   |
|                                                                             |
 -----------------------------------------------------------------------------

 POTCAR:   PAW_PBE Te 08Apr2002                   
   VRHFIN =Te: s2p4                                                                                 
   LEXCH  = PE                                                                                      
   EATOM  =   223.2721 eV,   16.4100 Ry                                                             
                                                                                                    
   TITEL  = PAW_PBE Te 08Apr2002                                                                    
   LULTRA =        F    use ultrasoft PP ?                                                          
   IUNSCR =        1    unscreen: 0-lin 1-nonlin 2-no                                               
   RPACOR =    2.200    partial core radius                                                         
   POMASS =  127.600; ZVAL   =    6.000    mass and valenz                                          
   RCORE  =    2.300    outmost cutoff radius                                                       
   RWIGS  =    2.900; RWIGS  =    1.535    wigner-seitz radius (au A)                               
   ENMAX  =  174.982; ENMIN  =  131.236 eV                                                          
   ICORE  =        3    local potential                                                             
   LCOR   =        T    correct aug charges                                                         
   LPAW   =        T    paw PP                                                                      
   EAUG   =  368.792                                                                                
   DEXC   =    -.169                                                                                
   RMAX   =    3.486    core radius for proj-oper                                                   
   RAUG   =    1.300    factor for augmentation sphere                                              
   RDEP   =    2.397    radius for radial grids                                                     
   QCUT   =   -3.586; QGAM   =    7.172    optimization parameters                                  
                                                                                                    
   Description                                                                                      
     l     E      TYP  RCUT    TYP  RCUT                                                            
     0   .000     23  2.300                                                                         
     0   .000     23  2.300                                                                         
     1   .000     23  2.300                                                                         
     1   .000     23  2.300                                                                         
     2   .000     23  2.300                                                                         
     3  -.100     23  2.300                                                                         
  local pseudopotential read in
  partial core-charges read in
  atomic valenz-charges read in
  non local Contribution for L=           0  read in
    real space projection operators read in
  non local Contribution for L=           0  read in
    real space projection operators read in
  non local Contribution for L=           1  read in
    real space projection operators read in
  non local Contribution for L=           1  read in
    real space projection operators read in
  non local Contribution for L=           2  read in
    real space projection operators read in
    PAW grid and wavefunctions read in
 
   number of l-projection  operators is LMAX  =           5
   number of lm-projection operators is LMMAX =          13
 
 POTCAR:   PAW_PBE Mo 08Apr2002                   
   VRHFIN =Mo: 4p5s4d                                                                               
   LEXCH  = PE                                                                                      
   EATOM  =   217.5180 eV,   15.9871 Ry                                                             
                                                                                                    
   TITEL  = PAW_PBE Mo 08Apr2002                                                                    
   LULTRA =        F    use ultrasoft PP ?                                                          
   IUNSCR =        1    unscreen: 0-lin 1-nonlin 2-no                                               
   RPACOR =    2.200    partial core radius                                                         
   POMASS =   95.940; ZVAL   =    6.000    mass and valenz                                          
   RCORE  =    2.750    outmost cutoff radius                                                       
   RWIGS  =    2.750; RWIGS  =    1.455    wigner-seitz radius (au A)                               
   ENMAX  =  224.584; ENMIN  =  168.438 eV                                                          
   RCLOC  =    2.111    cutoff for local pot                                                        
   LCOR   =        T    correct aug charges                                                         
   LPAW   =        T    paw PP                                                                      
   EAUG   =  345.278                                                                                
   DEXC   =    -.088                                                                                
   RMAX   =    3.077    core radius for proj-oper                                                   
   RAUG   =    1.300    factor for augmentation sphere                                              
   RDEP   =    2.815    radius for radial grids                                                     
   QCUT   =   -4.063; QGAM   =    8.126    optimization parameters                                  
                                                                                                    
   Description                                                                                      
     l     E      TYP  RCUT    TYP  RCUT                                                            
     2   .000     23  2.500                                                                         
     2   .000     23  2.500                                                                         
     0   .000     23  2.600                                                                         
     0  1.000     23  2.600                                                                         
     1   .400     23  2.750                                                                         
     1  2.000     23  2.750                                                                         
     3   .000      7   .000                                                                         
  local pseudopotential read in
  partial core-charges read in
  atomic valenz-charges read in
  non local Contribution for L=           2  read in
    real space projection operators read in
  non local Contribution for L=           2  read in
    real space projection operators read in
  non local Contribution for L=           0  read in
    real space projection operators read in
  non local Contribution for L=           0  read in
    real space projection operators read in
  non local Contribution for L=           1  read in
    real space projection operators read in
  non local Contribution for L=           1  read in
    real space projection operators read in
    PAW grid and wavefunctions read in
 
   number of l-projection  operators is LMAX  =           6
   number of lm-projection operators is LMMAX =          18
 
 -----------------------------------------------------------------------------
|                                                                             |
|               ----> ADVICE to this user running VASP <----                  |
|                                                                             |
|     You have a (more or less) 'large supercell' and for larger cells it     |
|     might be more efficient to use real-space projection operators.         |
|     Therefore, try LREAL= Auto in the INCAR file.                           |
|     Mind: If you want to do very accurate calculations, keep the            |
|     reciprocal projection scheme (i.e. LREAL=.FALSE.).                      |
|                                                                             |
 -----------------------------------------------------------------------------

 PAW_PBE Te 08Apr2002                   :
 energy of atom  1       EATOM= -223.2721
 kinetic energy error for atom=    0.0006 (will be added to EATOM!!)
 PAW_PBE Mo 08Apr2002                   :
 energy of atom  2       EATOM= -217.5180
 kinetic energy error for atom=    0.0009 (will be added to EATOM!!)
 
 
 POSCAR: Te Mo
  positions in cartesian coordinates
  No initial velocities read in
 exchange correlation table for  LEXCH =        8
   RHO(1)=    0.500       N(1)  =     2000
   RHO(2)=  100.500       N(2)  =     4000
 


--------------------------------------------------------------------------------------------------------


 ion  position               nearest neighbor table
   1  0.111  0.223  0.313-  37 2.71  38 2.72  41 2.73   2 3.47   3 3.48   7 3.49   4 3.50   5 3.52
                             9 3.53  19 3.64
   2  0.112  0.556  0.313-  38 2.71  39 2.72  42 2.72   1 3.47   3 3.48   5 3.49   8 3.50   6 3.51
                             7 3.53  20 3.64
   3  0.111  0.889  0.313-  39 2.70  37 2.72  40 2.72   2 3.48   1 3.48   6 3.49   9 3.50   8 3.52
                             4 3.52  21 3.65
   4  0.445  0.223  0.313-  40 2.71  41 2.73  44 2.73   5 3.47   6 3.48   7 3.49   1 3.50   8 3.52
                             3 3.52  22 3.65
   5  0.445  0.555  0.313-  41 2.70  45 2.72  42 2.73   4 3.47   6 3.48   8 3.49   2 3.49   9 3.51
                             1 3.52  23 3.64
   6  0.444  0.889  0.313-  42 2.71  40 2.73  43 2.73   5 3.48   4 3.48   9 3.49   3 3.49   2 3.51
                             7 3.52  24 3.65
   7  0.778  0.222  0.313-  43 2.70  38 2.73  44 2.73   9 3.47   1 3.49   8 3.49   4 3.49   6 3.52
                             2 3.53  25 3.65
   8  0.778  0.556  0.313-  44 2.71  45 2.72  39 2.72   9 3.47   5 3.49   7 3.49   2 3.50   3 3.52
                             4 3.52  26 3.64
   9  0.777  0.888  0.313-  45 2.70  43 2.72  37 2.72   8 3.47   7 3.47   6 3.49   3 3.50   5 3.51
                             1 3.53  27 3.64
  10  0.111  0.166  0.566-  54 2.71  52 2.73  46 2.73  12 3.47  11 3.48  13 3.49  16 3.50  14 3.52
                            18 3.52  28 3.64
  11  0.111  0.500  0.566-  52 2.71  47 2.73  53 2.73  12 3.48  10 3.48  17 3.50  14 3.50  16 3.52
                            15 3.52  29 3.64
  12  0.112  0.834  0.566-  53 2.71  48 2.72  54 2.73  10 3.47  11 3.48  15 3.49  18 3.50  13 3.52
                            17 3.53  30 3.65
  13  0.445  0.167  0.566-  48 2.70  46 2.72  49 2.72  14 3.46  15 3.48  16 3.49  10 3.49  17 3.51
                            12 3.52  31 3.63
  14  0.445  0.499  0.566-  46 2.70  50 2.72  47 2.73  13 3.46  17 3.48  15 3.49  11 3.50  10 3.52
                            18 3.52  32 3.65
  15  0.445  0.834  0.566-  47 2.71  48 2.72  51 2.73  13 3.48  12 3.49  14 3.49  18 3.49  16 3.51
                            11 3.52  33 3.64
  16  0.778  0.167  0.566-  51 2.70  49 2.72  52 2.73  17 3.47  18 3.48  13 3.49  10 3.50  15 3.51
                            11 3.52  34 3.64
  17  0.777  0.500  0.566-  49 2.70  50 2.73  53 2.74  16 3.47  18 3.48  14 3.48  11 3.50  13 3.51
                            12 3.53  35 3.65
  18  0.778  0.833  0.566-  50 2.71  51 2.72  54 2.73  17 3.48  16 3.48  15 3.49  12 3.50  10 3.52
                            14 3.52  36 3.64
  19  0.112  0.222  0.434-  38 2.69  41 2.72  37 2.74  21 3.47  20 3.48  22 3.49  25 3.49  23 3.51
                            27 3.52   1 3.64
  20  0.111  0.555  0.434-  39 2.69  42 2.73  38 2.73  19 3.48  21 3.48  26 3.49  23 3.49  25 3.51
                            24 3.52   2 3.64
  21  0.112  0.889  0.434-  37 2.70  40 2.73  39 2.74  19 3.47  20 3.48  24 3.48  27 3.50  22 3.51
                            26 3.53   3 3.65
  22  0.444  0.222  0.434-  41 2.69  44 2.73  40 2.74  24 3.47  23 3.47  19 3.49  25 3.50  21 3.51
                            26 3.52   4 3.65
  23  0.444  0.555  0.434-  42 2.69  41 2.73  45 2.73  22 3.47  24 3.48  20 3.49  26 3.49  19 3.51
                            27 3.53   5 3.64
  24  0.444  0.889  0.434-  40 2.69  42 2.73  43 2.73  22 3.47  23 3.48  21 3.48  27 3.50  20 3.52
                            25 3.52   6 3.65
  25  0.778  0.222  0.434-  44 2.70  38 2.73  43 2.74  27 3.47  26 3.48  19 3.49  22 3.50  20 3.51
                            24 3.52   7 3.65
  26  0.778  0.556  0.433-  45 2.69  44 2.73  39 2.73  27 3.48  25 3.48  20 3.49  23 3.49  22 3.52
                            21 3.53   8 3.64
  27  0.778  0.889  0.434-  43 2.69  37 2.73  45 2.74  25 3.47  26 3.48  24 3.50  21 3.50  19 3.52
                            23 3.53   9 3.64
  28  0.112  0.167  0.687-  52 2.69  46 2.72  54 2.73  29 3.47  30 3.48  31 3.49  34 3.49  32 3.51
                            36 3.53  10 3.64
  29  0.111  0.500  0.687-  53 2.69  47 2.72  52 2.73  28 3.47  30 3.48  32 3.48  35 3.50  34 3.51
                            33 3.52  11 3.64
  30  0.111  0.833  0.687-  54 2.69  53 2.73  48 2.74  28 3.48  29 3.48  33 3.49  36 3.49  31 3.52
                            35 3.52  12 3.65
  31  0.444  0.167  0.687-  46 2.68  49 2.73  48 2.73  33 3.47  32 3.48  28 3.49  34 3.50  30 3.52
                            35 3.52  13 3.63
  32  0.444  0.500  0.687-  47 2.70  50 2.73  46 2.74  33 3.48  31 3.48  29 3.48  35 3.50  28 3.51
                            36 3.52  14 3.65
  33  0.444  0.834  0.687-  48 2.69  51 2.73  47 2.73  31 3.47  32 3.48  30 3.49  36 3.50  29 3.52
                            34 3.53  15 3.64
  34  0.778  0.167  0.687-  49 2.70  52 2.73  51 2.74  35 3.47  36 3.48  28 3.49  31 3.50  29 3.51
                            33 3.53  16 3.64
  35  0.778  0.500  0.687-  50 2.69  53 2.73  49 2.74  34 3.47  36 3.48  32 3.50  29 3.50  31 3.52
                            30 3.52  17 3.65
  36  0.778  0.833  0.687-  51 2.69  54 2.73  50 2.74  35 3.48  34 3.48  30 3.49  33 3.50  32 3.52
                            28 3.53  18 3.64
  37  1.000  1.000  0.373-  21 2.70   1 2.71   3 2.72   9 2.72  27 2.73  19 2.74  38 3.47  39 3.48
                            43 3.49
  38  1.000  0.333  0.373-  19 2.69   2 2.71   1 2.72   7 2.73  25 2.73  20 2.73  37 3.47  39 3.48

  39  0.000  0.667  0.373-  20 2.69   3 2.70   2 2.72   8 2.72  26 2.73  21 2.74  37 3.48  38 3.48
                            42 3.49
  40  0.333  1.000  0.373-  24 2.69   4 2.71   3 2.72   6 2.73  21 2.73  22 2.74  42 3.47  41 3.48

  41  0.333  0.333  0.373-  22 2.69   5 2.70  19 2.72   4 2.73   1 2.73  23 2.73  42 3.48  40 3.48
                            44 3.49
  42  0.333  0.667  0.373-  23 2.69   6 2.71   2 2.72  20 2.73   5 2.73  24 2.73  40 3.47  41 3.48
                            39 3.49
  43  0.667  0.000  0.373-  27 2.69   7 2.70   9 2.72   6 2.73  24 2.73  25 2.74  45 3.48  44 3.48
                            37 3.49
  44  0.666  0.333  0.373-  25 2.70   8 2.71   4 2.73  22 2.73   7 2.73  26 2.73  45 3.47  43 3.48
                            41 3.49
  45  0.667  0.667  0.373-  26 2.69   9 2.70   8 2.72   5 2.72  23 2.73  27 2.74  44 3.47  43 3.48

  46  0.334  0.277  0.627-  31 2.68  14 2.70  13 2.72  28 2.72  10 2.73  32 2.74  48 3.47  47 3.49
                            49 3.49
  47  0.333  0.612  0.627-  32 2.70  15 2.71  29 2.72  11 2.73  33 2.73  14 2.73  48 3.47  46 3.49
                            53 3.49  50 3.49
  48  0.334  0.945  0.627-  33 2.69  13 2.70  15 2.72  12 2.72  31 2.73  30 2.74  46 3.47  47 3.47

  49  0.667  0.278  0.627-  34 2.70  17 2.70  13 2.72  16 2.72  31 2.73  35 2.74  50 3.47  51 3.48
                            46 3.49
  50  0.666  0.610  0.627-  35 2.69  18 2.71  14 2.72  32 2.73  17 2.73  36 2.74  49 3.47  51 3.48
                            47 3.49
  51  0.667  0.945  0.627-  36 2.69  16 2.70  18 2.72  33 2.73  15 2.73  34 2.74  49 3.48  50 3.48

  52  1.000  0.278  0.627-  28 2.69  11 2.71  34 2.73  16 2.73  29 2.73  10 2.73  54 3.48  53 3.48

  53  0.001  0.612  0.627-  29 2.69  12 2.71  30 2.73  11 2.73  35 2.73  17 2.74  54 3.47  52 3.48
                            47 3.49
  54  0.000  0.945  0.627-  30 2.69  10 2.71  18 2.73  36 2.73  28 2.73  12 2.73  53 3.47  52 3.48

 

IMPORTANT INFORMATION: All symmetrisations will be switched off!
NOSYMM: (Re-)initialisation of all symmetry stuff for point group C_1.


----------------------------------------------------------------------------------------

                                     Primitive cell                                     

  volume of cell :    2869.5265

  direct lattice vectors                    reciprocal lattice vectors
    10.477881317  0.000000000  0.000000000     0.095439142  0.053597750  0.000143261
    -5.105601357  9.091318446  0.000000000     0.000000000  0.109995047 -0.001215051
    -0.232092840  0.332760008 30.123809874     0.000000000  0.000000000  0.033196332

  length of vectors
    10.477881317 10.426851697 30.126541747     0.109459440  0.110001758  0.033196332

  position of ions in fractional coordinates (direct lattice)
     0.110864479  0.222511845  0.312598100
     0.111501098  0.556042607  0.312874981
     0.111299026  0.889308943  0.312740835
     0.444749028  0.222880251  0.312526285
     0.444550594  0.555478655  0.312778756
     0.444273211  0.888910245  0.312541534
     0.777587997  0.221719716  0.312681373
     0.777790757  0.556338745  0.312810459
     0.777149454  0.888485865  0.312789632
     0.111191035  0.166465301  0.566297488
     0.111102744  0.499993310  0.566353940
     0.111705020  0.833611099  0.566143985
     0.445080771  0.167445744  0.566477300
     0.444661622  0.499253579  0.566325612
     0.444712960  0.833939085  0.566095034
     0.777501147  0.166650046  0.566423625
     0.777379882  0.499726544  0.566258850
     0.777611002  0.833189122  0.566410869
     0.111542566  0.222375986  0.433532955
     0.110656608  0.555212720  0.433590934
     0.111711767  0.889435730  0.433846058
     0.444139995  0.222038936  0.433677983
     0.443883274  0.555081540  0.433718284
     0.444000227  0.888805932  0.433615415
     0.778096851  0.222065582  0.433748639
     0.777658785  0.555802515  0.433486067
     0.777960928  0.889473574  0.433669556
     0.111715388  0.167142516  0.687097907
     0.111493062  0.499549916  0.687084526
     0.111125722  0.833420049  0.687279406
     0.444352438  0.166604344  0.687134244
     0.444204212  0.500096849  0.687446930
     0.444205216  0.833502308  0.687002947
     0.778403370  0.167204806  0.687318762
     0.777746798  0.499968497  0.687267830
     0.777804192  0.833334707  0.687302979
     0.999703145  0.999834794  0.373025352
     0.999654692  0.332892250  0.373186957
     0.000384056  0.666870664  0.373049011
     0.333267563  0.999929141  0.373155176
     0.333332420  0.333376672  0.373156976
     0.333089487  0.666584060  0.373347160
     0.666959148  0.000161248  0.373180677
     0.666390872  0.333322855  0.373270389
     0.666605125  0.666633703  0.373188744
     0.333832767  0.277485226  0.626886186
     0.333414618  0.611537872  0.626747406
     0.333730619  0.944858450  0.626609126
     0.666755858  0.278031234  0.626714970
     0.665921563  0.610317930  0.626904802
     0.666919002  0.944596693  0.626822872
     0.999981841  0.277797912  0.626823553
     0.000746358  0.611920660  0.627006815
     0.000277064  0.944643290  0.626897167

  ion indices of the primitive-cell ions
   primitive index   ion index
                 1           1
                 2           2
                 3           3
                 4           4
                 5           5
                 6           6
                 7           7
                 8           8
                 9           9
                10          10
                11          11
                12          12
                13          13
                14          14
                15          15
                16          16
                17          17
                18          18
                19          19
                20          20
                21          21
                22          22
                23          23
                24          24
                25          25
                26          26
                27          27
                28          28
                29          29
                30          30
                31          31
                32          32
                33          33
                34          34
                35          35
                36          36
                37          37
                38          38
                39          39
                40          40
                41          41
                42          42
                43          43
                44          44
                45          45
                46          46
                47          47
                48          48
                49          49
                50          50
                51          51
                52          52
                53          53
                54          54

----------------------------------------------------------------------------------------

 
 

Automatic generation of k-mesh.
 generate k-points for:    3    3    1
Space group operators:
 irot       det(A)        alpha          n_x          n_y          n_z        tau_x        tau_y        tau_z
    1     1.000000     0.000001     1.000000     0.000000     0.000000     0.000000     0.000000     0.000000
 
 Subroutine IBZKPT returns following result:
 ===========================================
 
 Found      5 irreducible k-points:
 
 Following reciprocal coordinates:
            Coordinates               Weight
  0.000000  0.000000  0.000000      1.000000
  0.333333 -0.000000 -0.000000      2.000000
  0.000000  0.333333  0.000000      2.000000
  0.333333  0.333333 -0.000000      2.000000
 -0.333333  0.333333  0.000000      2.000000
 
 Following cartesian coordinates:
            Coordinates               Weight
  0.000000  0.000000  0.000000      1.000000
  0.031813  0.017866  0.000048      2.000000
  0.000000  0.036665 -0.000405      2.000000
  0.031813  0.054531 -0.000357      2.000000
 -0.031813  0.018799 -0.000453      2.000000
 


--------------------------------------------------------------------------------------------------------




 Dimension of arrays:
   k-points           NKPTS =      5   k-points in BZ     NKDIM =      5   number of bands    NBANDS=    200
   number of dos      NEDOS =    301   number of ions     NIONS =     54
   non local maximal  LDIM  =      6   non local SUM 2l+1 LMDIM =     18
   total plane-waves  NPLWV = ******
   max r-space proj   IRMAX =      1   max aug-charges    IRDMAX=  34563
   dimension x,y,z NGX =    80 NGY =   80 NGZ =  240
   dimension x,y,z NGXF=   160 NGYF=  160 NGZF=  480
   support grid    NGXF=   160 NGYF=  160 NGZF=  480
   ions per type =              36  18
   NGX,Y,Z   is equivalent  to a cutoff of  12.69, 12.76, 13.24 a.u.
   NGXF,Y,Z  is equivalent  to a cutoff of  25.39, 25.51, 26.49 a.u.

 SYSTEM =  dpgen_md                                
 POSCAR =  Te Mo                                   

 Startparameter for this run:
   NWRITE =      2    write-flag & timer
   PREC   = a         normal or accurate (medium, high low for compatibility)
   ISTART =      0    job   : 0-new  1-cont  2-samecut
   ICHARG =      2    charge: 1-file 2-atom 10-const
   ISPIN  =      1    spin polarized calculation?
   LNONCOLLINEAR =      F non collinear calculations
   LSORBIT =      F    spin-orbit coupling
   INIWAV =      1    electr: 0-lowe 1-rand  2-diag
   LASPH  =      F    aspherical Exc in radial PAW
   METAGGA=      F    non-selfconsistent MetaGGA calc.

 Electronic Relaxation 1
   ENCUT  =  550.0 eV  40.42 Ry    6.36 a.u.  20.04 19.94 57.61*2*pi/ulx,y,z
   ENINI  =  550.0     initial cutoff
   ENAUG  =  368.8 eV  augmentation charge cutoff
   NELM   =    100;   NELMIN=  6; NELMDL= -5     # of ELM steps 
   EDIFF  = 0.1E-05   stopping-criterion for ELM
   LREAL  =      F    real-space projection
   NLSPLINE    = F    spline interpolate recip. space projectors
   LCOMPAT=      F    compatible to vasp.4.4
   GGA_COMPAT  = T    GGA compatible to vasp.4.4-vasp.4.6
   LMAXPAW     = -100 max onsite density
   LMAXMIX     =    2 max onsite mixed and CHGCAR
   VOSKOWN=      0    Vosko Wilk Nusair interpolation
   ROPT   =    0.00000   0.00000
 Ionic relaxation
   EDIFFG = 0.1E-04   stopping-criterion for IOM
   NSW    =     10    number of steps for IOM
   NBLOCK =      1;   KBLOCK =      1    inner block; outer block 
   IBRION =      0    ionic relax: 0-MD 1-quasi-New 2-CG
   NFREE  =      0    steps in history (QN), initial steepest desc. (CG)
   ISIF   =      2    stress and relaxation
   IWAVPR =     11    prediction:  0-non 1-charg 2-wave 3-comb
   ISYM   =      0    0-nonsym 1-usesym 2-fastsym
   LCORR  =      T    Harris-Foulkes like correction to forces

   POTIM  = 2.0000    time-step for ionic-motion
   TEIN   =  100.0    initial temperature
   TEBEG  =  100.0;   TEEND  = 100.0 temperature during run
   SMASS  =   0.04    Nose mass-parameter (am)
   estimated Nose-frequenzy (Omega)   =  0.79E+14 period in steps = 0.40E+02 mass=   0.327E-28a.u.
   SCALEE = 1.0000    scale energy and forces
   NPACO  =    256;   APACO  = 16.0  distance and # of slots for P.C.
   PSTRESS=    0.0 pullay stress

  Mass of Ions in am
   POMASS = 127.60 95.94
  Ionic Valenz
   ZVAL   =   6.00  6.00
  Atomic Wigner-Seitz radii
   RWIGS  =  -1.00 -1.00
  virtual crystal weights 
   VCA    =   1.00  1.00
   NELECT =     324.0000    total number of electrons
   NUPDOWN=      -1.0000    fix difference up-down

 DOS related values:
   EMIN   =  10.00;   EMAX   =-10.00  energy-range for DOS
   EFERMI =   0.00
   ISMEAR =     0;   SIGMA  =   0.10  broadening in eV -4-tet -1-fermi 0-gaus

 Electronic relaxation 2 (details)
   IALGO  =     68    algorithm
   LDIAG  =      T    sub-space diagonalisation (order eigenvalues)
   LSUBROT=      F    optimize rotation matrix (better conditioning)
   TURBO    =      0    0=normal 1=particle mesh
   IRESTART =      0    0=no restart 2=restart with 2 vectors
   NREBOOT  =      0    no. of reboots
   NMIN     =      0    reboot dimension
   EREF     =   0.00    reference energy to select bands
   IMIX   =      4    mixing-type and parameters
     AMIX     =   0.40;   BMIX     =  1.00
     AMIX_MAG =   1.60;   BMIX_MAG =  1.00
     AMIN     =   0.10
     WC   =   100.;   INIMIX=   1;  MIXPRE=   1;  MAXMIX= -45

 Intra band minimization:
   WEIMIN = 0.0010     energy-eigenvalue tresh-hold
   EBREAK =  0.13E-08  absolut break condition
   DEPER  =   0.30     relativ break condition  

   TIME   =   0.40     timestep for ELM

  volume/ion in A,a.u.               =      53.14       358.60
  Fermi-wavevector in a.u.,A,eV,Ry     =   0.791261  1.495266  8.518525  0.626094
  Thomas-Fermi vector in A             =   1.896766
 
 Write flags
   LWAVE        =      F    write WAVECAR
   LDOWNSAMPLE  =      F    k-point downsampling of WAVECAR
   LCHARG       =      F    write CHGCAR
   LVTOT        =      F    write LOCPOT, total local potential
   LVHAR        =      F    write LOCPOT, Hartree potential only
   LELF         =      F    write electronic localiz. function (ELF)
   LORBIT       =      0    0 simple, 1 ext, 2 COOP (PROOUT), +10 PAW based schemes


 Dipole corrections
   LMONO  =      F    monopole corrections only (constant potential shift)
   LDIPOL =      F    correct potential (dipole corrections)
   IDIPOL =      0    1-x, 2-y, 3-z, 4-all directions 
   EPSILON=  1.0000000 bulk dielectric constant

 Exchange correlation treatment:
   GGA     =    --    GGA type
   LEXCH   =     8    internal setting for exchange type
   VOSKOWN=      0    Vosko Wilk Nusair interpolation
   LHFCALC =     F    Hartree Fock is set to
   LHFONE  =     F    Hartree Fock one center treatment
   AEXX    =    0.0000 exact exchange contribution

 Linear response parameters
   LEPSILON=     F    determine dielectric tensor
   LRPA    =     F    only Hartree local field effects (RPA)
   LNABLA  =     F    use nabla operator in PAW spheres
   LVEL    =     F    velocity operator in full k-point grid
   LINTERFAST=   F  fast interpolation
   KINTER  =     0    interpolate to denser k-point grid
   CSHIFT  =0.1000    complex shift for real part using Kramers Kronig
   OMEGAMAX=  -1.0    maximum frequency
   DEG_THRESHOLD= 0.2000000E-02 threshold for treating states as degnerate
   RTIME   =   -0.100 relaxation time in fs
  (WPLASMAI=    0.000 imaginary part of plasma frequency in eV, 0.658/RTIME)
   DFIELD  = 0.0000000 0.0000000 0.0000000 field for delta impulse in time
 
 Orbital magnetization related:
   ORBITALMAG=     F  switch on orbital magnetization
   LCHIMAG   =     F  perturbation theory with respect to B field
   DQ        =  0.001000  dq finite difference perturbation B field
   LLRAUG    =     F  two centre corrections for induced B field



--------------------------------------------------------------------------------------------------------


 molecular dynamics for ions
   using nose mass (canonical ensemble)
 charge density and potential will be updated during run
 non-spin polarized calculation
 RMM-DIIS sequential band-by-band and
  variant of blocked Davidson during initial phase
 perform sub-space diagonalisation
    before iterative eigenvector-optimisation
 modified Broyden-mixing scheme, WC =      100.0
 initial mixing is a Kerker type mixing with AMIX =  0.4000 and BMIX =      1.0000
 Hartree-type preconditioning will be used
 using additional bands           38
 reciprocal scheme for non local part
 use partial core corrections
 calculate Harris-corrections to forces 
   (improved forces if not selfconsistent)
 use gradient corrections 
 use of overlap-Matrix (Vanderbilt PP)
 Gauss-broadening in eV      SIGMA  =   0.10


--------------------------------------------------------------------------------------------------------


  energy-cutoff  :      550.00
  volume of cell :     2869.53
      direct lattice vectors                 reciprocal lattice vectors
    10.477881317  0.000000000  0.000000000     0.095439142  0.053597750  0.000143261
    -5.105601357  9.091318446  0.000000000     0.000000000  0.109995047 -0.001215051
    -0.232092840  0.332760008 30.123809874     0.000000000  0.000000000  0.033196332

  length of vectors
    10.477881317 10.426851697 30.126541747     0.109459440  0.110001758  0.033196332


 
 k-points in units of 2pi/SCALE and weight: read from INCAR                         
   0.00000000  0.00000000  0.00000000       0.111
   0.03181305  0.01786592  0.00004775       0.222
   0.00000000  0.03666502 -0.00040502       0.222
   0.03181305  0.05453093 -0.00035726       0.222
  -0.03181305  0.01879910 -0.00045277       0.222
 
 k-points in reciprocal lattice and weights: read from INCAR                         
   0.00000000  0.00000000  0.00000000       0.111
   0.33333333 -0.00000000 -0.00000000       0.222
   0.00000000  0.33333333  0.00000000       0.222
   0.33333333  0.33333333 -0.00000000       0.222
  -0.33333333  0.33333333  0.00000000       0.222
 
 position of ions in fractional coordinates (direct lattice) 
   0.11086448  0.22251185  0.31259810
   0.11150110  0.55604261  0.31287498
   0.11129903  0.88930894  0.31274083
   0.44474903  0.22288025  0.31252629
   0.44455059  0.55547865  0.31277876
   0.44427321  0.88891025  0.31254153
   0.77758800  0.22171972  0.31268137
   0.77779076  0.55633874  0.31281046
   0.77714945  0.88848586  0.31278963
   0.11119103  0.16646530  0.56629749
   0.11110274  0.49999331  0.56635394
   0.11170502  0.83361110  0.56614398
   0.44508077  0.16744574  0.56647730
   0.44466162  0.49925358  0.56632561
   0.44471296  0.83393909  0.56609503
   0.77750115  0.16665005  0.56642363
   0.77737988  0.49972654  0.56625885
   0.77761100  0.83318912  0.56641087
   0.11154257  0.22237599  0.43353295
   0.11065661  0.55521272  0.43359093
   0.11171177  0.88943573  0.43384606
   0.44414000  0.22203894  0.43367798
   0.44388327  0.55508154  0.43371828
   0.44400023  0.88880593  0.43361541
   0.77809685  0.22206558  0.43374864
   0.77765879  0.55580251  0.43348607
   0.77796093  0.88947357  0.43366956
   0.11171539  0.16714252  0.68709791
   0.11149306  0.49954992  0.68708453
   0.11112572  0.83342005  0.68727941
   0.44435244  0.16660434  0.68713424
   0.44420421  0.50009685  0.68744693
   0.44420522  0.83350231  0.68700295
   0.77840337  0.16720481  0.68731876
   0.77774680  0.49996850  0.68726783
   0.77780419  0.83333471  0.68730298
   0.99970315  0.99983479  0.37302535
   0.99965469  0.33289225  0.37318696
   0.00038406  0.66687066  0.37304901
   0.33326756  0.99992914  0.37315518
   0.33333242  0.33337667  0.37315698
   0.33308949  0.66658406  0.37334716
   0.66695915  0.00016125  0.37318068
   0.66639087  0.33332286  0.37327039
   0.66660513  0.66663370  0.37318874
   0.33383277  0.27748523  0.62688619
   0.33341462  0.61153787  0.62674741
   0.33373062  0.94485845  0.62660913
   0.66675586  0.27803123  0.62671497
   0.66592156  0.61031793  0.62690480
   0.66691900  0.94459669  0.62682287
   0.99998184  0.27779791  0.62682355
   0.00074636  0.61192066  0.62700681
   0.00027706  0.94464329  0.62689717
 
 position of ions in cartesian coordinates  (Angst):
  -0.04698371  2.12694619  9.41664572
  -1.74325266  5.15927269  9.42498645
  -3.44686387  8.18905844  9.42094545
   3.44955470  2.13027158  9.41448239
   1.74930208  5.15411360  9.42208778
   0.04408197  8.18536743  9.41494173
   6.94289116  2.11977240  9.41915424
   5.23655432  5.16194350  9.42304280
   3.53402888  8.18159181  9.42241540
   0.18370741  1.70183022 17.05903785
  -1.52009185  4.73405835 17.06073841
  -3.21705198  7.76701404 17.05441376
   3.67711696  1.71080357 17.06445448
   1.97868183  4.72732379 17.05988506
   0.27050248  7.76997958 17.05293917
   7.16425317  1.70355177 17.06283760
   5.46246499  4.73160145 17.05787393
   3.76232437  7.76326652 17.06245332
  -0.06725326  2.16595334 13.05966430
  -1.77588136  5.19189737 13.06141087
  -3.47129420  8.23051008 13.06909616
   3.41935031  2.16293737 13.06403312
   1.71626829  5.19074714 13.06524714
   0.01365388  8.22470763 13.06214831
   6.91835816  2.16320312 13.06616152
   5.20990137  5.19722448 13.05825186
   3.50943319  8.23079540 13.06377924
   0.15770702  1.74818454 20.69800670
  -1.54175905  4.77020162 20.69760363
  -3.25026103  7.80558616 20.70347415
   3.64577781  1.74330394 20.69910131
   1.94147235  4.77529455 20.70852060
   0.23935056  7.80624201 20.69514616
   7.14281528  1.74882433 20.70465972
   5.43698886  4.77406807 20.70312543
   3.73554710  7.80481814 20.70418427
   5.28343651  9.21394443 11.23694478
   8.68803408  3.15061115 11.24181293
  -3.48733368  6.18686936 11.23765748
  -1.69990825  9.21484537 11.24085558
   1.70392209  3.15500520 11.24090979
   0.00010843  6.18436297 11.24663887
   6.90088297  0.12564556 11.24162376
   5.19391746  3.15455368 11.24432624
   3.49442902  6.18476157 11.24186677
   1.93563537  2.73130920 18.88420027
   0.22574663  5.76824200 18.88001971
  -1.47271226  8.79851951 18.87585418
   5.42121605  2.73621617 18.87904260
   3.71590694  5.75720350 18.88476106
   2.01968289  8.79621093 18.88229301
   8.91388440  2.73413110 18.88231355
  -3.26192649  5.77180838 18.88783407
  -4.96556736  8.79665927 18.88453108
 


--------------------------------------------------------------------------------------------------------


 k-point   1 :   0.0000 0.0000 0.0000  plane waves:   83983
 k-point   2 :   0.3333-0.0000-0.0000  plane waves:   84070
 k-point   3 :   0.0000 0.3333 0.0000  plane waves:   84007
 k-point   4 :   0.3333 0.3333-0.0000  plane waves:   84088
 k-point   5 :  -0.3333 0.3333 0.0000  plane waves:   84080

 maximum and minimum number of plane-waves per node :     84088    83983

 maximum number of plane-waves:     84088
 maximum index in each direction: 
   IXMAX=   20   IYMAX=   19   IZMAX=   57
   IXMIN=  -20   IYMIN=  -20   IZMIN=  -57


 serial   3D FFT for wavefunctions
 parallel 3D FFT for charge:
    minimum data exchange during FFTs selected (reduces bandwidth)


 total amount of memory used by VASP MPI-rank0   353948. kBytes
=======================================================================

   base      :      30000. kBytes
   nonl-proj :     193812. kBytes
   fftplans  :      16533. kBytes
   grid      :      78796. kBytes
   one-center:        839. kBytes
   wavefun   :      33968. kBytes
 
     INWAV:  cpu time    0.0000: real time    0.0000
 Broyden mixing: mesh for mixing (old mesh)
   NGX = 41   NGY = 39   NGZ =115
  (NGX  =160   NGY  =160   NGZ  =480)
  gives a total of 183885 points

 initial charge density was supplied:
 charge density of overlapping atoms calculated
 number of electron     324.0000000 magnetization 
 keeping initial charge density in first step


--------------------------------------------------------------------------------------------------------


 Maximum index for augmentation-charges         1164 (set IRDMAX)


--------------------------------------------------------------------------------------------------------


 First call to EWALD:  gamma=   0.125
 Maximum number of real-space cells 4x 4x 2
 Maximum number of reciprocal cells 2x 2x 5

    FEWALD:  cpu time    0.0023: real time    0.0023


--------------------------------------- Iteration      1(   1)  ---------------------------------------


    POTLOK:  cpu time    0.2742: real time    0.2796
    SETDIJ:  cpu time    0.0120: real time    0.0121
     EDDAV:  cpu time   48.5058: real time   48.6366
       DOS:  cpu time    0.0052: real time    0.0052
    --------------------------------------------
      LOOP:  cpu time   48.7971: real time   48.9336

 eigenvalue-minimisations  :  2000
 total energy-change (2. order) : 0.2110429E+04  (-0.1156067E+05)
 number of electron     324.0000000 magnetization 
 augmentation part      324.0000000 magnetization 

 Free energy of the ion-electron system (eV)
  ---------------------------------------------------
  alpha Z        PSCENC =       250.09916211
  Ewald energy   TEWEN  =     57921.66294464
  -Hartree energ DENC   =    -69621.29320170
  -exchange      EXHF   =         0.00000000
  -V(xc)+E(xc)   XCENC  =     -2099.78301408
  PAW double counting   =      7476.04436201    -4809.59211051
  entropy T*S    EENTRO =        -0.13449839
  eigenvalues    EBANDS =      1040.34276749
  atomic energy  EATOM  =     11953.08265402
  Solvation  Ediel_sol  =         0.00000000
  ---------------------------------------------------
  free energy    TOTEN  =      2110.42906560 eV

  energy without entropy =     2110.56356398  energy(sigma->0) =     2110.49631479


--------------------------------------------------------------------------------------------------------




--------------------------------------- Iteration      1(   2)  ---------------------------------------


     EDDAV:  cpu time   67.1382: real time   67.3307
       DOS:  cpu time    0.0006: real time    0.0006
    --------------------------------------------
      LOOP:  cpu time   67.1388: real time   67.3313

 eigenvalue-minimisations  :  3000
 total energy-change (2. order) :-0.2208283E+04  (-0.2136106E+04)
 number of electron     324.0000000 magnetization 
 augmentation part      324.0000000 magnetization 

 Free energy of the ion-electron system (eV)
  ---------------------------------------------------
  alpha Z        PSCENC =       250.09916211
  Ewald energy   TEWEN  =     57921.66294464
  -Hartree energ DENC   =    -69621.29320170
  -exchange      EXHF   =         0.00000000
  -V(xc)+E(xc)   XCENC  =     -2099.78301408
  PAW double counting   =      7476.04436201    -4809.59211051
  entropy T*S    EENTRO =        -0.00299200
  eigenvalues    EBANDS =     -1168.07196677
  atomic energy  EATOM  =     11953.08265402
  Solvation  Ediel_sol  =         0.00000000
  ---------------------------------------------------
  free energy    TOTEN  =       -97.85416228 eV

  energy without entropy =      -97.85117028  energy(sigma->0) =      -97.85266628


--------------------------------------------------------------------------------------------------------




--------------------------------------- Iteration      1(   3)  ---------------------------------------


     EDDAV:  cpu time   58.2575: real time   58.4322
       DOS:  cpu time    0.0004: real time    0.0004
    --------------------------------------------
      LOOP:  cpu time   58.2579: real time   58.4327

 eigenvalue-minimisations  :  2520
 total energy-change (2. order) :-0.2271342E+03  (-0.2239133E+03)
 number of electron     324.0000000 magnetization 
 augmentation part      324.0000000 magnetization 

 Free energy of the ion-electron system (eV)
  ---------------------------------------------------
  alpha Z        PSCENC =       250.09916211
  Ewald energy   TEWEN  =     57921.66294464
  -Hartree energ DENC   =    -69621.29320170
  -exchange      EXHF   =         0.00000000
  -V(xc)+E(xc)   XCENC  =     -2099.78301408
  PAW double counting   =      7476.04436201    -4809.59211051
  entropy T*S    EENTRO =        -0.00000000
  eigenvalues    EBANDS =     -1395.20913219
  atomic energy  EATOM  =     11953.08265402
  Solvation  Ediel_sol  =         0.00000000
  ---------------------------------------------------
  free energy    TOTEN  =      -324.98833570 eV

  energy without entropy =     -324.98833570  energy(sigma->0) =     -324.98833570


--------------------------------------------------------------------------------------------------------




--------------------------------------- Iteration      1(   4)  ---------------------------------------


     EDDAV:  cpu time   69.2987: real time   69.5125
       DOS:  cpu time    0.0004: real time    0.0004
    --------------------------------------------
      LOOP:  cpu time   69.2991: real time   69.5128

 eigenvalue-minimisations  :  3120
 total energy-change (2. order) :-0.1110488E+02  (-0.1103079E+02)
 number of electron     324.0000000 magnetization 
 augmentation part      324.0000000 magnetization 

 Free energy of the ion-electron system (eV)
  ---------------------------------------------------
  alpha Z        PSCENC =       250.09916211
  Ewald energy   TEWEN  =     57921.66294464
  -Hartree energ DENC   =    -69621.29320170
  -exchange      EXHF   =         0.00000000
  -V(xc)+E(xc)   XCENC  =     -2099.78301408
  PAW double counting   =      7476.04436201    -4809.59211051
  entropy T*S    EENTRO =        -0.00000000
  eigenvalues    EBANDS =     -1406.31400830
  atomic energy  EATOM  =     11953.08265402
  Solvation  Ediel_sol  =         0.00000000
  ---------------------------------------------------
  free energy    TOTEN  =      -336.09321181 eV

  energy without entropy =     -336.09321181  energy(sigma->0) =     -336.09321181


--------------------------------------------------------------------------------------------------------




--------------------------------------- Iteration      1(   5)  ---------------------------------------


     EDDAV:  cpu time   66.4568: real time   66.6444
       DOS:  cpu time    0.0004: real time    0.0004
    CHARGE:  cpu time    1.1270: real time    1.1286
    MIXING:  cpu time    0.0072: real time    0.0073
    --------------------------------------------
      LOOP:  cpu time   67.5914: real time   67.7806

 eigenvalue-minimisations  :  2960
 total energy-change (2. order) :-0.3024249E+00  (-0.3018510E+00)
 number of electron     324.0000000 magnetization 
 augmentation part      -25.3714689 magnetization 

 Broyden mixing:
  rms(total) = 0.18829E+01    rms(broyden)= 0.18829E+01
  rms(prec ) = 0.19912E+01
  weight for this iteration     100.00

 Free energy of the ion-electron system (eV)
  ---------------------------------------------------
  alpha Z        PSCENC =       250.09916211
  Ewald energy   TEWEN  =     57921.66294464
  -Hartree energ DENC   =    -69621.29320170
  -exchange      EXHF   =         0.00000000
  -V(xc)+E(xc)   XCENC  =     -2099.78301408
  PAW double counting   =      7476.04436201    -4809.59211051
  entropy T*S    EENTRO =        -0.00000000
  eigenvalues    EBANDS =     -1406.61643321
  atomic energy  EATOM  =     11953.08265402
  Solvation  Ediel_sol  =         0.00000000
  ---------------------------------------------------
  free energy    TOTEN  =      -336.39563672 eV

  energy without entropy =     -336.39563672  energy(sigma->0) =     -336.39563672


--------------------------------------------------------------------------------------------------------




--------------------------------------- Iteration      1(   6)  ---------------------------------------


    POTLOK:  cpu time    0.2382: real time    0.2424
    SETDIJ:  cpu time    0.0106: real time    0.0106
    EDDIAG:  cpu time    2.4575: real time    2.4660
  RMM-DIIS:  cpu time   40.8150: real time   40.9597
    ORTHCH:  cpu time    0.2197: real time    0.2199
       DOS:  cpu time    0.0043: real time    0.0043
    CHARGE:  cpu time    1.1015: real time    1.1108
    MIXING:  cpu time    0.0107: real time    0.0108
    --------------------------------------------
      LOOP:  cpu time   44.8575: real time   45.0246

 eigenvalue-minimisations  :  2130
 total energy-change (2. order) : 0.9037592E+01  (-0.4851932E+01)
 number of electron     324.0000000 magnetization 
 augmentation part      -20.1711249 magnetization 

 Broyden mixing:
  rms(total) = 0.69922E+00    rms(broyden)= 0.69921E+00
  rms(prec ) = 0.80819E+00
  weight for this iteration     100.00

 eigenvalues of (default mixing * dielectric matrix)
  average eigenvalue GAMMA=   1.0876
  1.0876

 Free energy of the ion-electron system (eV)
  ---------------------------------------------------
  alpha Z        PSCENC =       250.09916211
  Ewald energy   TEWEN  =     57921.66294464
  -Hartree energ DENC   =    -69606.36342685
  -exchange      EXHF   =         0.00000000
  -V(xc)+E(xc)   XCENC  =     -2093.31685196
  PAW double counting   =      7702.25429029    -5047.36206303
  entropy T*S    EENTRO =        -0.00000000
  eigenvalues    EBANDS =     -1407.41475428
  atomic energy  EATOM  =     11953.08265402
  Solvation  Ediel_sol  =         0.00000000
  ---------------------------------------------------
  free energy    TOTEN  =      -327.35804506 eV

  energy without entropy =     -327.35804506  energy(sigma->0) =     -327.35804506


--------------------------------------------------------------------------------------------------------




--------------------------------------- Iteration      1(   7)  ---------------------------------------


    POTLOK:  cpu time    0.2428: real time    0.2432
    SETDIJ:  cpu time    0.0149: real time    0.0149
    EDDIAG:  cpu time    2.4811: real time    2.4839
  RMM-DIIS:  cpu time   39.0079: real time   39.1090
    ORTHCH:  cpu time    0.2352: real time    0.2353
       DOS:  cpu time    0.0004: real time    0.0004
    CHARGE:  cpu time    1.1047: real time    1.1100
    MIXING:  cpu time    0.0068: real time    0.0068
    --------------------------------------------
      LOOP:  cpu time   43.0939: real time   43.2036

 eigenvalue-minimisations  :  2023
 total energy-change (2. order) : 0.3137416E+01  (-0.1041590E+01)
 number of electron     324.0000000 magnetization 
 augmentation part      -21.8422285 magnetization 

 Broyden mixing:
  rms(total) = 0.46428E+00    rms(broyden)= 0.46427E+00
  rms(prec ) = 0.49221E+00
  weight for this iteration     100.00

 eigenvalues of (default mixing * dielectric matrix)
  average eigenvalue GAMMA=   1.4696
  0.7397  2.1995

 Free energy of the ion-electron system (eV)
  ---------------------------------------------------
  alpha Z        PSCENC =       250.09916211
  Ewald energy   TEWEN  =     57921.66294464
  -Hartree energ DENC   =    -69692.47650193
  -exchange      EXHF   =         0.00000000
  -V(xc)+E(xc)   XCENC  =     -2091.77021811
  PAW double counting   =      8004.08866946    -5354.62519500
  entropy T*S    EENTRO =        -0.00000000
  eigenvalues    EBANDS =     -1314.28214415
  atomic energy  EATOM  =     11953.08265402
  Solvation  Ediel_sol  =         0.00000000
  ---------------------------------------------------
  free energy    TOTEN  =      -324.22062895 eV

  energy without entropy =     -324.22062895  energy(sigma->0) =     -324.22062895


--------------------------------------------------------------------------------------------------------




--------------------------------------- Iteration      1(   8)  ---------------------------------------


    POTLOK:  cpu time    0.2407: real time    0.2409
    SETDIJ:  cpu time    0.0109: real time    0.0109
    EDDIAG:  cpu time    2.4794: real time    2.4862
  RMM-DIIS:  cpu time   38.4180: real time   38.5444
    ORTHCH:  cpu time    0.2296: real time    0.2299
       DOS:  cpu time    0.0004: real time    0.0004
    CHARGE:  cpu time    1.1106: real time    1.1159
    MIXING:  cpu time    0.0066: real time    0.0066
    --------------------------------------------
      LOOP:  cpu time   42.4963: real time   42.6353

 eigenvalue-minimisations  :  2004
 total energy-change (2. order) : 0.4890399E+00  (-0.7061694E+00)
 number of electron     324.0000000 magnetization 
 augmentation part      -21.5117148 magnetization 

 Broyden mixing:
  rms(total) = 0.12160E+00    rms(broyden)= 0.12160E+00
  rms(prec ) = 0.13946E+00
  weight for this iteration     100.00

 eigenvalues of (default mixing * dielectric matrix)
  average eigenvalue GAMMA=   1.2771
  2.1367  0.8473  0.8473

 Free energy of the ion-electron system (eV)
  ---------------------------------------------------
  alpha Z        PSCENC =       250.09916211
  Ewald energy   TEWEN  =     57921.66294464
  -Hartree energ DENC   =    -69749.77680278
  -exchange      EXHF   =         0.00000000
  -V(xc)+E(xc)   XCENC  =     -2087.86871834
  PAW double counting   =      8308.49907877    -5665.34454782
  entropy T*S    EENTRO =        -0.00000000
  eigenvalues    EBANDS =     -1254.08535965
  atomic energy  EATOM  =     11953.08265402
  Solvation  Ediel_sol  =         0.00000000
  ---------------------------------------------------
  free energy    TOTEN  =      -323.73158906 eV

  energy without entropy =     -323.73158906  energy(sigma->0) =     -323.73158906


--------------------------------------------------------------------------------------------------------




--------------------------------------- Iteration      1(   9)  ---------------------------------------


    POTLOK:  cpu time    0.2395: real time    0.2397
    SETDIJ:  cpu time    0.0109: real time    0.0109
    EDDIAG:  cpu time    2.4388: real time    2.4498
  RMM-DIIS:  cpu time   43.3924: real time   43.5289
    ORTHCH:  cpu time    0.2120: real time    0.2132
       DOS:  cpu time    0.0005: real time    0.0005
    CHARGE:  cpu time    1.1027: real time    1.1038
    MIXING:  cpu time    0.0069: real time    0.0070
    --------------------------------------------
      LOOP:  cpu time   47.4036: real time   47.5536

 eigenvalue-minimisations  :  2225
 total energy-change (2. order) :-0.5812989E-01  (-0.1280758E+00)
 number of electron     324.0000000 magnetization 
 augmentation part      -21.1631729 magnetization 

 Broyden mixing:
  rms(total) = 0.10081E+00    rms(broyden)= 0.10081E+00
  rms(prec ) = 0.11201E+00
  weight for this iteration     100.00

 eigenvalues of (default mixing * dielectric matrix)
  average eigenvalue GAMMA=   1.1947
  1.8008  1.8008  0.7371  0.4399

 Free energy of the ion-electron system (eV)
  ---------------------------------------------------
  alpha Z        PSCENC =       250.09916211
  Ewald energy   TEWEN  =     57921.66294464
  -Hartree energ DENC   =    -69749.27644745
  -exchange      EXHF   =         0.00000000
  -V(xc)+E(xc)   XCENC  =     -2087.52363528
  PAW double counting   =      8310.89347360    -5667.88167675
  entropy T*S    EENTRO =        -0.00000000
  eigenvalues    EBANDS =     -1254.84619384
  atomic energy  EATOM  =     11953.08265402
  Solvation  Ediel_sol  =         0.00000000
  ---------------------------------------------------
  free energy    TOTEN  =      -323.78971895 eV

  energy without entropy =     -323.78971895  energy(sigma->0) =     -323.78971895


--------------------------------------------------------------------------------------------------------




--------------------------------------- Iteration      1(  10)  ---------------------------------------


    POTLOK:  cpu time    0.2462: real time    0.2464
    SETDIJ:  cpu time    0.0106: real time    0.0106
    EDDIAG:  cpu time    2.4703: real time    2.4817
  RMM-DIIS:  cpu time   44.3668: real time   44.5138
    ORTHCH:  cpu time    0.2070: real time    0.2072
       DOS:  cpu time    0.0004: real time    0.0004
    CHARGE:  cpu time    1.0998: real time    1.1050
    MIXING:  cpu time    0.0071: real time    0.0071
    --------------------------------------------
      LOOP:  cpu time   48.4083: real time   48.5722

 eigenvalue-minimisations  :  2288
 total energy-change (2. order) :-0.1376035E-02  (-0.3575653E-01)
 number of electron     324.0000000 magnetization 
 augmentation part      -21.0034068 magnetization 

 Broyden mixing:
  rms(total) = 0.69107E-01    rms(broyden)= 0.69107E-01
  rms(prec ) = 0.78316E-01
  weight for this iteration     100.00

 eigenvalues of (default mixing * dielectric matrix)
  average eigenvalue GAMMA=   1.3134
  2.3781  1.9336  0.9574  0.8990  0.3990

 Free energy of the ion-electron system (eV)
  ---------------------------------------------------
  alpha Z        PSCENC =       250.09916211
  Ewald energy   TEWEN  =     57921.66294464
  -Hartree energ DENC   =    -69753.20291933
  -exchange      EXHF   =         0.00000000
  -V(xc)+E(xc)   XCENC  =     -2087.27899305
  PAW double counting   =      8325.70074272    -5682.69391032
  entropy T*S    EENTRO =        -0.00000000
  eigenvalues    EBANDS =     -1251.16077577
  atomic energy  EATOM  =     11953.08265402
  Solvation  Ediel_sol  =         0.00000000
  ---------------------------------------------------
  free energy    TOTEN  =      -323.79109498 eV

  energy without entropy =     -323.79109498  energy(sigma->0) =     -323.79109498


--------------------------------------------------------------------------------------------------------




--------------------------------------- Iteration      1(  11)  ---------------------------------------


    POTLOK:  cpu time    0.2433: real time    0.2437
    SETDIJ:  cpu time    0.0107: real time    0.0107
    EDDIAG:  cpu time    2.4634: real time    2.4745
  RMM-DIIS:  cpu time   40.6890: real time   40.8321
    ORTHCH:  cpu time    0.2069: real time    0.2071
       DOS:  cpu time    0.0004: real time    0.0004
    CHARGE:  cpu time    1.1124: real time    1.1135
    MIXING:  cpu time    0.0072: real time    0.0072
    --------------------------------------------
      LOOP:  cpu time   44.7334: real time   44.8892

 eigenvalue-minimisations  :  2125
 total energy-change (2. order) : 0.1041617E-01  (-0.1750486E-01)
 number of electron     324.0000000 magnetization 
 augmentation part      -21.3041215 magnetization 

 Broyden mixing:
  rms(total) = 0.35905E-01    rms(broyden)= 0.35904E-01
  rms(prec ) = 0.40965E-01
  weight for this iteration     100.00

 eigenvalues of (default mixing * dielectric matrix)
  average eigenvalue GAMMA=   1.2314
  2.5446  1.7548  1.3391  0.7338  0.6227  0.3937

 Free energy of the ion-electron system (eV)
  ---------------------------------------------------
  alpha Z        PSCENC =       250.09916211
  Ewald energy   TEWEN  =     57921.66294464
  -Hartree energ DENC   =    -69771.63038318
  -exchange      EXHF   =         0.00000000
  -V(xc)+E(xc)   XCENC  =     -2086.99482025
  PAW double counting   =      8373.64086959    -5730.85154032
  entropy T*S    EENTRO =        -0.00000000
  eigenvalues    EBANDS =     -1232.78956543
  atomic energy  EATOM  =     11953.08265402
  Solvation  Ediel_sol  =         0.00000000
  ---------------------------------------------------
  free energy    TOTEN  =      -323.78067881 eV

  energy without entropy =     -323.78067881  energy(sigma->0) =     -323.78067881


--------------------------------------------------------------------------------------------------------




--------------------------------------- Iteration      1(  12)  ---------------------------------------


    POTLOK:  cpu time    0.2429: real time    0.2432
    SETDIJ:  cpu time    0.0110: real time    0.0110
    EDDIAG:  cpu time    2.4630: real time    2.4742
  RMM-DIIS:  cpu time   47.3659: real time   47.5156
    ORTHCH:  cpu time    0.2175: real time    0.2217
       DOS:  cpu time    0.0004: real time    0.0004
    CHARGE:  cpu time    1.1060: real time    1.1070
    MIXING:  cpu time    0.0104: real time    0.0104
    --------------------------------------------
      LOOP:  cpu time   51.4171: real time   51.5835

 eigenvalue-minimisations  :  2437
 total energy-change (2. order) : 0.2323679E-03  (-0.3579325E-02)
 number of electron     324.0000000 magnetization 
 augmentation part      -21.2985230 magnetization 

 Broyden mixing:
  rms(total) = 0.25783E-01    rms(broyden)= 0.25783E-01
  rms(prec ) = 0.29757E-01
  weight for this iteration     100.00

 eigenvalues of (default mixing * dielectric matrix)
  average eigenvalue GAMMA=   1.2238
  2.5083  1.8220  1.8220  0.8109  0.8109  0.4121  0.3805

 Free energy of the ion-electron system (eV)
  ---------------------------------------------------
  alpha Z        PSCENC =       250.09916211
  Ewald energy   TEWEN  =     57921.66294464
  -Hartree energ DENC   =    -69774.93223569
  -exchange      EXHF   =         0.00000000
  -V(xc)+E(xc)   XCENC  =     -2086.89601277
  PAW double counting   =      8376.84203405    -5734.07361712
  entropy T*S    EENTRO =        -0.00000000
  eigenvalues    EBANDS =     -1229.56537568
  atomic energy  EATOM  =     11953.08265402
  Solvation  Ediel_sol  =         0.00000000
  ---------------------------------------------------
  free energy    TOTEN  =      -323.78044644 eV

  energy without entropy =     -323.78044644  energy(sigma->0) =     -323.78044644


--------------------------------------------------------------------------------------------------------




--------------------------------------- Iteration      1(  13)  ---------------------------------------


    POTLOK:  cpu time    0.2435: real time    0.2439
    SETDIJ:  cpu time    0.0108: real time    0.0108
    EDDIAG:  cpu time    2.4610: real time    2.4638
  RMM-DIIS:  cpu time   45.7163: real time   45.8447
    ORTHCH:  cpu time    0.2221: real time    0.2223
       DOS:  cpu time    0.0005: real time    0.0005
    CHARGE:  cpu time    1.1110: real time    1.1123
    MIXING:  cpu time    0.0072: real time    0.0072
    --------------------------------------------
      LOOP:  cpu time   49.7723: real time   49.9055

 eigenvalue-minimisations  :  2329
 total energy-change (2. order) : 0.1104146E-02  (-0.2289119E-02)
 number of electron     324.0000000 magnetization 
 augmentation part      -21.1900455 magnetization 

 Broyden mixing:
  rms(total) = 0.10736E-01    rms(broyden)= 0.10736E-01
  rms(prec ) = 0.13741E-01
  weight for this iteration     100.00

 eigenvalues of (default mixing * dielectric matrix)
  average eigenvalue GAMMA=   1.3530
  2.7013  2.7013  1.7994  1.2060  0.8087  0.8087  0.4173  0.3812

 Free energy of the ion-electron system (eV)
  ---------------------------------------------------
  alpha Z        PSCENC =       250.09916211
  Ewald energy   TEWEN  =     57921.66294464
  -Hartree energ DENC   =    -69777.19901532
  -exchange      EXHF   =         0.00000000
  -V(xc)+E(xc)   XCENC  =     -2086.81281803
  PAW double counting   =      8371.79718092    -5728.99290632
  entropy T*S    EENTRO =        -0.00000000
  eigenvalues    EBANDS =     -1227.41654432
  atomic energy  EATOM  =     11953.08265402
  Solvation  Ediel_sol  =         0.00000000
  ---------------------------------------------------
  free energy    TOTEN  =      -323.77934230 eV

  energy without entropy =     -323.77934230  energy(sigma->0) =     -323.77934230


--------------------------------------------------------------------------------------------------------




--------------------------------------- Iteration      1(  14)  ---------------------------------------


    POTLOK:  cpu time    0.2443: real time    0.2445
    SETDIJ:  cpu time    0.0121: real time    0.0121
    EDDIAG:  cpu time    2.4535: real time    2.4601
  RMM-DIIS:  cpu time   43.7573: real time   43.9025
    ORTHCH:  cpu time    0.2210: real time    0.2212
       DOS:  cpu time    0.0004: real time    0.0004
    CHARGE:  cpu time    1.1109: real time    1.1119
    MIXING:  cpu time    0.0072: real time    0.0072
    --------------------------------------------
      LOOP:  cpu time   47.8068: real time   47.9600

 eigenvalue-minimisations  :  2222
 total energy-change (2. order) :-0.8614810E-03  (-0.5255267E-03)
 number of electron     324.0000000 magnetization 
 augmentation part      -21.2029130 magnetization 

 Broyden mixing:
  rms(total) = 0.50369E-02    rms(broyden)= 0.50369E-02
  rms(prec ) = 0.69253E-02
  weight for this iteration     100.00

 eigenvalues of (default mixing * dielectric matrix)
  average eigenvalue GAMMA=   1.3367
  3.2718  2.5262  1.5856  1.5856  0.8024  0.8024  0.6574  0.4170  0.3818

 Free energy of the ion-electron system (eV)
  ---------------------------------------------------
  alpha Z        PSCENC =       250.09916211
  Ewald energy   TEWEN  =     57921.66294464
  -Hartree energ DENC   =    -69786.02387456
  -exchange      EXHF   =         0.00000000
  -V(xc)+E(xc)   XCENC  =     -2086.77112870
  PAW double counting   =      8370.05345106    -5727.14286580
  entropy T*S    EENTRO =        -0.00000000
  eigenvalues    EBANDS =     -1218.74054656
  atomic energy  EATOM  =     11953.08265402
  Solvation  Ediel_sol  =         0.00000000
  ---------------------------------------------------
  free energy    TOTEN  =      -323.78020378 eV

  energy without entropy =     -323.78020378  energy(sigma->0) =     -323.78020378


--------------------------------------------------------------------------------------------------------




--------------------------------------- Iteration      1(  15)  ---------------------------------------


    POTLOK:  cpu time    0.2442: real time    0.2445
    SETDIJ:  cpu time    0.0122: real time    0.0122
    EDDIAG:  cpu time    2.4563: real time    2.4715
  RMM-DIIS:  cpu time   50.3269: real time   50.4884
    ORTHCH:  cpu time    0.2163: real time    0.2166
       DOS:  cpu time    0.0005: real time    0.0005
    CHARGE:  cpu time    1.1222: real time    1.1236
    MIXING:  cpu time    0.0077: real time    0.0077
    --------------------------------------------
      LOOP:  cpu time   54.3864: real time   54.5649

 eigenvalue-minimisations  :  2594
 total energy-change (2. order) :-0.8373350E-03  (-0.2112732E-03)
 number of electron     324.0000000 magnetization 
 augmentation part      -21.2070394 magnetization 

 Broyden mixing:
  rms(total) = 0.43577E-02    rms(broyden)= 0.43577E-02
  rms(prec ) = 0.56399E-02
  weight for this iteration     100.00

 eigenvalues of (default mixing * dielectric matrix)
  average eigenvalue GAMMA=   1.3115
  3.4535  2.4579  1.7647  1.7647  0.8310  0.8034  0.8034  0.3815  0.4108  0.4439

 Free energy of the ion-electron system (eV)
  ---------------------------------------------------
  alpha Z        PSCENC =       250.09916211
  Ewald energy   TEWEN  =     57921.66294464
  -Hartree energ DENC   =    -69788.64297687
  -exchange      EXHF   =         0.00000000
  -V(xc)+E(xc)   XCENC  =     -2086.75610206
  PAW double counting   =      8370.08858725    -5727.17450601
  entropy T*S    EENTRO =        -0.00000000
  eigenvalues    EBANDS =     -1216.14080419
  atomic energy  EATOM  =     11953.08265402
  Solvation  Ediel_sol  =         0.00000000
  ---------------------------------------------------
  free energy    TOTEN  =      -323.78104111 eV

  energy without entropy =     -323.78104111  energy(sigma->0) =     -323.78104111


--------------------------------------------------------------------------------------------------------




--------------------------------------- Iteration      1(  16)  ---------------------------------------


    POTLOK:  cpu time    0.2514: real time    0.2516
    SETDIJ:  cpu time    0.0105: real time    0.0146
    EDDIAG:  cpu time    2.4568: real time    2.4596
  RMM-DIIS:  cpu time   48.9591: real time   49.1183
    ORTHCH:  cpu time    0.2038: real time    0.2040
       DOS:  cpu time    0.0005: real time    0.0005
    CHARGE:  cpu time    1.1049: real time    1.1101
    MIXING:  cpu time    0.0079: real time    0.0079
    --------------------------------------------
      LOOP:  cpu time   52.9948: real time   53.1666

 eigenvalue-minimisations  :  2474
 total energy-change (2. order) :-0.9861964E-03  (-0.5129127E-04)
 number of electron     324.0000000 magnetization 
 augmentation part      -21.2092357 magnetization 

 Broyden mixing:
  rms(total) = 0.31045E-02    rms(broyden)= 0.31045E-02
  rms(prec ) = 0.41245E-02
  weight for this iteration     100.00

 eigenvalues of (default mixing * dielectric matrix)
  average eigenvalue GAMMA=   1.3801
  3.9546  2.3504  2.1067  2.1067  1.0250  0.8134  0.8134  0.8209  0.4176  0.3796
  0.3929

 Free energy of the ion-electron system (eV)
  ---------------------------------------------------
  alpha Z        PSCENC =       250.09916211
  Ewald energy   TEWEN  =     57921.66294464
  -Hartree energ DENC   =    -69790.57839898
  -exchange      EXHF   =         0.00000000
  -V(xc)+E(xc)   XCENC  =     -2086.74474176
  PAW double counting   =      8369.73322552    -5726.82894331
  entropy T*S    EENTRO =        -0.00000000
  eigenvalues    EBANDS =     -1214.20792956
  atomic energy  EATOM  =     11953.08265402
  Solvation  Ediel_sol  =         0.00000000
  ---------------------------------------------------
  free energy    TOTEN  =      -323.78202731 eV

  energy without entropy =     -323.78202731  energy(sigma->0) =     -323.78202731


--------------------------------------------------------------------------------------------------------




--------------------------------------- Iteration      1(  17)  ---------------------------------------


    POTLOK:  cpu time    0.2453: real time    0.2456
    SETDIJ:  cpu time    0.0107: real time    0.0107
    EDDIAG:  cpu time    2.4617: real time    2.4643
  RMM-DIIS:  cpu time   41.0924: real time   41.2102
    ORTHCH:  cpu time    0.2076: real time    0.2080
       DOS:  cpu time    0.0005: real time    0.0005
    CHARGE:  cpu time    1.1108: real time    1.1159
    MIXING:  cpu time    0.0076: real time    0.0076
    --------------------------------------------
      LOOP:  cpu time   45.1366: real time   45.2629

 eigenvalue-minimisations  :  2067
 total energy-change (2. order) :-0.1671247E-02  (-0.3528617E-04)
 number of electron     324.0000000 magnetization 
 augmentation part      -21.2081333 magnetization 

 Broyden mixing:
  rms(total) = 0.14561E-02    rms(broyden)= 0.14561E-02
  rms(prec ) = 0.19647E-02
  weight for this iteration     100.00

 eigenvalues of (default mixing * dielectric matrix)
  average eigenvalue GAMMA=   1.4550
  4.6716  2.7508  2.2988  1.6465  1.6465  0.9408  0.8171  0.8171  0.6875  0.4173
  0.3781  0.3874

 Free energy of the ion-electron system (eV)
  ---------------------------------------------------
  alpha Z        PSCENC =       250.09916211
  Ewald energy   TEWEN  =     57921.66294464
  -Hartree energ DENC   =    -69793.96204213
  -exchange      EXHF   =         0.00000000
  -V(xc)+E(xc)   XCENC  =     -2086.72767324
  PAW double counting   =      8368.47494400    -5725.57906702
  entropy T*S    EENTRO =        -0.00000000
  eigenvalues    EBANDS =     -1210.83462093
  atomic energy  EATOM  =     11953.08265402
  Solvation  Ediel_sol  =         0.00000000
  ---------------------------------------------------
  free energy    TOTEN  =      -323.78369856 eV

  energy without entropy =     -323.78369856  energy(sigma->0) =     -323.78369856


--------------------------------------------------------------------------------------------------------




--------------------------------------- Iteration      1(  18)  ---------------------------------------


    POTLOK:  cpu time    0.2472: real time    0.2474
    SETDIJ:  cpu time    0.0107: real time    0.0107
    EDDIAG:  cpu time    2.4418: real time    2.4508
  RMM-DIIS:  cpu time   41.5947: real time   41.7158
    ORTHCH:  cpu time    0.2189: real time    0.2191
       DOS:  cpu time    0.0005: real time    0.0005
    CHARGE:  cpu time    1.1146: real time    1.1159
    MIXING:  cpu time    0.0080: real time    0.0080
    --------------------------------------------
      LOOP:  cpu time   45.6363: real time   45.7683

 eigenvalue-minimisations  :  2121
 total energy-change (2. order) :-0.8421907E-03  (-0.2075024E-04)
 number of electron     324.0000000 magnetization 
 augmentation part      -21.2065647 magnetization 

 Broyden mixing:
  rms(total) = 0.14330E-02    rms(broyden)= 0.14330E-02
  rms(prec ) = 0.17211E-02
  weight for this iteration     100.00

 eigenvalues of (default mixing * dielectric matrix)
  average eigenvalue GAMMA=   1.4377
  5.0542  2.8528  2.2914  1.7866  1.7866  0.9204  0.8218  0.8218  0.7124  0.4556
  0.4191  0.3800  0.3878

 Free energy of the ion-electron system (eV)
  ---------------------------------------------------
  alpha Z        PSCENC =       250.09916211
  Ewald energy   TEWEN  =     57921.66294464
  -Hartree energ DENC   =    -69795.54469197
  -exchange      EXHF   =         0.00000000
  -V(xc)+E(xc)   XCENC  =     -2086.72220580
  PAW double counting   =      8368.13561691    -5725.23452282
  entropy T*S    EENTRO =        -0.00000000
  eigenvalues    EBANDS =     -1209.26349785
  atomic energy  EATOM  =     11953.08265402
  Solvation  Ediel_sol  =         0.00000000
  ---------------------------------------------------
  free energy    TOTEN  =      -323.78454075 eV

  energy without entropy =     -323.78454075  energy(sigma->0) =     -323.78454075


--------------------------------------------------------------------------------------------------------




--------------------------------------- Iteration      1(  19)  ---------------------------------------


    POTLOK:  cpu time    0.2457: real time    0.2509
    SETDIJ:  cpu time    0.0107: real time    0.0107
    EDDIAG:  cpu time    2.4520: real time    2.4550
  RMM-DIIS:  cpu time   46.6273: real time   46.7774
    ORTHCH:  cpu time    0.2113: real time    0.2115
       DOS:  cpu time    0.0004: real time    0.0004
    CHARGE:  cpu time    1.0988: real time    1.1081
    MIXING:  cpu time    0.0082: real time    0.0082
    --------------------------------------------
      LOOP:  cpu time   50.6544: real time   50.8223

 eigenvalue-minimisations  :  2395
 total energy-change (2. order) :-0.3389113E-03  (-0.6415400E-05)
 number of electron     324.0000000 magnetization 
 augmentation part      -21.2059394 magnetization 

 Broyden mixing:
  rms(total) = 0.10159E-02    rms(broyden)= 0.10159E-02
  rms(prec ) = 0.12251E-02
  weight for this iteration     100.00

 eigenvalues of (default mixing * dielectric matrix)
  average eigenvalue GAMMA=   1.5590
  6.4743  3.0540  2.4241  1.9312  1.9312  1.0557  1.0557  0.8136  0.8136  0.7107
  0.4180  0.3913  0.3795  0.3732

 Free energy of the ion-electron system (eV)
  ---------------------------------------------------
  alpha Z        PSCENC =       250.09916211
  Ewald energy   TEWEN  =     57921.66294464
  -Hartree energ DENC   =    -69796.02698984
  -exchange      EXHF   =         0.00000000
  -V(xc)+E(xc)   XCENC  =     -2086.72165691
  PAW double counting   =      8368.26810033    -5725.36467990
  entropy T*S    EENTRO =        -0.00000000
  eigenvalues    EBANDS =     -1208.78441411
  atomic energy  EATOM  =     11953.08265402
  Solvation  Ediel_sol  =         0.00000000
  ---------------------------------------------------
  free energy    TOTEN  =      -323.78487966 eV

  energy without entropy =     -323.78487966  energy(sigma->0) =     -323.78487966


--------------------------------------------------------------------------------------------------------




--------------------------------------- Iteration      1(  20)  ---------------------------------------


    POTLOK:  cpu time    0.2428: real time    0.2430
    SETDIJ:  cpu time    0.0107: real time    0.0107
    EDDIAG:  cpu time    2.4500: real time    2.4608
  RMM-DIIS:  cpu time   40.8668: real time   40.9795
    ORTHCH:  cpu time    0.2184: real time    0.2188
       DOS:  cpu time    0.0005: real time    0.0004
    CHARGE:  cpu time    1.1097: real time    1.1111
    MIXING:  cpu time    0.0083: real time    0.0084
    --------------------------------------------
      LOOP:  cpu time   44.9072: real time   45.0327

 eigenvalue-minimisations  :  2054
 total energy-change (2. order) :-0.4336387E-03  (-0.5641795E-05)
 number of electron     324.0000000 magnetization 
 augmentation part      -21.2060190 magnetization 

 Broyden mixing:
  rms(total) = 0.36285E-03    rms(broyden)= 0.36284E-03
  rms(prec ) = 0.45932E-03
  weight for this iteration     100.00

 eigenvalues of (default mixing * dielectric matrix)
  average eigenvalue GAMMA=   1.6199
  6.9392  3.4369  2.5243  1.8668  1.8668  1.7894  0.9777  0.9777  0.8111  0.8111
  0.7365  0.4179  0.3934  0.3810  0.3693

 Free energy of the ion-electron system (eV)
  ---------------------------------------------------
  alpha Z        PSCENC =       250.09916211
  Ewald energy   TEWEN  =     57921.66294464
  -Hartree energ DENC   =    -69796.56643813
  -exchange      EXHF   =         0.00000000
  -V(xc)+E(xc)   XCENC  =     -2086.72246353
  PAW double counting   =      8368.73745194    -5725.83290198
  entropy T*S    EENTRO =        -0.00000000
  eigenvalues    EBANDS =     -1208.24572238
  atomic energy  EATOM  =     11953.08265402
  Solvation  Ediel_sol  =         0.00000000
  ---------------------------------------------------
  free energy    TOTEN  =      -323.78531330 eV

  energy without entropy =     -323.78531330  energy(sigma->0) =     -323.78531330


--------------------------------------------------------------------------------------------------------




--------------------------------------- Iteration      1(  21)  ---------------------------------------


    POTLOK:  cpu time    0.2471: real time    0.2514
    SETDIJ:  cpu time    0.0108: real time    0.0108
    EDDIAG:  cpu time    2.4470: real time    2.4538
  RMM-DIIS:  cpu time   41.5021: real time   41.6196
    ORTHCH:  cpu time    0.2097: real time    0.2099
       DOS:  cpu time    0.0005: real time    0.0005
    CHARGE:  cpu time    1.1024: real time    1.1036
    MIXING:  cpu time    0.0120: real time    0.0120
    --------------------------------------------
      LOOP:  cpu time   45.5316: real time   45.6615

 eigenvalue-minimisations  :  2025
 total energy-change (2. order) :-0.1622780E-03  (-0.1623405E-05)
 number of electron     324.0000000 magnetization 
 augmentation part      -21.2071732 magnetization 

 Broyden mixing:
  rms(total) = 0.31187E-03    rms(broyden)= 0.31187E-03
  rms(prec ) = 0.36593E-03
  weight for this iteration     100.00

 eigenvalues of (default mixing * dielectric matrix)
  average eigenvalue GAMMA=   1.5797
  7.0949  3.4828  2.5236  1.9935  1.9935  1.8212  0.9737  0.9737  0.8126  0.8126
  0.7339  0.4956  0.4178  0.3943  0.3809  0.3705

 Free energy of the ion-electron system (eV)
  ---------------------------------------------------
  alpha Z        PSCENC =       250.09916211
  Ewald energy   TEWEN  =     57921.66294464
  -Hartree energ DENC   =    -69796.78405922
  -exchange      EXHF   =         0.00000000
  -V(xc)+E(xc)   XCENC  =     -2086.72361234
  PAW double counting   =      8368.88516581    -5725.98294342
  entropy T*S    EENTRO =        -0.00000000
  eigenvalues    EBANDS =     -1208.02478719
  atomic energy  EATOM  =     11953.08265402
  Solvation  Ediel_sol  =         0.00000000
  ---------------------------------------------------
  free energy    TOTEN  =      -323.78547558 eV

  energy without entropy =     -323.78547558  energy(sigma->0) =     -323.78547558


--------------------------------------------------------------------------------------------------------




--------------------------------------- Iteration      1(  22)  ---------------------------------------


    POTLOK:  cpu time    0.2505: real time    0.2507
    SETDIJ:  cpu time    0.0109: real time    0.0109
    EDDIAG:  cpu time    2.4376: real time    2.4443
  RMM-DIIS:  cpu time   30.1563: real time   30.2487
    ORTHCH:  cpu time    0.1997: real time    0.1999
       DOS:  cpu time    0.0005: real time    0.0005
    CHARGE:  cpu time    1.1062: real time    1.1075
[...]
  0.000   0.000   0.000   0.000  -0.000   0.011  -0.000  -0.000
  0.000  -0.000   0.000   0.000  -0.000  -0.000   0.011   0.000
 -0.000  -0.000  -0.000  -0.000   0.000  -0.000   0.000   0.011
 -0.000   0.000   0.000   0.000  -0.001  -0.000  -0.000  -0.000
 -0.000  -0.000   0.015  -0.000   0.000   0.000   0.000  -0.000
 -0.009  -0.000   0.000   0.019  -0.000   0.000   0.000   0.000
 -0.000   0.000   0.000   0.000   0.015  -0.000  -0.000   0.000
 -0.000  -0.000  -0.000  -0.000   0.000  -0.000   0.000  -0.000
 total augmentation occupancy for first ion, spin component:           1
  1.932   0.223  -0.002  -0.200   0.000   0.000  -0.044  -0.002   0.001  -0.001   0.007  -0.000  -0.000
  0.223   1.367   0.003   0.943   0.004   0.006  -0.375   0.005  -0.001   0.001  -0.023   0.000   0.000
 -0.002   0.003   1.340  -0.002   0.005  -0.488   0.000  -0.003  -0.001   0.119  -0.001   0.000   0.044
 -0.200   0.943  -0.002   1.506   0.004   0.001  -0.548   0.000   0.001  -0.001   0.039  -0.000  -0.001
  0.000   0.004   0.005   0.004   1.337  -0.003   0.000  -0.483   0.045  -0.000  -0.001   0.117   0.002
  0.000   0.006  -0.488   0.001  -0.003   0.312   0.000  -0.000  -0.000  -0.039  -0.001  -0.000  -0.009
 -0.044  -0.375   0.000  -0.548   0.000   0.000   0.293  -0.000   0.000   0.000  -0.046   0.000   0.000
 -0.002   0.005  -0.003   0.000  -0.483  -0.000  -0.000   0.312  -0.007  -0.000  -0.000  -0.039   0.000
  0.001  -0.001  -0.001   0.001   0.045  -0.000   0.000  -0.007   0.021   0.000   0.000  -0.001   0.000
 -0.001   0.001   0.119  -0.001  -0.000  -0.039   0.000  -0.000   0.000   0.019  -0.000   0.000  -0.000
  0.007  -0.023  -0.001   0.039  -0.001  -0.001  -0.046  -0.000   0.000  -0.000   0.020  -0.000   0.000
 -0.000   0.000   0.000  -0.000   0.117  -0.000   0.000  -0.039  -0.001   0.000  -0.000   0.019   0.000
 -0.000   0.000   0.044  -0.001   0.002  -0.009   0.000   0.000   0.000  -0.000   0.000   0.000   0.021


------------------------ aborting loop because EDIFF is reached ----------------------------------------


    CHARGE:  cpu time    1.1073: real time    1.1084
    FORLOC:  cpu time    0.0795: real time    0.0796
    FORNL :  cpu time   13.1476: real time   13.1919
    STRESS:  cpu time   71.1102: real time   71.3279
    FORCOR:  cpu time    0.2874: real time    0.2877
    FORHAR:  cpu time    0.1220: real time    0.1222
    MIXING:  cpu time    0.0070: real time    0.0070
    OFIELD:  cpu time    0.0000: real time    0.0000

  Number of pair interactions contributing to vdW energy:  273924
  Edisp (eV):  -18.79774
    FORVDW:  cpu time    0.0299: real time    0.0300

  FORCE on cell =-STRESS in cart. coord.  units (eV):
  Direction    XX          YY          ZZ          XY          YZ          ZX
  --------------------------------------------------------------------------------------
  Alpha Z   250.09916   250.09916   250.09916
  Ewald   67108.84606 67106.58992-76289.99148   -28.93980   -33.07255    22.14656
  Hartree 69435.04914 69434.54325-69068.28456    -7.63477    -5.28666     3.21239
  E(xc)   -1356.70347 -1356.61084 -1376.33844     0.44789     1.00425    -0.73001
  Local  ************************140290.10934    35.29631    37.37521   -24.65553
  n-local  3558.77465  3558.83795  3746.29315    -0.04590    -7.08709     5.11357
  augment  -759.98952  -760.06180  -801.84629    -0.53736     1.08239    -0.78751
  Kinetic  3298.55941  3297.20160  3259.84308    -5.90780    -5.69324     3.81942
  Fock        0.00000     0.00000     0.00000     0.00000     0.00000     0.00000
  vdW       -12.16094   -12.11658    -9.45176    -0.03363     0.19674    -0.16408
  -------------------------------------------------------------------------------------
  Total      10.55206     9.37651     0.43221    -7.35505   -11.48096     7.95480
  in kB       5.89166     5.23530     0.24132    -4.10664    -6.41030     4.44150
  external pressure =        3.79 kB  Pullay stress =        0.00 kB

  kinetic pressure (ideal gas correction) =      0.19 kB
  total pressure  =      3.98 kB
  Total+kin.     6.072       5.445       0.423      -4.143      -6.385       4.479

 VOLUME and BASIS-vectors are now :
 -----------------------------------------------------------------------------
  energy-cutoff  :      550.00
  volume of cell :     2869.53
      direct lattice vectors                 reciprocal lattice vectors
    10.477881317  0.000000000  0.000000000     0.095439142  0.053597750  0.000143261
    -5.105601357  9.091318446  0.000000000     0.000000000  0.109995047 -0.001215051
    -0.232092840  0.332760008 30.123809874     0.000000000  0.000000000  0.033196332

  length of vectors
    10.477881317 10.426851697 30.126541747     0.109459440  0.110001758  0.033196332


 FORCES acting on ions
    electron-ion (+dipol)            ewald-force                    non-local-force                 convergence-correction
 -----------------------------------------------------------------------------------------------
   -.741E+00 -.141E+01 0.824E+03   0.754E+00 0.142E+01 -.829E+03   -.252E-01 0.154E+00 0.521E+01   -.930E-04 0.177E-03 0.113E-02
   -.231E+01 0.178E+01 0.825E+03   0.233E+01 -.179E+01 -.830E+03   0.157E+00 -.821E-01 0.506E+01   0.123E-02 -.697E-03 0.163E-03
   -.205E+01 -.232E+01 0.824E+03   0.211E+01 0.232E+01 -.829E+03   0.419E-01 0.234E+00 0.518E+01   0.208E-03 0.130E-02 -.172E-04
   -.235E+00 0.814E+00 0.824E+03   0.251E+00 -.884E+00 -.829E+03   -.636E-01 0.432E-01 0.516E+01   -.969E-03 -.676E-03 0.209E-03
   0.153E+01 0.902E+00 0.824E+03   -.155E+01 -.942E+00 -.830E+03   -.254E+00 0.212E+00 0.533E+01   -.115E-02 -.541E-03 0.129E-04
   0.295E+01 -.141E+00 0.823E+03   -.298E+01 0.101E+00 -.828E+03   -.379E+00 0.109E+00 0.519E+01   -.277E-03 -.217E-03 0.636E-03
   -.402E+00 -.248E+01 0.823E+03   0.359E+00 0.251E+01 -.828E+03   -.896E-02 0.247E+00 0.514E+01   0.109E-02 -.280E-03 0.123E-03
   -.451E-02 0.158E+01 0.822E+03   0.397E-01 -.167E+01 -.827E+03   -.935E-01 0.113E+00 0.540E+01   -.678E-04 -.126E-03 -.159E-02
   -.151E+01 -.101E+01 0.827E+03   0.152E+01 0.936E+00 -.832E+03   -.545E-01 0.275E+00 0.524E+01   0.102E-03 0.103E-02 -.365E-03
   0.127E+01 0.295E+01 -.874E+02   -.131E+01 -.309E+01 0.821E+02   -.347E-01 0.192E+00 0.563E+01   -.110E-02 0.123E-03 -.140E-03
   0.989E+00 -.143E+01 -.858E+02   -.938E+00 0.135E+01 0.805E+02   -.273E+00 0.410E+00 0.513E+01   0.780E-03 -.410E-03 0.442E-03
   0.282E+00 -.806E+00 -.858E+02   -.282E+00 0.759E+00 0.805E+02   -.327E-01 0.182E+00 0.563E+01   0.935E-03 0.537E-03 0.203E-03
   -.115E+01 0.301E+01 -.869E+02   0.122E+01 -.310E+01 0.816E+02   0.319E-01 -.586E-01 0.516E+01   -.126E-03 -.168E-02 -.614E-03
   0.177E+00 -.500E+01 -.859E+02   -.137E+00 0.495E+01 0.806E+02   -.155E+00 0.673E+00 0.506E+01   -.503E-03 0.121E-02 -.755E-04
   -.165E+01 0.677E+00 -.879E+02   0.162E+01 -.730E+00 0.825E+02   0.109E+00 0.159E+00 0.556E+01   -.293E-03 -.106E-04 0.129E-02
   -.166E+01 -.959E+00 -.849E+02   0.165E+01 0.860E+00 0.796E+02   0.440E-01 0.448E+00 0.550E+01   0.122E-02 -.686E-03 0.915E-04
   -.104E+01 -.185E+00 -.880E+02   0.109E+01 0.160E+00 0.826E+02   -.162E+00 -.627E-01 0.530E+01   -.280E-03 0.868E-03 -.737E-03
   -.159E+01 -.111E+01 -.889E+02   0.160E+01 0.105E+01 0.836E+02   0.137E+00 0.257E+00 0.571E+01   -.668E-03 0.181E-04 0.548E-03
   -.333E+01 -.188E+00 0.884E+02   0.331E+01 0.274E+00 -.830E+02   0.401E+00 -.193E+00 -.545E+01   -.159E-03 0.197E-03 -.132E-02
   -.142E+01 0.168E+01 0.843E+02   0.138E+01 -.162E+01 -.790E+02   0.192E+00 -.247E+00 -.524E+01   0.132E-02 -.668E-03 -.191E-03
   0.164E+00 -.131E+01 0.867E+02   -.210E+00 0.142E+01 -.813E+02   0.101E+00 -.238E+00 -.528E+01   0.297E-03 0.131E-02 -.153E-03
   0.340E+01 0.200E+00 0.860E+02   -.354E+01 -.110E+00 -.807E+02   -.460E-01 -.347E+00 -.560E+01   -.953E-03 -.733E-03 -.335E-03
   -.207E+00 0.469E+01 0.876E+02   0.163E+00 -.467E+01 -.823E+02   0.526E-01 -.448E+00 -.549E+01   -.127E-02 -.418E-03 -.229E-03
   -.793E-01 -.326E+00 0.852E+02   0.445E-01 0.423E+00 -.798E+02   0.543E-01 -.218E+00 -.535E+01   -.337E-03 -.232E-03 -.624E-03
   -.350E+01 0.139E+01 0.874E+02   0.344E+01 -.133E+01 -.820E+02   0.488E+00 -.366E+00 -.535E+01   0.110E-02 -.310E-03 -.169E-03
   0.303E+00 -.101E+00 0.870E+02   -.325E+00 0.195E+00 -.816E+02   0.404E-01 -.195E+00 -.586E+01   -.393E-04 -.936E-04 0.140E-02
   -.207E+01 -.184E+01 0.868E+02   0.202E+01 0.193E+01 -.814E+02   0.171E+00 -.383E-01 -.513E+01   0.671E-04 0.105E-02 0.109E-03
   -.192E+01 -.311E+00 -.824E+03   0.187E+01 0.380E+00 0.829E+03   0.344E+00 -.977E-01 -.547E+01   -.112E-02 0.155E-03 0.537E-03
   -.715E+00 0.108E+01 -.824E+03   0.618E+00 -.106E+01 0.830E+03   0.371E+00 -.211E+00 -.516E+01   0.769E-03 -.368E-03 -.310E-04
   -.167E+01 0.692E+00 -.823E+03   0.158E+01 -.618E+00 0.828E+03   0.383E+00 -.292E+00 -.516E+01   0.924E-03 0.523E-03 0.264E-03
   -.318E+00 -.823E+00 -.824E+03   0.289E+00 0.897E+00 0.829E+03   0.159E+00 -.873E-01 -.534E+01   -.904E-04 -.160E-02 0.105E-02
   -.751E+00 0.133E+01 -.825E+03   0.687E+00 -.136E+01 0.830E+03   0.270E+00 -.208E+00 -.523E+01   -.439E-03 0.115E-02 0.424E-03
   -.210E+01 0.913E+00 -.823E+03   0.200E+01 -.827E+00 0.828E+03   0.405E+00 -.189E+00 -.517E+01   -.294E-03 0.139E-04 -.845E-03
   -.120E+00 -.237E+01 -.825E+03   0.804E-02 0.238E+01 0.830E+03   0.184E+00 0.193E+00 -.519E+01   0.121E-02 -.679E-03 0.389E-03
   -.254E+01 0.338E+01 -.822E+03   0.246E+01 -.340E+01 0.828E+03   0.435E+00 -.445E+00 -.524E+01   -.415E-03 0.842E-03 0.117E-02
   -.151E+00 -.273E+00 -.823E+03   0.837E-01 0.336E+00 0.829E+03   0.161E+00 -.804E-01 -.530E+01   -.609E-03 -.431E-04 0.434E-04
   0.364E+00 -.205E+01 0.455E+03   -.407E+00 0.207E+01 -.455E+03   -.181E+00 0.244E-01 -.268E-01   0.187E-03 0.145E-02 -.104E-03
   0.838E-01 0.553E-01 0.456E+03   -.160E+00 0.338E-01 -.456E+03   -.185E+00 -.565E-01 0.503E-01   0.119E-02 -.487E-03 -.104E-03
   0.431E+01 0.805E+00 0.454E+03   -.442E+01 -.813E+00 -.454E+03   -.302E+00 0.102E+00 0.174E+00   0.114E-02 0.404E-03 -.165E-03
   0.170E+01 -.206E+01 0.453E+03   -.171E+01 0.213E+01 -.453E+03   0.137E+00 0.108E+00 -.155E+00   -.221E-03 0.568E-04 -.137E-03
   0.168E+01 -.534E+00 0.458E+03   -.171E+01 0.528E+00 -.458E+03   -.383E-01 0.218E+00 0.515E+00   -.123E-02 -.568E-03 -.631E-04
   0.109E-01 0.231E+01 0.453E+03   -.232E-01 -.233E+01 -.453E+03   0.165E+00 0.334E-01 -.208E+00   -.759E-04 -.343E-03 -.110E-03
   0.409E+00 -.228E+01 0.454E+03   -.401E+00 0.229E+01 -.454E+03   0.895E-01 0.201E+00 0.118E+00   0.570E-05 0.189E-03 -.126E-03
   0.258E+01 -.363E+01 0.457E+03   -.267E+01 0.375E+01 -.457E+03   -.196E+00 0.277E+00 0.751E-01   0.465E-04 -.102E-02 -.153E-03
   -.149E+01 0.437E+01 0.456E+03   0.151E+01 -.444E+01 -.456E+03   0.334E+00 -.270E+00 0.439E-01   -.955E-03 0.334E-03 -.123E-03
   0.357E+01 0.360E+01 -.456E+03   -.369E+01 -.373E+01 0.456E+03   -.219E+00 -.430E+00 0.505E+00   -.843E-03 -.109E-05 0.425E-03
   0.117E+00 -.254E+01 -.453E+03   -.174E+00 0.253E+01 0.453E+03   0.187E+00 0.129E+00 0.619E-01   -.117E-03 0.750E-03 0.350E-03
   0.280E+01 0.577E-01 -.455E+03   -.291E+01 -.483E-02 0.455E+03   -.411E+00 0.389E-02 -.150E+00   0.567E-03 -.978E-03 0.325E-03
   -.172E+01 -.135E+01 -.453E+03   0.176E+01 0.135E+01 0.453E+03   0.133E+00 0.235E+00 0.300E+00   0.528E-03 -.774E-03 0.440E-03
   0.205E+01 -.285E+01 -.455E+03   -.217E+01 0.289E+01 0.455E+03   -.191E+00 0.182E+00 -.112E+00   -.758E-03 0.109E-02 0.389E-03
   -.948E-02 0.254E+01 -.458E+03   -.659E-01 -.260E+01 0.458E+03   -.551E-01 -.569E+00 -.311E+00   -.175E-03 -.640E-03 0.264E-03
   0.186E+01 0.306E+01 -.456E+03   -.195E+01 -.321E+01 0.456E+03   -.226E+00 -.269E+00 -.346E-01   0.309E-03 -.140E-03 0.335E-03
   0.123E+01 -.989E+00 -.451E+03   -.124E+01 0.106E+01 0.451E+03   -.107E-01 0.407E-01 0.164E+00   0.941E-03 0.482E-03 0.393E-03
   0.264E+01 -.103E+01 -.457E+03   -.277E+01 0.106E+01 0.457E+03   -.196E+00 0.590E-01 -.443E+00   -.422E-03 0.135E-03 0.290E-03
 -----------------------------------------------------------------------------------------------
   -.199E+01 0.183E+00 -.140E+00   0.244E-13 0.755E-14 0.227E-11   0.199E+01 -.182E+00 0.145E+00   0.103E-03 -.238E-04 0.492E-02
 
 
 POSITION                                       TOTAL-FORCE (eV/Angst)
 -----------------------------------------------------------------------------------
     -0.05092      2.11519      9.41654        -0.013274      0.157046     -0.081156
     -1.76170      5.17926      9.42509         0.170963     -0.085985     -0.165991
     -3.45133      8.17440      9.42852         0.104621      0.225420     -0.091957
      3.46555      2.12178      9.42352        -0.039761     -0.032270     -0.120691
      1.75529      5.15206      9.40934        -0.265173      0.168198      0.061673
      0.07265      8.17978      9.43745        -0.392610      0.061982     -0.092567
      6.95145      2.10366      9.43509        -0.041690      0.261446     -0.186178
      5.23597      5.16444      9.42360        -0.056765      0.020846      0.096019
      3.54120      8.18037      9.40128        -0.042488      0.195245     -0.001574
      0.19183      1.69336     17.04766        -0.066133      0.048273      0.242499
     -1.50209      4.69871     17.06323        -0.205034      0.313496     -0.262137
     -3.20896      7.77208     17.03820        -0.020302      0.129030      0.224930
      3.66189      1.72365     17.06699         0.100478     -0.149410     -0.243978
      1.98219      4.70267     17.06741        -0.102126      0.588097     -0.336377
      0.27474      7.76406     17.05610         0.082926      0.098639      0.128665
      7.16877      1.68290     17.03515         0.040658      0.330939      0.167053
      5.47109      4.75365     17.06703        -0.101754     -0.087817     -0.166309
      3.74570      7.75983     17.05355         0.142812      0.184749      0.305381
     -0.08886      2.16577     13.05641         0.366132     -0.098517     -0.049167
     -1.78052      5.19926     13.07198         0.145988     -0.174140      0.121434
     -3.46914      8.22477     13.05608         0.054710     -0.114321      0.143999
      3.44746      2.19326     13.08266        -0.177412     -0.239005     -0.208946
      1.72799      5.21599     13.06504         0.005735     -0.400457     -0.082869
      0.02878      8.22883     13.06811         0.020345     -0.113588      0.088171
      6.89335      2.17759     13.05839         0.410979     -0.293377      0.057807
      5.21463      5.20505     13.09070         0.016014     -0.090476     -0.445057
      3.51360      8.21629     13.04407         0.111665      0.052030      0.277044
      0.15069      1.74716     20.72236         0.289294     -0.024411     -0.224366
     -1.58141      4.78161     20.70031         0.262330     -0.176570      0.054603
     -3.24374      7.80855     20.69964         0.293828     -0.215351      0.087628
      3.64490      1.74449     20.70361         0.127985     -0.014417     -0.090040
      1.92301      4.79032     20.70651         0.196278     -0.228236      0.005012
      0.23369      7.79422     20.69334         0.294744     -0.104087      0.120518
      7.13940      1.73503     20.70884         0.073247      0.198338      0.017663
      5.41979      4.79886     20.69226         0.347905     -0.450367      0.007195
      3.73904      7.79424     20.71091         0.095287     -0.020241      0.004758
      5.28621      9.20723     11.23712        -0.231845      0.052325     -0.021943
     -1.78526      3.16534     11.23824        -0.258884      0.001558      0.016216
     -3.47724      6.18020     11.23779        -0.452466      0.098101      0.259749
     -1.70464      9.21552     11.25984         0.128340      0.171204     -0.225520
      1.71123      3.14247     11.20778        -0.080091      0.227213      0.689237
     -0.01659      6.18047     11.26011         0.167175      0.012361     -0.283286
      1.79315      9.19962     11.23568         0.083746      0.232439      0.205474
      5.20486      3.14201     11.24080        -0.299302      0.418318     -0.025801
      3.46825      6.20841     11.23524         0.388847     -0.387980      0.048656
      1.93826      2.76235     18.85776        -0.354475     -0.603960      0.803645
      0.20837      5.74935     18.87359         0.150898      0.162434      0.042182
     -1.45372      8.79969     18.88558        -0.547231      0.054651     -0.238302
      5.41529      2.72213     18.85835         0.186175      0.262073      0.395499
      3.71355      5.75818     18.88840        -0.315748      0.245955     -0.203189
      2.02399      8.83080     18.90264        -0.116373     -0.666022     -0.361321
     -1.55663      2.74330     18.88471        -0.308101     -0.420090      0.002959
     -3.26433      5.76722     18.86099        -0.036004      0.111250      0.152694
     -4.94952      8.78999     18.90897        -0.333801      0.108162     -0.610442
 -----------------------------------------------------------------------------------
    total drift:                                0.001265      0.000722      0.009202


--------------------------------------------------------------------------------------------------------



  FREE ENERGIE OF THE ION-ELECTRON SYSTEM (eV)
  ---------------------------------------------------
  free  energy   TOTEN  =      -342.35701584 eV

  energy  without entropy=     -342.35701584  energy(sigma->0) =     -342.35701584
 
 d Force =-0.3763329E-01[-0.396E-01,-0.357E-01]  d Energy =-0.3762445E-01-0.884E-05
 d Force =-0.3118937E+00[-0.317E+00,-0.306E+00]  d Ewald  =-0.3118933E+00-0.414E-06


--------------------------------------------------------------------------------------------------------


    POTLOK:  cpu time    0.2662: real time    0.2665


--------------------------------------------------------------------------------------------------------


           RANDOM_SEED =         214550561              324                0
   IONSTEP:  cpu time    0.0001: real time    0.0001

  ENERGY OF THE ELECTRON-ION-THERMOSTAT SYSTEM (eV)
  ---------------------------------------------------
% ion-electron   TOTEN  =      -342.357016  see above
  kinetic energy EKIN   =         0.498573
  kin. lattice  EKIN_LAT=         0.000000  (temperature   72.78 K)
  nose potential ES     =        -0.043117
  nose kinetic   EPS    =         0.008505
  ---------------------------------------------------
  total energy   ETOTAL =      -341.893054 eV

  maximum distance moved by ions :      0.58E-03


 mean value of Nose-termostat <S>:     0.955 mean value of <T> :    72.776
 mean temperature <T/S>/<1/S>  :    72.776

    WAVPRE:  cpu time    0.0998: real time    0.1027
    FEWALD:  cpu time    0.0013: real time    0.0013
    ORTHCH:  cpu time    7.9403: real time    7.9615
    POTLOK:  cpu time    0.2597: real time    0.2600
    EDDIAG:  cpu time    2.4606: real time    2.4715
     LOOP+:  cpu time  465.1265: real time  466.5335
    4ORBIT:  cpu time    0.0000: real time    0.0000

 total amount of memory used by VASP MPI-rank0   353948. kBytes
=======================================================================

   base      :      30000. kBytes
   nonl-proj :     193812. kBytes
   fftplans  :      16533. kBytes
   grid      :      78796. kBytes
   one-center:        839. kBytes
   wavefun   :      33968. kBytes
 
  
  
 General timing and accounting informations for this job:
 ========================================================
  
                  Total CPU time used (sec):     5622.320
                            User time (sec):     5608.614
                          System time (sec):       13.706
                         Elapsed time (sec):     5639.586
  
                   Maximum memory used (kb):      783040.
                   Average memory used (kb):           0.
  
                          Minor page faults:       392435
                          Major page faults:            0
                 Voluntary context switches:         1360
