-3.347550331300000153e+02
-3.347505787700000042e+02
-3.347392155800000069e+02
-3.347215749100000153e+02
-3.346976715399999875e+02
-3.346681299100000047e+02
-3.346336994399999867e+02
-3.345953683399999932e+02
-3.345540303600000129e+02
-3.345105846800000222e+02
-3.343323245500000098e+02
-3.343359839400000055e+02
-3.343357247499999971e+02
-3.343315439900000001e+02
-3.343238160399999970e+02
-3.343124741899999890e+02
-3.342978624099999934e+02
-3.342806373099999746e+02
-3.342609393000000182e+02
-3.342392309100000034e+02
-3.338006944599999883e+02
-3.338062230699999873e+02
-3.338117704399999752e+02
-3.338172044199999959e+02
-3.338225863100000197e+02
-3.338279634300000112e+02
-3.338335201599999777e+02
-3.338393105299999775e+02
-3.338456360100000211e+02
-3.338526517700000227e+02
-3.343362503500000003e+02
-3.343387906899999962e+02
-3.343371816900000226e+02
-3.343316981699999815e+02
-3.343227534999999762e+02
-3.343103313899999876e+02
-3.342949337000000014e+02
-3.342768533899999852e+02
-3.342567099199999916e+02
-3.342349169699999720e+02
-3.341061126500000000e+02
-3.341181333499999937e+02
-3.341281947200000104e+02
-3.341361814900000127e+02
-3.341422255499999778e+02
-3.341460269899999957e+02
-3.341477121600000260e+02
-3.341475343000000180e+02
-3.341461608899999760e+02
-3.341437453899999923e+02
-3.342649830999999949e+02
-3.342598262100000284e+02
-3.342500110500000119e+02
-3.342360029600000075e+02
-3.342182345499999769e+02
-3.341971609999999941e+02
-3.341730086900000174e+02
-3.341467371300000195e+02
-3.341192839000000276e+02
-3.340911684700000137e+02
-3.342302953099999741e+02
-3.342307925399999817e+02
-3.342280248899999719e+02
-3.342221655899999746e+02
-3.342132171000000085e+02
-3.342015928399999893e+02
-3.341876110300000278e+02
-3.341717790999999806e+02
-3.341544154200000207e+02
-3.341360966899999880e+02
-3.342544481099999985e+02
-3.342565181800000005e+02
-3.342543139399999745e+02
-3.342480171899999846e+02
-3.342379503199999817e+02
-3.342246128300000123e+02
-3.342087149199999772e+02
-3.341906829999999786e+02
-3.341710148700000218e+02
-3.341506747500000074e+02
-3.344954031400000076e+02
-3.344937358899999822e+02
-3.344872642500000097e+02
-3.344763095600000042e+02
-3.344611588999999867e+02
-3.344420767299999966e+02
-3.344198364999999740e+02
-3.343951335400000175e+02
-3.343685674800000243e+02
-3.343409559099999910e+02
-3.342694704599999795e+02
-3.342657694600000013e+02
-3.342571523699999716e+02
-3.342437500099999852e+02
-3.342260969399999908e+02
-3.342046599600000150e+02
-3.341799468699999807e+02
-3.341526564000000121e+02
-3.341234193700000219e+02
-3.340927454700000112e+02
-3.346920474199999944e+02
-3.346901141800000232e+02
-3.346837014899999758e+02
-3.346725168099999905e+02
-3.346568172899999922e+02
-3.346372592100000247e+02
-3.346146944199999780e+02
-3.345895132800000056e+02
-3.345624446599999828e+02
-3.345341826299999752e+02
-3.339383116299999870e+02
-3.339389050500000167e+02
-3.339370549399999959e+02
-3.339329151399999773e+02
-3.339265361800000278e+02
-3.339182215399999905e+02
-3.339081198399999835e+02
-3.338966515899999763e+02
-3.338841767700000105e+02
-3.338708803399999852e+02
-3.344021412100000248e+02
-3.343965876299999991e+02
-3.343876529099999857e+02
-3.343752984500000025e+02
-3.343595883300000082e+02
-3.343409132599999793e+02
-3.343196748099999809e+02
-3.342965988500000094e+02
-3.342721231900000021e+02
-3.342471629300000018e+02
-3.333496228000000201e+02
-3.333542170800000122e+02
-3.333603130299999862e+02
-3.333676774900000055e+02
-3.333765066400000023e+02
-3.333873757999999725e+02
-3.334002127499999801e+02
-3.334149131400000101e+02
-3.334314853500000027e+02
-3.334500234399999954e+02
-3.329076529999999821e+02
-3.328973133399999824e+02
-3.328929164300000139e+02
-3.328943225900000016e+02
-3.329019696199999885e+02
-3.329156693900000050e+02
-3.329358595900000068e+02
-3.329628468899999802e+02
-3.329966306200000190e+02
-3.330372962100000223e+02
-3.339398306400000251e+02
-3.339374424900000236e+02
-3.339316248399999836e+02
-3.339223598300000049e+02
-3.339099241900000266e+02
-3.338946639800000185e+02
-3.338769627300000025e+02
-3.338572505700000193e+02
-3.338359490400000027e+02
-3.338133941500000219e+02
-3.339140858900000239e+02
-3.339069049500000119e+02
-3.338960848899999974e+02
-3.338820956399999886e+02
-3.338652036600000201e+02
-3.338455987099999902e+02
-3.338239031699999941e+02
-3.338008490899999856e+02
-3.337765471100000241e+02
-3.337516993400000160e+02
-3.338236908299999754e+02
-3.338168304499999977e+02
-3.338092759200000046e+02
-3.338014958300000217e+02
-3.337936881200000130e+02
-3.337867631500000130e+02
-3.337808731100000159e+02
-3.337765716999999768e+02
-3.337745330500000023e+02
-3.337757783800000198e+02
-3.342263087499999870e+02
-3.342290088600000217e+02
-3.342282776100000206e+02
-3.342240898599999923e+02
-3.342166569799999820e+02
-3.342059761699999854e+02
-3.341928544400000192e+02
-3.341772598599999924e+02
-3.341597236599999974e+02
-3.341406469199999947e+02
-3.339258333500000049e+02
-3.339269264700000122e+02
-3.339244305899999858e+02
-3.339189354100000173e+02
-3.339104083899999864e+02
-3.338994339600000103e+02
-3.338867960300000277e+02
-3.338729260700000054e+02
-3.338585360899999728e+02
-3.338439698899999826e+02
-3.337580022399999962e+02
-3.337729158800000278e+02
-3.337863580999999726e+02
-3.337980872800000043e+02
-3.338082498800000053e+02
-3.338170639300000175e+02
-3.338249166300000184e+02
-3.338322781100000043e+02
-3.338392834100000073e+02
-3.338463068899999939e+02
-3.341891389499999718e+02
-3.341905532200000266e+02
-3.341870486999999912e+02
-3.341793098200000145e+02
-3.341675557500000195e+02
-3.341526011999999923e+02
-3.341353522900000144e+02
-3.341165418699999918e+02
-3.340971677399999749e+02
-3.340781340400000090e+02
-3.322292107900000246e+02
-3.322267060300000026e+02
-3.322338198400000238e+02
-3.322505663700000014e+02
-3.322767100199999959e+02
-3.323122246400000108e+02
-3.323563557699999933e+02
-3.324088151199999857e+02
-3.324684724599999868e+02
-3.325344236400000000e+02
-3.341493721900000082e+02
-3.341475703400000157e+02
-3.341414663300000143e+02
-3.341314143600000079e+02
-3.341177491500000087e+02
-3.341008352599999967e+02
-3.340814768999999842e+02
-3.340604382099999725e+02
-3.340384246599999756e+02
-3.340163331200000130e+02
-3.345194699099999980e+02
-3.345190141400000243e+02
-3.345133382500000039e+02
-3.345026089300000081e+02
-3.344872784400000114e+02
-3.344678437700000018e+02
-3.344443629900000019e+02
-3.344175318700000048e+02
-3.343878729099999987e+02
-3.343559984699999745e+02
-3.335727215000000001e+02
-3.335823972800000092e+02
-3.335921377600000142e+02
-3.336018886599999860e+02
-3.336118253700000196e+02
-3.336222149899999749e+02
-3.336329069500000060e+02
-3.336444410899999866e+02
-3.336572339699999930e+02
-3.336712919700000270e+02
-3.338274366699999973e+02
-3.338259786300000087e+02
-3.338214798800000267e+02
-3.338138975100000039e+02
-3.338038799299999937e+02
-3.337917243499999813e+02
-3.337780186900000103e+02
-3.337632868700000017e+02
-3.337482661600000142e+02
-3.337333385800000087e+02
-3.333183860999999979e+02
-3.333289553100000262e+02
-3.333424705200000062e+02
-3.333587216399999988e+02
-3.333782312800000227e+02
-3.334006780099999787e+02
-3.334257304899999781e+02
-3.334531852399999821e+02
-3.334838266500000259e+02
-3.335172550600000250e+02
-3.337087376999999719e+02
-3.337071098200000279e+02
-3.337026764999999955e+02
-3.336958718899999781e+02
-3.336864386099999820e+02
-3.336750368799999933e+02
-3.336615810299999794e+02
-3.336467978800000083e+02
-3.336310235199999852e+02
-3.336147371399999884e+02
-3.337309275299999740e+02
-3.337331396800000221e+02
-3.337313466699999935e+02
-3.337262696600000140e+02
-3.337178895200000284e+02
-3.337067364100000191e+02
-3.336934933399999750e+02
-3.336787270699999794e+02
-3.336632031999999981e+02
-3.336475893100000008e+02
-3.342695541800000001e+02
-3.342668596500000149e+02
-3.342596782300000200e+02
-3.342484480800000028e+02
-3.342330507600000260e+02
-3.342140402100000074e+02
-3.341919166000000132e+02
-3.341672266900000068e+02
-3.341409644500000127e+02
-3.341136075499999833e+02
-3.332964717899999982e+02
-3.333077331299999742e+02
-3.333176250999999866e+02
-3.333259395000000040e+02
-3.333329255799999942e+02
-3.333382361600000081e+02
-3.333423715600000037e+02
-3.333455982300000073e+02
-3.333481818999999859e+02
-3.333507020999999781e+02
-3.335630609099999901e+02
-3.335659339800000112e+02
-3.335640762799999948e+02
-3.335571451000000138e+02
-3.335460166699999718e+02
-3.335308832700000039e+02
-3.335125335800000244e+02
-3.334917847199999983e+02
-3.334692832499999895e+02
-3.334460953000000245e+02
-3.338041769299999828e+02
-3.338089621899999884e+02
-3.338096840900000188e+02
-3.338065523600000120e+02
-3.337997029800000064e+02
-3.337896253100000195e+02
-3.337768953400000100e+02
-3.337615067500000237e+02
-3.337444045400000050e+02
-3.337264663899999846e+02
-3.339696992600000272e+02
-3.339670371299999942e+02
-3.339610684500000275e+02
-3.339515929899999946e+02
-3.339386092999999960e+02
-3.339225818200000049e+02
-3.339037584000000152e+02
-3.338825215699999944e+02
-3.338592866700000172e+02
-3.338347424899999965e+02
-3.338406093599999735e+02
-3.338436390200000119e+02
-3.338465384599999766e+02
-3.338492615499999943e+02
-3.338516682299999729e+02
-3.338538365499999827e+02
-3.338558848900000271e+02
-3.338579355499999792e+02
-3.338599163499999918e+02
-3.338618297900000016e+02
-3.340376917699999808e+02
-3.340366243099999792e+02
-3.340333072999999899e+02
-3.340277934900000218e+02
-3.340201469500000258e+02
-3.340108390099999838e+02
-3.340001544599999761e+02
-3.339882337999999891e+02
-3.339755819100000167e+02
-3.339626993399999719e+02
-3.339232811900000115e+02
-3.339193430400000011e+02
-3.339127794199999926e+02
-3.339039887299999805e+02
-3.338930643699999905e+02
-3.338805811899999867e+02
-3.338665976799999839e+02
-3.338516119799999728e+02
-3.338358974399999965e+02
-3.338202085699999770e+02
-3.338621775400000047e+02
-3.338625070699999924e+02
-3.338597530499999948e+02
-3.338541945299999725e+02
-3.338458266499999922e+02
-3.338352200300000163e+02
-3.338225893300000280e+02
-3.338082984600000032e+02
-3.337928152299999738e+02
-3.337767733100000100e+02
-3.335898914699999978e+02
-3.336068277300000204e+02
-3.336237158999999792e+02
-3.336402766599999836e+02
-3.336563913100000036e+02
-3.336722267000000102e+02
-3.336875628199999824e+02
-3.337025263099999961e+02
-3.337171819100000221e+02
-3.337315077999999744e+02
-3.340931746499999804e+02
-3.340906219899999883e+02
-3.340868841500000030e+02
-3.340820283699999891e+02
-3.340760322500000257e+02
-3.340692926799999896e+02
-3.340620241099999816e+02
-3.340543498499999941e+02
-3.340464342000000215e+02
-3.340387309600000094e+02
-3.318674887999999896e+02
-3.318603240499999742e+02
-3.318568225399999960e+02
-3.318573054299999967e+02
-3.318617587699999945e+02
-3.318702980799999978e+02
-3.318832963599999744e+02
-3.319009085999999797e+02
-3.319229615200000012e+02
-3.319493303400000173e+02
-3.333346533800000202e+02
-3.333509712700000023e+02
-3.333691887599999859e+02
-3.333891621399999963e+02
-3.334111768199999801e+02
-3.334344485799999802e+02
-3.334591136700000220e+02
-3.334853247300000021e+02
-3.335131856300000095e+02
-3.335424416999999835e+02
-3.336475842799999896e+02
-3.336590212699999825e+02
-3.336713276599999745e+02
-3.336844753699999728e+02
-3.336980614099999798e+02
-3.337120248100000026e+02
-3.337259419000000094e+02
-3.337400797199999829e+02
-3.337544525700000122e+02
-3.337689194999999813e+02
-3.335233278300000279e+02
-3.335252566099999854e+02
-3.335285785899999951e+02
-3.335336165200000096e+02
-3.335403977199999872e+02
-3.335494523599999752e+02
-3.335611572999999908e+02
-3.335759429400000045e+02
-3.335939923099999760e+02
-3.336155531599999904e+02
-3.340668609499999775e+02
-3.340659335600000190e+02
-3.340609844800000019e+02
-3.340523734500000046e+02
-3.340402789999999982e+02
-3.340248738799999728e+02
-3.340065191200000072e+02
-3.339858147699999904e+02
-3.339629335299999866e+02
-3.339386725599999863e+02
-3.321134616100000017e+02
-3.321205999100000099e+02
-3.321327946000000111e+02
-3.321500973099999783e+02
-3.321724439800000255e+02
-3.321999671199999966e+02
-3.322323094500000025e+02
-3.322693526499999734e+02
-3.323109828400000083e+02
-3.323562915499999804e+02
-3.337861201599999958e+02
-3.337806615399999828e+02
-3.337740240499999800e+02
-3.337662123800000131e+02
-3.337576573900000199e+02
-3.337486003899999787e+02
-3.337395176100000072e+02
-3.337310615100000177e+02
-3.337237231799999790e+02
-3.337181306499999778e+02
-3.337978414500000213e+02
-3.338074769099999912e+02
-3.338178293299999950e+02
-3.338287927000000082e+02
-3.338405381100000113e+02
-3.338527207600000111e+02
-3.338655877799999985e+02
-3.338789988099999846e+02
-3.338930880699999761e+02
-3.339076639900000032e+02
-3.340285617999999772e+02
-3.340282790399999726e+02
-3.340252578299999868e+02
-3.340198432899999830e+02
-3.340124379000000090e+02
-3.340029462900000112e+02
-3.339918690499999911e+02
-3.339794161600000280e+02
-3.339659051099999942e+02
-3.339517941400000041e+02
-3.315323488199999815e+02
-3.315558486400000220e+02
-3.315917736900000250e+02
-3.316397480399999722e+02
-3.316991518099999894e+02
-3.317692220600000041e+02
-3.318490885800000001e+02
-3.319377254600000242e+02
-3.320336970600000086e+02
-3.321356337400000029e+02
-3.343800732099999777e+02
-3.343839620200000127e+02
-3.343834650399999759e+02
-3.343787815100000103e+02
-3.343695914799999969e+02
-3.343563158300000282e+02
-3.343393074800000022e+02
-3.343192644999999743e+02
-3.342970647000000213e+02
-3.342731977199999847e+02
-3.340981924199999753e+02
-3.340931932199999892e+02
-3.340835374100000195e+02
-3.340695054099999766e+02
-3.340514904899999920e+02
-3.340299893399999860e+02
-3.340056328900000153e+02
-3.339790800499999932e+02
-3.339510495000000105e+02
-3.339224475199999915e+02
-3.335777163600000108e+02
-3.335793094800000063e+02
-3.335814993999999842e+02
-3.335842832800000224e+02
-3.335877965199999835e+02
-3.335922119400000270e+02
-3.335978246799999738e+02
-3.336049442699999759e+02
-3.336138418799999954e+02
-3.336246257600000149e+02
-3.328955105399999752e+02
-3.328952911800000152e+02
-3.328953208600000266e+02
-3.328959939900000222e+02
-3.328974886600000218e+02
-3.328996996600000102e+02
-3.329029848800000195e+02
-3.329076461500000050e+02
-3.329141098800000123e+02
-3.329230815899999811e+02
-3.344279727699999967e+02
-3.344320819299999812e+02
-3.344320822399999997e+02
-3.344279823300000203e+02
-3.344199057299999822e+02
-3.344083998500000234e+02
-3.343938153600000192e+02
-3.343768095699999776e+02
-3.343578179900000009e+02
-3.343373424100000193e+02
-3.332763622699999928e+02
-3.332890181000000211e+02
-3.333031126800000266e+02
-3.333184572999999773e+02
-3.333352194600000189e+02
-3.333534831399999803e+02
-3.333729695900000252e+02
-3.333938121099999989e+02
-3.334164172499999950e+02
-3.334408378800000037e+02
-3.336297047400000224e+02
-3.336253760299999840e+02
-3.336219449399999917e+02
-3.336195561399999860e+02
-3.336184797799999728e+02
-3.336190098199999738e+02
-3.336212052299999868e+02
-3.336256679699999950e+02
-3.336325409099999888e+02
-3.336420840399999861e+02
-3.339012113300000237e+02
-3.339043887799999766e+02
-3.339038886800000228e+02
-3.338998012499999959e+02
-3.338923189199999797e+02
-3.338817649100000153e+02
-3.338686832899999786e+02
-3.338533988699999782e+02
-3.338365496800000187e+02
-3.338187562800000023e+02
-3.338596303499999749e+02
-3.338575796000000082e+02
-3.338534774500000140e+02
-3.338473846800000047e+02
-3.338393971599999759e+02
-3.338298569199999974e+02
-3.338189739300000269e+02
-3.338071161099999813e+02
-3.337947259000000031e+02
-3.337823981500000059e+02
-3.342389042199999949e+02
-3.342350659400000268e+02
-3.342281721400000265e+02
-3.342187807199999838e+02
-3.342068313099999841e+02
-3.341925868000000150e+02
-3.341763534799999888e+02
-3.341586151600000107e+02
-3.341397581499999774e+02
-3.341199788700000113e+02
-3.343028530299999943e+02
-3.343030485599999793e+02
-3.342993463500000075e+02
-3.342920058799999765e+02
-3.342812562199999888e+02
-3.342672423899999785e+02
-3.342507125000000201e+02
-3.342319185900000207e+02
-3.342116877600000180e+02
-3.341903509100000065e+02
-3.344064550300000178e+02
-3.344059994500000244e+02
-3.344007060999999794e+02
-3.343906910700000026e+02
-3.343764884600000187e+02
-3.343583377200000086e+02
-3.343367338099999984e+02
-3.343121777999999722e+02
-3.342853162200000270e+02
-3.342569951799999899e+02
-3.344001827000000162e+02
-3.344023920800000269e+02
-3.343989730800000189e+02
-3.343901434200000153e+02
-3.343762656800000173e+02
-3.343579742000000010e+02
-3.343361126699999772e+02
-3.343111583799999948e+02
-3.342841913199999908e+02
-3.342559608000000253e+02
-3.331320196099999862e+02
-3.331455669100000136e+02
-3.331631953300000077e+02
-3.331851284499999792e+02
-3.332111621799999739e+02
-3.332409138300000109e+02
-3.332736351300000024e+02
-3.333092433300000152e+02
-3.333474755799999798e+02
-3.333885874100000137e+02
-3.334085406400000124e+02
-3.334038333400000056e+02
-3.333962862500000028e+02
-3.333857450900000003e+02
-3.333726455299999998e+02
-3.333578045300000099e+02
-3.333414650700000266e+02
-3.333243370299999810e+02
-3.333067765000000122e+02
-3.332891671300000098e+02
-3.342302266099999883e+02
-3.342262642499999856e+02
-3.342183163600000171e+02
-3.342066768500000080e+02
-3.341915176499999802e+02
-3.341728395200000250e+02
-3.341512541499999998e+02
-3.341271534800000040e+02
-3.341010198999999830e+02
-3.340734360199999742e+02
-3.335105606000000193e+02
-3.335035162400000104e+02
-3.334932033700000034e+02
-3.334798257100000001e+02
-3.334632945600000085e+02
-3.334443375899999751e+02
-3.334234052400000223e+02
-3.334010025200000200e+02
-3.333776804699999730e+02
-3.333538863800000058e+02
-3.340921159999999759e+02
-3.340915075099999854e+02
-3.340904351600000268e+02
-3.340890656799999761e+02
-3.340874208600000088e+02
-3.340856896399999982e+02
-3.340840754500000003e+02
-3.340826881799999910e+02
-3.340814153900000179e+02
-3.340807040600000164e+02
-3.338825019700000212e+02
-3.338818804800000066e+02
-3.338787206599999990e+02
-3.338732198299999823e+02
-3.338656692900000280e+02
-3.338562536000000023e+02
-3.338457336399999917e+02
-3.338346067499999776e+02
-3.338231994399999962e+02
-3.338121989100000064e+02
-3.338785472199999731e+02
-3.338669931300000258e+02
-3.338528711399999906e+02
-3.338363666899999771e+02
-3.338182285400000069e+02
-3.337990687099999718e+02
-3.337796710800000142e+02
-3.337608343399999740e+02
-3.337435157300000128e+02
-3.337282553800000073e+02
-3.341305254200000263e+02
-3.341308315499999821e+02
-3.341279316999999764e+02
-3.341215955499999950e+02
-3.341123348300000089e+02
-3.341000257900000179e+02
-3.340850233099999969e+02
-3.340677223999999796e+02
-3.340483184000000279e+02
-3.340274805000000242e+02
-3.343408003399999870e+02
-3.343330382600000235e+02
-3.343216554200000132e+02
-3.343069271900000103e+02
-3.342890453300000217e+02
-3.342683622399999877e+02
-3.342453799400000207e+02
-3.342207843200000070e+02
-3.341954347800000278e+02
-3.341697947000000113e+02
-3.341217084200000045e+02
-3.341223438900000247e+02
-3.341201070600000094e+02
-3.341148520500000245e+02
-3.341067320999999879e+02
-3.340960931399999936e+02
-3.340830019399999742e+02
-3.340681874499999822e+02
-3.340519330199999786e+02
-3.340347110399999906e+02
-3.341059758399999851e+02
-3.341069230400000265e+02
-3.341054027700000120e+02
-3.341009451099999978e+02
-3.340940965500000175e+02
-3.340847505400000159e+02
-3.340732467199999860e+02
-3.340600700400000278e+02
-3.340450986999999827e+02
-3.340288093899999922e+02
-3.339856564500000218e+02
-3.339827250600000070e+02
-3.339750239200000124e+02
-3.339626579700000093e+02
-3.339461903100000200e+02
-3.339259071700000163e+02
-3.339026221400000054e+02
-3.338768133799999873e+02
-3.338493070600000010e+02
-3.338209163999999873e+02
-3.339493365899999731e+02
-3.339492976799999724e+02
-3.339484626899999853e+02
-3.339469680000000267e+02
-3.339451289300000099e+02
-3.339426949100000002e+02
-3.339401814500000114e+02
-3.339378804699999819e+02
-3.339356598300000201e+02
-3.339339693000000011e+02
-3.340786152900000161e+02
-3.340776877399999876e+02
-3.340743146400000114e+02
-3.340686485200000106e+02
-3.340607009999999946e+02
-3.340507004699999811e+02
-3.340391006599999741e+02
-3.340263857200000075e+02
-3.340128002199999742e+02
-3.339987836600000151e+02
-3.340910596599999849e+02
-3.340759482700000262e+02
-3.340563770200000135e+02
-3.340328885100000207e+02
-3.340060730600000056e+02
-3.339766916799999876e+02
-3.339453477700000121e+02
-3.339128083699999934e+02
-3.338796530399999938e+02
-3.338465512899999794e+02
-3.337293607400000042e+02
-3.337373415100000216e+02
-3.337430406899999866e+02
-3.337463551899999743e+02
-3.337474158699999975e+02
-3.337464744299999779e+02
-3.337435188100000119e+02
-3.337389918999999736e+02
-3.337332535099999973e+02
-3.337264756000000148e+02
-3.341015504499999906e+02
-3.340982167899999808e+02
-3.340902922199999807e+02
-3.340778259100000014e+02
-3.340611813699999857e+02
-3.340409101500000020e+02
-3.340173481400000242e+02
-3.339910510999999929e+02
-3.339623885500000142e+02
-3.339322560400000270e+02
-3.339739966899999786e+02
-3.339706518099999926e+02
-3.339642668000000185e+02
-3.339550471499999844e+02
-3.339432575100000236e+02
-3.339291408199999864e+02
-3.339129976400000146e+02
-3.338952908800000046e+02
-3.338762549300000160e+02
-3.338564656300000024e+02
-3.336097842600000263e+02
-3.336088413100000025e+02
-3.336066737300000113e+02
-3.336036450299999956e+02
-3.335997219700000187e+02
-3.335951856199999952e+02
-3.335900473099999886e+02
-3.335846408900000029e+02
-3.335792102099999852e+02
-3.335739527000000066e+02
-3.340019768999999883e+02
-3.339983373399999778e+02
-3.339923521900000196e+02
-3.339843779899999845e+02
-3.339745030199999860e+02
-3.339629606600000216e+02
-3.339500888700000019e+02
-3.339362192199999981e+02
-3.339219511000000011e+02
-3.339075454599999944e+02
-3.340512227199999984e+02
-3.340483648499999845e+02
-3.340450367099999767e+02
-3.340413704800000119e+02
-3.340373484699999835e+02
-3.340332279599999765e+02
-3.340290547999999831e+02
-3.340252824799999871e+02
-3.340221073299999830e+02
-3.340196865500000172e+02
-3.344736106500000119e+02
-3.344712591699999962e+02
-3.344648605699999848e+02
-3.344543399300000033e+02
-3.344399630500000171e+02
-3.344225651500000254e+02
-3.344024627900000155e+02
-3.343800978400000190e+02
-3.343559731799999781e+02
-3.343307487700000138e+02
-3.337344055899999944e+02
-3.337313846999999782e+02
-3.337284764899999914e+02
-3.337260879899999964e+02
-3.337242040699999848e+02
-3.337231692700000281e+02
-3.337234078500000010e+02
-3.337250216499999738e+02
-3.337283452500000180e+02
-3.337334530200000131e+02
-3.330679443099999730e+02
-3.330826163699999825e+02
-3.331020536500000162e+02
-3.331257111699999882e+02
-3.331528472599999873e+02
-3.331827345300000047e+02
-3.332145023599999831e+02
-3.332478714999999738e+02
-3.332827990800000180e+02
-3.333184461299999839e+02
-3.332899863000000096e+02
-3.332953751300000249e+02
-3.332958790700000122e+02
-3.332916214699999955e+02
-3.332830320499999743e+02
-3.332704613399999971e+02
-3.332543176799999856e+02
-3.332354975100000161e+02
-3.332144749199999865e+02
-3.331918148400000064e+02
-3.334745438599999829e+02
-3.334757285499999853e+02
-3.334750292800000011e+02
-3.334725484900000083e+02
-3.334684603800000104e+02
-3.334628717200000096e+02
-3.334561068599999771e+02
-3.334487995700000056e+02
-3.334415162899999814e+02
-3.334343823400000133e+02
-3.340680608100000200e+02
-3.340657541100000003e+02
-3.340608576899999775e+02
-3.340533014499999922e+02
-3.340433056400000282e+02
-3.340314295100000095e+02
-3.340180293799999731e+02
-3.340040035700000089e+02
-3.339897581800000239e+02
-3.339759595200000035e+02
-3.340057046300000252e+02
-3.339999517300000207e+02
-3.339934118599999806e+02
-3.339864260699999932e+02
-3.339790504599999963e+02
-3.339716186100000073e+02
-3.339640569900000173e+02
-3.339567111599999976e+02
-3.339496097200000122e+02
-3.339433113900000194e+02
-3.341439636200000223e+02
-3.341464873699999885e+02
-3.341444050000000061e+02
-3.341378715499999998e+02
-3.341273275400000102e+02
-3.341127498700000160e+02
-3.340949285099999884e+02
-3.340744254699999942e+02
-3.340517949300000282e+02
-3.340278435899999749e+02
-3.332725779599999782e+02
-3.332806235400000219e+02
-3.332880046500000049e+02
-3.332945701900000017e+02
-3.333003184699999792e+02
-3.333053049700000088e+02
-3.333093441199999916e+02
-3.333124708999999939e+02
-3.333146753600000238e+02
-3.333160107200000084e+02
-3.339348906399999919e+02
-3.339351534099999981e+02
-3.339311384200000248e+02
-3.339232060100000012e+02
-3.339112532500000157e+02
-3.338957771699999739e+02
-3.338773026200000231e+02
-3.338560848800000258e+02
-3.338328975800000080e+02
-3.338084304700000189e+02
-3.342774341900000081e+02
-3.342771782199999961e+02
-3.342730678899999930e+02
-3.342650272000000200e+02
-3.342536397499999907e+02
-3.342391257500000279e+02
-3.342219466700000226e+02
-3.342023430899999994e+02
-3.341810077700000079e+02
-3.341581741499999794e+02
-3.337771833900000047e+02
-3.338019218800000090e+02
-3.338276062499999739e+02
-3.338539525699999899e+02
-3.338805298799999832e+02
-3.339073250000000144e+02
-3.339343312400000059e+02
-3.339616352799999959e+02
-3.339888314199999968e+02
-3.340161552999999799e+02
-3.342422574500000110e+02
-3.342380576400000223e+02
-3.342291036299999973e+02
-3.342153456600000254e+02
-3.341974511999999891e+02
-3.341758632899999952e+02
-3.341509801000000266e+02
-3.341232416199999875e+02
-3.340932543800000190e+02
-3.340619718899999953e+02
-3.327039631800000166e+02
-3.327157298299999866e+02
-3.327312485599999832e+02
-3.327501388599999927e+02
-3.327719122600000219e+02
-3.327962663100000213e+02
-3.328229508699999997e+02
-3.328519013499999915e+02
-3.328831452100000092e+02
-3.329162734799999726e+02
-3.325702520300000060e+02
-3.325860757699999795e+02
-3.326020473799999877e+02
-3.326179676400000176e+02
-3.326341660100000013e+02
-3.326502392200000031e+02
-3.326663933300000053e+02
-3.326830835100000172e+02
-3.327003966799999830e+02
-3.327185656400000084e+02
-3.336146244299999921e+02
-3.336160863200000222e+02
-3.336180485500000259e+02
-3.336206260499999985e+02
-3.336238541299999838e+02
-3.336282380100000182e+02
-3.336335984300000064e+02
-3.336404657200000088e+02
-3.336490225000000009e+02
-3.336597298899999942e+02
-3.340273012700000095e+02
-3.340278287200000022e+02
-3.340251704699999777e+02
-3.340194551899999738e+02
-3.340111436000000253e+02
-3.340003943899999967e+02
-3.339876086599999780e+02
-3.339730993000000012e+02
-3.339575471900000139e+02
-3.339415174200000251e+02
-3.342815519399999857e+02
-3.342829500400000029e+02
-3.342809965999999804e+02
-3.342753389299999753e+02
-3.342666689999999790e+02
-3.342550208999999768e+02
-3.342410922299999925e+02
-3.342251698599999941e+02
-3.342076478500000007e+02
-3.341894902700000216e+02
-3.335194820899999968e+02
-3.335234252199999787e+02
-3.335306560000000218e+02
-3.335411877600000139e+02
-3.335549655199999961e+02
-3.335719268700000271e+02
-3.335920738799999867e+02
-3.336158912500000042e+02
-3.336430456800000002e+02
-3.336734602299999892e+02
-3.332481661799999983e+02
-3.332519426700000054e+02
-3.332591294299999731e+02
-3.332694846699999971e+02
-3.332827899100000195e+02
-3.332985331400000177e+02
-3.333166064100000199e+02
-3.333363750899999900e+02
-3.333576793500000122e+02
-3.333801956199999950e+02
-3.339795284599999832e+02
-3.339724845200000232e+02
-3.339636949100000152e+02
-3.339531235300000276e+02
-3.339410754599999791e+02
-3.339279372500000136e+02
-3.339139367999999877e+02
-3.338996089500000153e+02
-3.338856031400000006e+02
-3.338722144600000092e+02
-3.341132550699999797e+02
-3.341212534499999833e+02
-3.341262407799999892e+02
-3.341279592800000273e+02
-3.341265692299999728e+02
-3.341225157499999909e+02
-3.341160715600000231e+02
-3.341075371800000084e+02
-3.340975688199999922e+02
-3.340867226099999812e+02
-3.338511004999999727e+02
-3.338461893300000156e+02
-3.338373906400000237e+02
-3.338249655100000268e+02
-3.338092866100000151e+02
-3.337910731800000121e+02
-3.337709091899999976e+02
-3.337498021999999764e+02
-3.337287040400000251e+02
-3.337087094899999897e+02
-3.338588734499999759e+02
-3.338620084799999859e+02
-3.338632061499999963e+02
-3.338624472600000104e+02
-3.338600370899999916e+02
-3.338564206600000261e+02
-3.338521245499999850e+02
-3.338479856199999745e+02
-3.338445539800000006e+02
-3.338422456399999874e+02
-3.335295462000000271e+02
-3.335280689900000084e+02
-3.335241637500000138e+02
-3.335179451800000265e+02
-3.335094326500000079e+02
-3.334991200900000194e+02
-3.334872105000000033e+02
-3.334742240300000162e+02
-3.334605348599999957e+02
-3.334465511099999731e+02
-3.333813152800000239e+02
-3.333838169499999822e+02
-3.333887697399999865e+02
-3.333964773499999978e+02
-3.334067642300000216e+02
-3.334194391699999755e+02
-3.334347311800000284e+02
-3.334523112200000128e+02
-3.334721968100000140e+02
-3.334938837400000011e+02
-3.333397849300000075e+02
-3.333372033900000133e+02
-3.333370595800000160e+02
-3.333393346799999790e+02
-3.333440892599999756e+02
-3.333516258700000208e+02
-3.333618696199999931e+02
-3.333747785599999816e+02
-3.333902201500000047e+02
-3.334081879299999969e+02
-3.342117229699999825e+02
-3.342200716199999988e+02
-3.342267984900000215e+02
-3.342317926900000202e+02
-3.342350589399999876e+02
-3.342368697100000077e+02
-3.342375881400000139e+02
-3.342376228900000115e+02
-3.342372255199999813e+02
-3.342372841999999764e+02
-3.342656045599999857e+02
-3.342634602200000131e+02
-3.342578536500000155e+02
-3.342490929900000083e+02
-3.342372145599999840e+02
-3.342225744899999995e+02
-3.342052074399999810e+02
-3.341856423300000074e+02
-3.341643871900000136e+02
-3.341419288299999835e+02
-3.341356678099999726e+02
-3.341334218800000144e+02
-3.341264929199999756e+02
-3.341150705900000162e+02
-3.340995445500000187e+02
-3.340805203300000130e+02
-3.340581781800000272e+02
-3.340336829099999818e+02
-3.340074011899999959e+02
-3.339803098200000022e+02
-3.344726929199999859e+02
-3.344700641700000006e+02
-3.344635555899999986e+02