2.026194785210604643e-01 4.105734279179543145e-01 1.066894175166672705e-03 4.105734279179543145e-01 1.188664774752645314e+00 -2.015489677554695103e+00 1.066894175166672705e-03 -2.015489677554695103e+00 4.399582251153414392e-01
1.752238060570348865e-01 5.034293870616977085e-01 -2.441198536398318884e-03 5.034293870616977085e-01 1.056695390170164117e+00 -1.987714263096118872e+00 -2.441198536398318884e-03 -1.987714263096118872e+00 2.204854352170718679e-01
1.576290936428455247e-01 5.943504703284441248e-01 -4.285659652788160155e-03 5.943504703284441248e-01 9.374021550248330392e-01 -1.958691124941160711e+00 -4.285659652788160155e-03 -1.958691124941160711e+00 1.858927478087015958e-02
1.486961152948398091e-01 6.829388527715208879e-01 -4.412240317638442891e-03 6.829388527715208879e-01 8.302606637051289651e-01 -1.928619175563157873e+00 -4.412240317638442891e-03 -1.928619175563157873e+00 -1.666886526557015136e-01
1.480632119705883876e-01 7.687967094442557103e-01 -2.965604147920920895e-03 7.687967094442557103e-01 7.352528332589307603e-01 -1.897769659243931706e+00 -2.965604147920920895e-03 -1.897769659243931706e+00 -3.357100061350725695e-01
1.545007429258313802e-01 8.512188052139115779e-01 -1.446636169717522321e-04 8.512188052139115779e-01 6.520712535001731425e-01 -1.866504235025911562e+00 -1.446636169717522321e-04 -1.866504235025911562e+00 -4.899937536354462830e-01
1.669237310332806201e-01 9.300423935113950602e-01 3.797419945508495945e-03 9.300423935113950602e-01 5.796851961579326806e-01 -1.835293059664256488e+00 3.797419945508495945e-03 -1.835293059664256488e+00 -6.311854437998765111e-01
1.833792174638174122e-01 1.004652653964576148e+00 8.679817018305132845e-03 1.004652653964576148e+00 5.170639329612854995e-01 -1.804461626297151566e+00 8.679817018305132845e-03 -1.804461626297151566e+00 -7.619251876380975785e-01
2.024386489998457606e-01 1.075049586573455285e+00 1.414086855898878149e-02 1.075049586573455285e+00 4.626342470756636405e-01 -1.774606672344606118e+00 1.414086855898878149e-02 -1.774606672344606118e+00 -8.847445984471151714e-01
2.217512418655747108e-01 1.140527956205294569e+00 1.998166209422327921e-02 1.140527956205294569e+00 4.148410046186210010e-01 -1.746017525040563623e+00 1.998166209422327921e-02 -1.746017525040563623e+00 -1.002989022369401351e+00
-1.277795121759502717e+00 -2.451551047083201951e+01 4.953314528136617767e+00 -2.451551047083201951e+01 3.189888415756211515e+01 -1.501456873204639741e+01 4.953314528136617767e+00 -1.501456873204639741e+01 -7.927959977869039676e+01
-1.182035557267008485e+00 -2.450888237095701427e+01 4.994804236193977509e+00 -2.450888237095701427e+01 3.200313940808223379e+01 -1.490624873519408311e+01 4.994804236193977509e+00 -1.490624873519408311e+01 -7.901317579725056817e+01
-9.880812424163404328e-01 -2.450069794928815625e+01 5.028237690259617310e+00 -2.450069794928815625e+01 3.220077396623367605e+01 -1.478342748115667149e+01 5.028237690259617310e+00 -1.478342748115667149e+01 -7.848774324997694407e+01
-6.938082557005909035e-01 -2.449004172241728838e+01 5.054750089759642684e+00 -2.449004172241728838e+01 3.249360048916454247e+01 -1.464540920254397349e+01 5.054750089759642684e+00 -1.464540920254397349e+01 -7.770126976370339378e+01
-2.999856031826058089e-01 -2.447662073565381036e+01 5.075311847106692476e+00 -2.447662073565381036e+01 3.287814013992388595e+01 -1.449142489329313577e+01 5.075311847106692476e+00 -1.449142489329313577e+01 -7.665598911794585035e+01
1.913726516396848099e-01 -2.445909838322181784e+01 5.091113090731361979e+00 -2.445909838322181784e+01 3.335188449397337251e+01 -1.432147455340416187e+01 5.091113090731361979e+00 -1.432147455340416187e+01 -7.535909701229233804e+01
7.793510253581308334e-01 -2.443716340076254312e+01 5.102611562337727058e+00 -2.443716340076254312e+01 3.391177583672977391e+01 -1.413530184752277030e+01 5.102611562337727058e+00 -1.413530184752277030e+01 -7.381487790909301339e+01
1.459024217236885246e+00 -2.440969889851804098e+01 5.110960771020055304e+00 -2.440969889851804098e+01 3.455149733267685974e+01 -1.393325465934405472e+01 5.110960771020055304e+00 -1.393325465934405472e+01 -7.203587393103951797e+01
2.220761341822209189e+00 -2.437597248976179287e+01 5.117277606536290158e+00 -2.437597248976179287e+01 3.526156457370619535e+01 -1.371533298886801866e+01 5.117277606536290158e+00 -1.371533298886801866e+01 -7.004592426608010669e+01
3.064617328118591999e+00 -2.433559967146237568e+01 5.121800094572551920e+00 -2.433559967146237568e+01 3.603983532864270956e+01 -1.348336780291096204e+01 5.121800094572551920e+00 -1.348336780291096204e+01 -6.785295700052932943e+01
-1.039707130114126841e+02 -1.469671214903631551e+01 7.127315445149999817e+00 -1.469671214903631551e+01 -7.506277073716414350e+01 -1.059066781120723277e+01 7.127315445149999817e+00 -1.059066781120723277e+01 -6.447081196835515016e+01
-1.039186648795321730e+02 -1.472367881893976360e+01 7.039222957372701650e+00 -1.472367881893976360e+01 -7.497494463746339477e+01 -1.054665230440433987e+01 7.039222957372701650e+00 -1.054665230440433987e+01 -6.426608248582829219e+01
-1.037931960954753237e+02 -1.474701851272398123e+01 6.946048604750376221e+00 -1.474701851272398123e+01 -7.482529601261165908e+01 -1.049269847320693927e+01 6.946048604750376221e+00 -1.049269847320693927e+01 -6.384486146262518247e+01
-1.036001262141453054e+02 -1.476777629130467240e+01 6.846542412462271798e+00 -1.476777629130467240e+01 -7.461825100295783386e+01 -1.042905221430108043e+01 6.846542412462271798e+00 -1.042905221430108043e+01 -6.322079616482159992e+01
-1.033426928752418092e+02 -1.478578822355781242e+01 6.740437992431834502e+00 -1.478578822355781242e+01 -7.435719068793508768e+01 -1.035606188132533312e+01 6.740437992431834502e+00 -1.035606188132533312e+01 -6.240267739894380128e+01
-1.030132732814972485e+02 -1.480027563664424051e+01 6.628063206907130578e+00 -1.480027563664424051e+01 -7.403570126231564075e+01 -1.027405533652776448e+01 6.628063206907130578e+00 -1.027405533652776448e+01 -6.137280060359623235e+01
-1.026154739176403723e+02 -1.481136147890697963e+01 6.508905771125556683e+00 -1.481136147890697963e+01 -7.365812690088634440e+01 -1.018358584745198669e+01 6.508905771125556683e+00 -1.018358584745198669e+01 -6.014432125148252339e+01
-1.021540487862681488e+02 -1.481879985365998387e+01 6.383088633430135772e+00 -1.481879985365998387e+01 -7.322784868308040984e+01 -1.008477636244102271e+01 6.383088633430135772e+00 -1.008477636244102271e+01 -5.872730061534023349e+01
-1.016198792186062292e+02 -1.482211945892165339e+01 6.250386388525325465e+00 -1.482211945892165339e+01 -7.274011260630086895e+01 -9.978426045724537730e+00 6.250386388525325465e+00 -9.978426045724537730e+00 -5.710657506619627810e+01
-1.010419195494369546e+02 -1.482150471720652973e+01 6.110307243039023284e+00 -1.482150471720652973e+01 -7.221995914974378650e+01 -9.864186543663954865e+00 6.110307243039023284e+00 -9.864186543663954865e+00 -5.535591360986558129e+01
-2.497006570135382830e+01 -8.880101711529496455e+00 5.087212840357653754e+00 -8.880101711529496455e+00 -8.662656153737984255e+01 -6.182153285686310618e+00 5.087212840357653754e+00 -6.182153285686310618e+00 -7.575740426164965413e+01
-2.496406148230949640e+01 -8.809334879832599441e+00 5.023793276701852051e+00 -8.809334879832599441e+00 -8.651785357152449762e+01 -6.185056641605775951e+00 5.023793276701852051e+00 -6.185056641605775951e+00 -7.553706522329895279e+01
-2.488345879178339004e+01 -8.732820588458395150e+00 4.955732293719013803e+00 -8.732820588458395150e+00 -8.632550130417979517e+01 -6.188137754010106129e+00 4.955732293719013803e+00 -6.188137754010106129e+00 -7.507286403843370692e+01
-2.472879089923010909e+01 -8.650677341730123260e+00 4.883029891409140788e+00 -8.650677341730123260e+00 -8.604930722814033572e+01 -6.192324906764709702e+00 4.883029891409140788e+00 -6.192324906764709702e+00 -7.436728929784203501e+01
-2.450138110292587257e+01 -8.563023643971030552e+00 4.805587316169527945e+00 -8.563023643971030552e+00 -8.568838256098177908e+01 -6.198269873647424433e+00 4.805587316169527945e+00 -6.198269873647424433e+00 -7.342239507646016250e+01
-2.420223668961825325e+01 -8.469898996622198695e+00 4.723977338895852363e+00 -8.469898996622198695e+00 -8.524565040934415094e+01 -6.206189912584195945e+00 4.723977338895852363e+00 -6.206189912584195945e+00 -7.224471886278702470e+01
-2.383110089994021763e+01 -8.371816918417678721e+00 4.637864197338924299e+00 -8.371816918417678721e+00 -8.471802966082309183e+01 -6.216499788706378204e+00 4.637864197338924299e+00 -6.216499788706378204e+00 -7.083167331243178921e+01
-2.340006117486260706e+01 -8.268698406475312623e+00 4.547998418879287463e+00 -8.268698406475312623e+00 -8.411938532123812706e+01 -6.229495762822080174e+00 4.547998418879287463e+00 -6.229495762822080174e+00 -6.921859246444155644e+01
-2.289977542356972506e+01 -8.161609999704289464e+00 4.453886235503425439e+00 -8.161609999704289464e+00 -8.343804471474975060e+01 -6.244664316197245491e+00 4.453886235503425439e+00 -6.244664316197245491e+00 -6.738380977838332342e+01
-2.234618247753781617e+01 -8.050591199545690912e+00 4.356613936841069901e+00 -8.050591199545690912e+00 -8.269245501434286894e+01 -6.262123953155118272e+00 4.356613936841069901e+00 -6.262123953155118272e+00 -6.537225814348690278e+01
-5.537386817466523503e+00 -6.513557162083051466e+00 4.465262399770762158e+01 -6.513557162083051466e+00 1.000166757233455854e+02 8.211751358929788580e+00 4.465262399770762158e+01 8.211751358929788580e+00 1.167572909326842847e+02
-5.911750487188661474e+00 -6.339675585956495496e+00 4.439906100054320603e+01 -6.339675585956495496e+00 9.938816556123713042e+01 8.133048150469820214e+00 4.439906100054320603e+01 8.133048150469820214e+00 1.155416644459740070e+02
-6.363530243557749877e+00 -6.168042182596675360e+00 4.408697686494693357e+01 -6.168042182596675360e+00 9.821559758957832287e+01 7.979159866505467491e+00 4.408697686494693357e+01 7.979159866505467491e+00 1.135671680999328856e+02
-6.887663407442586205e+00 -6.002226569831694114e+00 4.371498149936074640e+01 -6.002226569831694114e+00 9.652828386245762715e+01 7.755029054798713517e+00 4.371498149936074640e+01 7.755029054798713517e+00 1.108737713172611308e+02
-7.476718995576017157e+00 -5.846982517557629322e+00 4.328170197385076534e+01 -5.846982517557629322e+00 9.437285251275461917e+01 7.469082072818780560e+00 4.328170197385076534e+01 7.469082072818780560e+00 1.075243199656823663e+02
-8.117705658458653772e+00 -5.706016936595969646e+00 4.278792772312895920e+01 -5.706016936595969646e+00 9.181997510881600988e+01 7.131821834559890050e+00 4.278792772312895920e+01 7.131821834559890050e+00 1.036135976955071527e+02
-8.807448495618388051e+00 -5.584976001299818194e+00 4.223932208317262393e+01 -5.584976001299818194e+00 8.895592313536234030e+01 6.757990175187131854e+00 4.223932208317262393e+01 6.757990175187131854e+00 9.925905866257940602e+01
-9.528116579538886910e+00 -5.486022076315045126e+00 4.164281835014786282e+01 -5.486022076315045126e+00 8.588817984459262789e+01 6.362792293718286807e+00 4.164281835014786282e+01 6.362792293718286807e+00 9.461009480532996463e+01
-1.026395553922881554e+01 -5.410528091575534937e+00 4.100984616575427566e+01 -5.410528091575534937e+00 8.272990898630735046e+01 5.961999722768858589e+00 4.100984616575427566e+01 5.961999722768858589e+00 8.982486765214243007e+01
-1.099988030703961250e+01 -5.358167976221989370e+00 4.035398037471316002e+01 -5.358167976221989370e+00 7.958857665108141077e+01 5.569633509288651751e+00 4.035398037471316002e+01 5.569633509288651751e+00 8.505609849653734500e+01
1.069613448456579761e+02 -4.300804069797034401e+01 3.001380056245501393e+01 -4.300804069797034401e+01 1.298346517359299241e+02 5.773766003186608486e+01 3.001380056245501393e+01 5.773766003186608486e+01 1.247475041178386164e+02
1.068072810873095193e+02 -4.318487503793318183e+01 2.993957877273743762e+01 -4.318487503793318183e+01 1.297790457823836334e+02 5.764309931387484198e+01 2.993957877273743762e+01 5.764309931387484198e+01 1.245261753528400561e+02
1.063645430389898223e+02 -4.328777745413958655e+01 2.980632094893336514e+01 -4.328777745413958655e+01 1.294122687195484218e+02 5.734049535410417064e+01 2.980632094893336514e+01 5.734049535410417064e+01 1.235793120870960422e+02
1.056372693424775235e+02 -4.331570120839653271e+01 2.961515434755837006e+01 -4.331570120839653271e+01 1.287389745064670592e+02 5.683424445296478211e+01 2.961515434755837006e+01 5.683424445296478211e+01 1.219151110858411897e+02
1.046348645378452602e+02 -4.326945148392942286e+01 2.936714181046997396e+01 -4.326945148392942286e+01 1.277699364946955001e+02 5.613162546681428466e+01 2.936714181046997396e+01 5.613162546681428466e+01 1.195527357098400358e+02
1.033704531116671319e+02 -4.315220070264636121e+01 2.906418357008012876e+01 -4.315220070264636121e+01 1.265210167937740806e+02 5.524503821732388786e+01 2.906418357008012876e+01 5.524503821732388786e+01 1.165271953257331319e+02
1.018690601585885958e+02 -4.296952073246709602e+01 2.870930711531634927e+01 -4.296952073246709602e+01 1.250208960301916790e+02 5.419238997942652247e+01 2.870930711531634927e+01 5.419238997942652247e+01 1.128969462356846236e+02
1.001635049468770831e+02 -4.273015586321952242e+01 2.830776224080825543e+01 -4.273015586321952242e+01 1.233067736689618812e+02 5.299907623205140084e+01 2.830776224080825543e+01 5.299907623205140084e+01 1.087446646532788463e+02
9.829490013202160981e+01 -4.244581345900097347e+01 2.786702104688758652e+01 -4.244581345900097347e+01 1.214245451539326126e+02 5.169752975551771357e+01 2.786702104688758652e+01 5.169752975551771357e+01 1.041777298134554144e+02
9.632189526016050252e+01 -4.212923151843732228e+01 2.739701949455579566e+01 -4.212923151843732228e+01 1.194367088070596026e+02 5.032441859391026640e+01 2.739701949455579566e+01 5.032441859391026640e+01 9.933178288236560149e+01
-1.121667647826754610e+01 4.247062608098343617e+01 1.447478879796118179e+01 4.247062608098343617e+01 7.877735553757746345e+01 2.433410869298296930e+01 1.447478879796118179e+01 2.433410869298296930e+01 4.824909699734843826e+01
-1.134924283495217701e+01 4.238746922465782063e+01 1.424131398407567772e+01 4.238746922465782063e+01 7.866029329916467816e+01 2.436292212229680842e+01 1.424131398407567772e+01 2.436292212229680842e+01 4.792700464674937422e+01
-1.150990272417924842e+01 4.228204824379231752e+01 1.398439862897507879e+01 4.228204824379231752e+01 7.835221259792116655e+01 2.427793918635592973e+01 1.398439862897507879e+01 2.427793918635592973e+01 4.731772615973523699e+01
-1.169716367703244053e+01 4.215617165954435563e+01 1.370741395656447281e+01 4.215617165954435563e+01 7.785543115028166028e+01 2.407838731301542268e+01 1.370741395656447281e+01 2.407838731301542268e+01 4.642605499529607727e+01
-1.191085010893336538e+01 4.201194648685461175e+01 1.341266012482077485e+01 4.201194648685461175e+01 7.717725327470718355e+01 2.376591699731215002e+01 1.341266012482077485e+01 2.376591699731215002e+01 4.526213994206284497e+01
-1.214969781091761014e+01 4.185223475435084595e+01 1.310398243601072998e+01 4.185223475435084595e+01 7.632545736802045155e+01 2.334382922931984794e+01 1.310398243601072998e+01 2.334382922931984794e+01 4.384015067551163725e+01
-1.241344340611759023e+01 4.167949464613052157e+01 1.278327720358095476e+01 4.167949464613052157e+01 7.531380926116723629e+01 2.281807632624595072e+01 1.278327720358095476e+01 2.281807632624595072e+01 4.218049012365140271e+01
-1.270041884103860141e+01 4.149723785376145457e+01 1.245465310666578063e+01 4.149723785376145457e+01 7.415697026644313894e+01 2.219722681551589716e+01 1.245465310666578063e+01 2.219722681551589716e+01 4.030651103540803604e+01
-1.301043097264441073e+01 4.130844931507627393e+01 1.211995378333830331e+01 4.130844931507627393e+01 7.287578227330305936e+01 2.149207914870068592e+01 1.211995378333830331e+01 2.149207914870068592e+01 3.824888803662631886e+01
-1.333970473249963007e+01 4.111678118930547754e+01 1.178325279581717666e+01 4.111678118930547754e+01 7.149215823713012696e+01 2.071617089679421397e+01 1.178325279581717666e+01 2.071617089679421397e+01 3.604133336635717200e+01
-6.795162898166500653e+00 -3.151186812639314994e+01 -4.486926597449970444e+01 -3.151186812639314994e+01 -9.955741937379054107e+00 -5.139040993318185002e+01 -4.486926597449970444e+01 -5.139040993318185002e+01 7.076386433811079257e+01
-6.735714041692646425e+00 -3.149252582749135243e+01 -4.487271149240021373e+01 -3.149252582749135243e+01 -1.011053501935375465e+01 -5.119075219748676631e+01 -4.487271149240021373e+01 -5.119075219748676631e+01 7.063608849173691340e+01
-6.823675014549546169e+00 -3.140762753721268652e+01 -4.476859851499384746e+01 -3.140762753721268652e+01 -1.039596609749271039e+01 -5.092429881318076923e+01 -4.476859851499384746e+01 -5.092429881318076923e+01 7.015929444321891140e+01
-7.059993789916173768e+00 -3.125888689938067344e+01 -4.455514047744328820e+01 -3.125888689938067344e+01 -1.081037621873271526e+01 -5.059316448966310986e+01 -4.455514047744328820e+01 -5.059316448966310986e+01 6.933466715903053057e+01
-7.443211947517183624e+00 -3.104923898479946587e+01 -4.423180870239873741e+01 -3.104923898479946587e+01 -1.134798639273270560e+01 -5.019975562038811034e+01 -4.423180870239873741e+01 -5.019975562038811034e+01 6.817059255575500742e+01
-7.969719897171088974e+00 -3.078300436353477210e+01 -4.379942355126507181e+01 -3.078300436353477210e+01 -1.200066592645761787e+01 -4.974693435514613782e+01 -4.379942355126507181e+01 -4.974693435514613782e+01 6.668192828994743593e+01
-8.633045898906038573e+00 -3.046627194023616525e+01 -4.326090186459298792e+01 -3.046627194023616525e+01 -1.275738551657513398e+01 -4.923781806727574661e+01 -4.326090186459298792e+01 -4.923781806727574661e+01 6.488982145560036940e+01
-9.427629725422265849e+00 -3.010766462478164485e+01 -4.262328052021103986e+01 -3.010766462478164485e+01 -1.360870189180238121e+01 -4.867824043787833688e+01 -4.262328052021103986e+01 -4.867824043787833688e+01 6.281087981359932826e+01
-1.032700104872221480e+01 -2.971472974209613227e+01 -4.189275780428945950e+01 -2.971472974209613227e+01 -1.452581125170124388e+01 -4.807170167561473306e+01 -4.189275780428945950e+01 -4.807170167561473306e+01 6.050783366603769053e+01
-1.132600070708184248e+01 -2.929928049640994558e+01 -4.108302463716305652e+01 -2.929928049640994558e+01 -1.550102042931926505e+01 -4.742718929543177353e+01 -4.108302463716305652e+01 -4.742718929543177353e+01 5.800257754729911142e+01
3.249535008291926630e+01 3.662695566494758026e+01 3.965176641976752592e+01 3.662695566494758026e+01 1.310605393308896964e+02 -2.711559766392656101e+01 3.965176641976752592e+01 -2.711559766392656101e+01 1.730867915274458255e+02
3.218652667030013248e+01 3.649057641757310932e+01 3.946572563179854853e+01 3.649057641757310932e+01 1.306966190327473782e+02 -2.694777932415310318e+01 3.946572563179854853e+01 -2.694777932415310318e+01 1.724309320796542977e+02
3.162288635743826504e+01 3.630000892896445208e+01 3.916693034796880113e+01 3.630000892896445208e+01 1.295814646780803230e+02 -2.664320175848433792e+01 3.916693034796880113e+01 -2.664320175848433792e+01 1.707410023893839650e+02
3.080998013489911713e+01 3.606394314268537471e+01 3.875853604208183611e+01 3.606394314268537471e+01 1.277475561700185125e+02 -2.621235567825674906e+01 3.875853604208183611e+01 -2.621235567825674906e+01 1.680426262255842573e+02
2.976839292602957698e+01 3.579144898082051185e+01 3.824639107919770709e+01 3.579144898082051185e+01 1.252607950007214868e+02 -2.567263749140315099e+01 3.824639107919770709e+01 -2.567263749140315099e+01 1.643917430348463427e+02
2.852389718702639598e+01 3.549927853989773752e+01 3.764103573306866934e+01 3.549927853989773752e+01 1.222219085198248365e+02 -2.504950575882045172e+01 3.764103573306866934e+01 -2.504950575882045172e+01 1.599040480163662892e+02
2.711315258474891721e+01 3.520388654195037503e+01 3.695879255928598894e+01 3.520388654195037503e+01 1.187648474163307100e+02 -2.437474650981798163e+01 3.695879255928598894e+01 -2.437474650981798163e+01 1.547336802831669047e+02
2.558593630542844011e+01 3.492248766605342780e+01 3.622214637380081115e+01 3.492248766605342780e+01 1.150552658045241685e+02 -2.368369774683474560e+01 3.622214637380081115e+01 -2.368369774683474560e+01 1.490947659921495756e+02
2.399760956747221030e+01 3.466985151210425897e+01 3.545749742340954924e+01 3.466985151210425897e+01 1.112673260133963424e+02 -2.301042537030516755e+01 3.545749742340954924e+01 -2.301042537030516755e+01 1.432318130610783271e+02
2.240328577720865866e+01 3.445640270821835571e+01 3.469155985020844923e+01 3.445640270821835571e+01 1.075614946243825472e+02 -2.238273389547227410e+01 3.469155985020844923e+01 -2.238273389547227410e+01 1.373869834533710730e+02
4.757666970154487984e+01 -4.182753855598728876e+01 4.021217169565417748e+01 -4.182753855598728876e+01 2.252453012720233261e+01 4.482636727820112554e+01 4.021217169565417748e+01 4.482636727820112554e+01 -6.037559381894595845e+01
4.750636268242452331e+01 -4.188591140929798939e+01 3.997974390141857981e+01 -4.188591140929798939e+01 2.254408990047043559e+01 4.470936918740852661e+01 3.997974390141857981e+01 4.470936918740852661e+01 -6.052718656863393676e+01
4.750668717635891625e+01 -4.195903070918316757e+01 3.971749872009963411e+01 -4.195903070918316757e+01 2.265667126826701860e+01 4.457573176875743570e+01 3.971749872009963411e+01 4.457573176875743570e+01 -6.054180682312281192e+01
4.757778740287449182e+01 -4.204577875431321132e+01 3.942511165776291904e+01 -4.204577875431321132e+01 2.286216606594727452e+01 4.442529277528065990e+01 3.942511165776291904e+01 4.442529277528065990e+01 -6.041920219824137916e+01
4.771989771870161690e+01 -4.214581302331292534e+01 3.910305142786926780e+01 -4.214581302331292534e+01 2.315949264706320321e+01 4.425679028612218957e+01 3.910305142786926780e+01 4.425679028612218957e+01 -6.016009379162164805e+01
4.793159395601711026e+01 -4.225743893674709994e+01 3.875148027738585910e+01 -4.225743893674709994e+01 2.354684826753479499e+01 4.407022430128203894e+01 3.875148027738585910e+01 4.407022430128203894e+01 -5.976556324971161160e+01
4.821141589211615042e+01 -4.237941260120052789e+01 3.837117338626710250e+01 -4.237941260120052789e+01 2.402080771361003642e+01 4.386399037852897465e+01 3.837117338626710250e+01 4.386399037852897465e+01 -5.923921606067131052e+01
4.855720023410273001e+01 -4.250897581823079463e+01 3.796299607167139811e+01 -4.250897581823079463e+01 2.457810801850410698e+01 4.363807049042220854e+01 3.796299607167139811e+01 4.363807049042220854e+01 -5.858310735275193792e+01
4.896453025898082956e+01 -4.264414556934989520e+01 3.752871502279716509e+01 -4.264414556934989520e+01 2.521175453518656795e+01 4.339122074354654046e+01 3.752871502279716509e+01 4.339122074354654046e+01 -5.780516919990552793e+01
4.942951203953761308e+01 -4.278102792734499360e+01 3.707006087396120364e+01 -4.278102792734499360e+01 2.591529343985098777e+01 4.312376563183636335e+01 3.707006087396120364e+01 4.312376563183636335e+01 -5.691032309347052376e+01
2.707256204245326714e+01 -2.075603858552670289e+01 -7.005468152104366020e+00 -2.075603858552670289e+01 8.430585912515432767e+01 3.768867974099659346e+00 -7.005468152104366020e+00 3.768867974099659346e+00 1.032411491817457971e+02
2.709732813894576609e+01 -2.075505607280675591e+01 -7.045971391990526023e+00 -2.075505607280675591e+01 8.415666965059247673e+01 3.940841579839640119e+00 -7.045971391990526023e+00 3.940841579839640119e+00 1.031158788099523491e+02
2.698513535025231747e+01 -2.072083752635336751e+01 -7.063063725342736632e+00 -2.072083752635336751e+01 8.370713620146698020e+01 4.068161676445403607e+00 -7.063063725342736632e+00 4.068161676445403607e+00 1.024598652307673206e+02
2.673367985344338749e+01 -2.065468731650165068e+01 -7.055322202704521040e+00 -2.065468731650165068e+01 8.296193418313488621e+01 4.151759957013450020e+00 -7.055322202704521040e+00 4.151759957013450020e+00 1.012771570741918623e+02
2.634226711366521201e+01 -2.055806227245704321e+01 -7.022001469598674994e+00 -2.055806227245704321e+01 8.193261658999280428e+01 4.192839152631993471e+00 -7.022001469598674994e+00 4.192839152631993471e+00 9.957939203399503469e+01
2.581418346656728247e+01 -2.043326621714907887e+01 -6.962610269665226781e+00 -2.043326621714907887e+01 8.063732602761081125e+01 4.192720573510619886e+00 -6.962610269665226781e+00 4.192720573510619886e+00 9.739099740917970394e+01
2.515230869081151610e+01 -2.028424614133203718e+01 -6.877572099766220859e+00 -2.028424614133203718e+01 7.909938870315046699e+01 4.153318425465782227e+00 -6.877572099766220859e+00 4.153318425465782227e+00 9.474398956251660309e+01
2.436314769819895076e+01 -2.011513537437949495e+01 -6.768157450487798599e+00 -2.011513537437949495e+01 7.735024502365011756e+01 4.077326148540096895e+00 -6.768157450487798599e+00 4.077326148540096895e+00 9.168337774050408484e+01
2.345569556207945894e+01 -1.993121915712979231e+01 -6.636619325136049241e+00 -1.993121915712979231e+01 7.542773866870227550e+01 3.967792920140301938e+00 -6.636619325136049241e+00 3.967792920140301938e+00 8.826618156064812126e+01
2.244460527387986915e+01 -1.973813846778539727e+01 -6.486091600490119902e+00 -1.973813846778539727e+01 7.337606577083015225e+01 3.828818189891010082e+00 -6.486091600490119902e+00 3.828818189891010082e+00 8.456348073627466988e+01
5.530237689669262835e+01 7.310804788467829551e-01 -5.675283148542022982e-01 7.310804788467829551e-01 2.544764185973138737e+01 2.609259184206499427e+01 -5.675283148542022982e-01 2.609259184206499427e+01 -5.558212364113369119e+01
5.539022787470534581e+01 7.733298286602876548e-01 -4.961372010845313540e-01 7.733298286602876548e-01 2.546458062088667873e+01 2.605564583213152829e+01 -4.961372010845313540e-01 2.605564583213152829e+01 -5.543753224748142117e+01
5.554696906039045956e+01 8.125106908508972214e-01 -4.257038811393478173e-01 8.125106908508972214e-01 2.555530498037285625e+01 2.598879537056683020e+01 -4.257038811393478173e-01 2.598879537056683020e+01 -5.510072582279266129e+01
5.577284877066542634e+01 8.484279592691789107e-01 -3.560687227145705180e-01 8.484279592691789107e-01 2.572011646587541023e+01 2.589243066966978191e+01 -3.560687227145705180e-01 2.589243066966978191e+01 -5.457143831322725447e+01
5.606646578863887953e+01 8.808687908430244962e-01 -2.874090950369564412e-01 8.808687908430244962e-01 2.595807502049252946e+01 2.576672909866713468e+01 -2.874090950369564412e-01 2.576672909866713468e+01 -5.385225930949586370e+01
5.642730574355321238e+01 9.095316578869470092e-01 -2.197604719518569671e-01 9.095316578869470092e-01 2.626884364269337624e+01 2.561177934217226593e+01 -2.197604719518569671e-01 2.561177934217226593e+01 -5.294678940690165092e+01
5.685373683852226634e+01 9.342037173288382235e-01 -1.533534334540561095e-01 9.342037173288382235e-01 2.665142906480810936e+01 2.542756366326250372e+01 -1.533534334540561095e-01 2.542756366326250372e+01 -5.185880656997453997e+01
5.734355969513424611e+01 9.544060722564544630e-01 -8.825892723425668440e-02 9.544060722564544630e-01 2.710393343611043093e+01 2.521408206193784096e+01 -8.825892723425668440e-02 2.521408206193784096e+01 -5.059547651547551084e+01
5.789427340729189808e+01 9.699613534430387984e-01 -2.477848097794545582e-02 9.699613534430387984e-01 2.762431701049263921e+01 2.497140548588898668e+01 -2.477848097794545582e-02 2.497140548588898668e+01 -4.916346832633062292e+01
5.850202906277456805e+01 9.804438747443743329e-01 3.691053608812060877e-02 9.804438747443743329e-01 2.820935166802775029e+01 2.469956940896128827e+01 3.691053608812060877e-02 2.469956940896128827e+01 -4.757175688541378378e+01
6.206473008984789885e+01 2.199658057861791960e+01 -3.406537004698602544e+01 2.199658057861791960e+01 4.810049775804188954e+01 -4.760056431055081561e+01 -3.406537004698602544e+01 -4.760056431055081561e+01 -4.600466407126660329e+01
6.235739716015054057e+01 2.195529217615523265e+01 -3.406829917324399304e+01 2.195529217615523265e+01 4.823590407367993294e+01 -4.741841475253254146e+01 -3.406829917324399304e+01 -4.741841475253254146e+01 -4.551265855831806562e+01
6.270480556608870160e+01 2.189407869926704819e+01 -3.400613855373347860e+01 2.189407869926704819e+01 4.844203037178592552e+01 -4.717249092461013760e+01 -3.400613855373347860e+01 -4.717249092461013760e+01 -4.489263093425009288e+01
6.310434189561188845e+01 2.181178252919273675e+01 -3.387851985521243847e+01 2.181178252919273675e+01 4.871752609713912818e+01 -4.686316116002561927e+01 -3.387851985521243847e+01 -4.686316116002561927e+01 -4.414693151594033793e+01
6.355419956186634778e+01 2.170784239623016987e+01 -3.368561847446280666e+01 2.170784239623016987e+01 4.906151426582997033e+01 -4.649133752204493675e+01 -3.368561847446280666e+01 -4.649133752204493675e+01 -4.327740196959889829e+01
6.405178269247977596e+01 2.158196012585008816e+01 -3.342867972863616899e+01 2.158196012585008816e+01 4.947248646553397577e+01 -4.605856350234895302e+01 -3.342867972863616899e+01 -4.605856350234895302e+01 -4.228705911987470500e+01
6.459249589176599216e+01 2.143429357515621803e+01 -3.310980837911549202e+01 2.143429357515621803e+01 4.994635595123254035e+01 -4.556722449717169354e+01 -3.310980837911549202e+01 -4.556722449717169354e+01 -4.118279606029701512e+01
6.517226995438456072e+01 2.126542155352888130e+01 -3.273230188540077990e+01 2.126542155352888130e+01 5.047947446986185582e+01 -4.502065304536953505e+01 -3.273230188540077990e+01 -4.502065304536953505e+01 -3.997154096375143695e+01
6.578468535811745710e+01 2.107688755264891967e+01 -3.230063286543085610e+01 2.107688755264891967e+01 5.106551019759479004e+01 -4.442318144745576802e+01 -3.230063286543085610e+01 -4.442318144745576802e+01 -3.866516819237358504e+01
6.642374353302314205e+01 2.087065601647377733e+01 -3.182058941300889288e+01 2.087065601647377733e+01 5.169813131060422506e+01 -4.378010668624422408e+01 -3.182058941300889288e+01 -4.378010668624422408e+01 -3.727565734636824146e+01