 vasp.6.1.1 19Jun20 (build Dec 21 2021 08:45:49) complex                        
  
 executed on             LinuxIFC date 2023.10.06  16:54:18
 running on   40 total cores
 distrk:  each k-point on   40 cores,    1 groups
 distr:  one band on NCORE=   1 cores,   40 groups


--------------------------------------------------------------------------------------------------------


 INCAR:
 POTCAR:   PAW_PBE Te 08Apr2002                   
 POTCAR:   PAW_PBE Mo 08Apr2002                   
 -----------------------------------------------------------------------------
|                                                                             |
|           W    W    AA    RRRRR   N    N  II  N    N   GGGG   !!!           |
|           W    W   A  A   R    R  NN   N  II  NN   N  G    G  !!!           |
|           W    W  A    A  R    R  N N  N  II  N N  N  G       !!!           |
|           W WW W  AAAAAA  RRRRR   N  N N  II  N  N N  G  GGG   !            |
|           WW  WW  A    A  R   R   N   NN  II  N   NN  G    G                |
|           W    W  A    A  R    R  N    N  II  N    N   GGGG   !!!           |
|                                                                             |
|     For optimal performance we recommend to set                             |
|       NCORE = 4 - approx SQRT(number of cores).                             |
|     NCORE specifies how many cores store one orbital (NPAR=cpu/NCORE).      |
|     This setting can greatly improve the performance of VASP for DFT.       |
|     The default, NCORE=1 might be grossly inefficient on modern             |
|     multi-core architectures or massively parallel machines. Do your        |
|     own testing!!!!                                                         |
|     Unfortunately you need to use the default for GW and RPA                |
|     calculations (for HF NCORE is supported but not extensively tested      |
|     yet).                                                                   |
|                                                                             |
 -----------------------------------------------------------------------------

 POTCAR:   PAW_PBE Te 08Apr2002                   
   VRHFIN =Te: s2p4                                                                                 
   LEXCH  = PE                                                                                      
   EATOM  =   223.2721 eV,   16.4100 Ry                                                             
                                                                                                    
   TITEL  = PAW_PBE Te 08Apr2002                                                                    
   LULTRA =        F    use ultrasoft PP ?                                                          
   IUNSCR =        1    unscreen: 0-lin 1-nonlin 2-no                                               
   RPACOR =    2.200    partial core radius                                                         
   POMASS =  127.600; ZVAL   =    6.000    mass and valenz                                          
   RCORE  =    2.300    outmost cutoff radius                                                       
   RWIGS  =    2.900; RWIGS  =    1.535    wigner-seitz radius (au A)                               
   ENMAX  =  174.982; ENMIN  =  131.236 eV                                                          
   ICORE  =        3    local potential                                                             
   LCOR   =        T    correct aug charges                                                         
   LPAW   =        T    paw PP                                                                      
   EAUG   =  368.792                                                                                
   DEXC   =    -.169                                                                                
   RMAX   =    3.486    core radius for proj-oper                                                   
   RAUG   =    1.300    factor for augmentation sphere                                              
   RDEP   =    2.397    radius for radial grids                                                     
   QCUT   =   -3.586; QGAM   =    7.172    optimization parameters                                  
                                                                                                    
   Description                                                                                      
     l     E      TYP  RCUT    TYP  RCUT                                                            
     0   .000     23  2.300                                                                         
     0   .000     23  2.300                                                                         
     1   .000     23  2.300                                                                         
     1   .000     23  2.300                                                                         
     2   .000     23  2.300                                                                         
     3  -.100     23  2.300                                                                         
  local pseudopotential read in
  partial core-charges read in
  atomic valenz-charges read in
  non local Contribution for L=           0  read in
    real space projection operators read in
  non local Contribution for L=           0  read in
    real space projection operators read in
  non local Contribution for L=           1  read in
    real space projection operators read in
  non local Contribution for L=           1  read in
    real space projection operators read in
  non local Contribution for L=           2  read in
    real space projection operators read in
    PAW grid and wavefunctions read in
 
   number of l-projection  operators is LMAX  =           5
   number of lm-projection operators is LMMAX =          13
 
 POTCAR:   PAW_PBE Mo 08Apr2002                   
   VRHFIN =Mo: 4p5s4d                                                                               
   LEXCH  = PE                                                                                      
   EATOM  =   217.5180 eV,   15.9871 Ry                                                             
                                                                                                    
   TITEL  = PAW_PBE Mo 08Apr2002                                                                    
   LULTRA =        F    use ultrasoft PP ?                                                          
   IUNSCR =        1    unscreen: 0-lin 1-nonlin 2-no                                               
   RPACOR =    2.200    partial core radius                                                         
   POMASS =   95.940; ZVAL   =    6.000    mass and valenz                                          
   RCORE  =    2.750    outmost cutoff radius                                                       
   RWIGS  =    2.750; RWIGS  =    1.455    wigner-seitz radius (au A)                               
   ENMAX  =  224.584; ENMIN  =  168.438 eV                                                          
   RCLOC  =    2.111    cutoff for local pot                                                        
   LCOR   =        T    correct aug charges                                                         
   LPAW   =        T    paw PP                                                                      
   EAUG   =  345.278                                                                                
   DEXC   =    -.088                                                                                
   RMAX   =    3.077    core radius for proj-oper                                                   
   RAUG   =    1.300    factor for augmentation sphere                                              
   RDEP   =    2.815    radius for radial grids                                                     
   QCUT   =   -4.063; QGAM   =    8.126    optimization parameters                                  
                                                                                                    
   Description                                                                                      
     l     E      TYP  RCUT    TYP  RCUT                                                            
     2   .000     23  2.500                                                                         
     2   .000     23  2.500                                                                         
     0   .000     23  2.600                                                                         
     0  1.000     23  2.600                                                                         
     1   .400     23  2.750                                                                         
     1  2.000     23  2.750                                                                         
     3   .000      7   .000                                                                         
  local pseudopotential read in
  partial core-charges read in
  atomic valenz-charges read in
  non local Contribution for L=           2  read in
    real space projection operators read in
  non local Contribution for L=           2  read in
    real space projection operators read in
  non local Contribution for L=           0  read in
    real space projection operators read in
  non local Contribution for L=           0  read in
    real space projection operators read in
  non local Contribution for L=           1  read in
    real space projection operators read in
  non local Contribution for L=           1  read in
    real space projection operators read in
    PAW grid and wavefunctions read in
 
   number of l-projection  operators is LMAX  =           6
   number of lm-projection operators is LMMAX =          18
 
 -----------------------------------------------------------------------------
|                                                                             |
|               ----> ADVICE to this user running VASP <----                  |
|                                                                             |
|     You have a (more or less) 'large supercell' and for larger cells it     |
|     might be more efficient to use real-space projection operators.         |
|     Therefore, try LREAL= Auto in the INCAR file.                           |
|     Mind: If you want to do very accurate calculations, keep the            |
|     reciprocal projection scheme (i.e. LREAL=.FALSE.).                      |
|                                                                             |
 -----------------------------------------------------------------------------

 PAW_PBE Te 08Apr2002                   :
 energy of atom  1       EATOM= -223.2721
 kinetic energy error for atom=    0.0006 (will be added to EATOM!!)
 PAW_PBE Mo 08Apr2002                   :
 energy of atom  2       EATOM= -217.5180
 kinetic energy error for atom=    0.0009 (will be added to EATOM!!)
 
 
 POSCAR: Te Mo
  positions in cartesian coordinates
  No initial velocities read in
 exchange correlation table for  LEXCH =        8
   RHO(1)=    0.500       N(1)  =     2000
   RHO(2)=  100.500       N(2)  =     4000
 


--------------------------------------------------------------------------------------------------------


 ion  position               nearest neighbor table
   1  0.222  0.111  0.683-  41 2.64  40 2.67  37 2.70   3 3.39   2 3.40   5 3.43   9 3.43   4 3.47
                             7 3.47  19 3.58
   2  0.222  0.445  0.683-  42 2.63  41 2.68  38 2.69   3 3.38   1 3.40   6 3.43   7 3.44   8 3.46
                             5 3.47  20 3.58
   3  0.222  0.777  0.683-  40 2.64  42 2.68  39 2.70   2 3.38   1 3.39   8 3.42   4 3.44   9 3.47
                             6 3.47  21 3.59
   4  0.556  0.111  0.683-  44 2.64  43 2.68  40 2.70   6 3.39   5 3.39   8 3.43   3 3.44   7 3.46
                             1 3.47  22 3.59
   5  0.556  0.444  0.683-  45 2.64  44 2.68  41 2.70   6 3.39   4 3.39   1 3.43   9 3.43   8 3.47
                             2 3.47  23 3.58
   6  0.555  0.778  0.683-  43 2.64  45 2.68  42 2.70   4 3.39   5 3.39   7 3.43   2 3.43   9 3.46
                             3 3.47  24 3.58
   7  0.888  0.110  0.683-  38 2.64  37 2.67  43 2.69   9 3.39   8 3.40   6 3.43   2 3.44   4 3.46
                             1 3.47  25 3.57
   8  0.889  0.445  0.683-  39 2.64  38 2.68  44 2.70   9 3.39   7 3.40   3 3.42   4 3.43   2 3.46
                             5 3.47  26 3.58
   9  0.889  0.778  0.683-  37 2.64  39 2.68  45 2.71   7 3.39   8 3.39   5 3.43   1 3.43   6 3.46
                             3 3.47  27 3.58
  10  0.000  0.222  0.438-  47 2.64  46 2.67  52 2.70  11 3.39  12 3.39  18 3.44  14 3.44  13 3.47
                            16 3.47  28 3.58
  11  1.000  0.555  0.438-  48 2.64  47 2.67  53 2.69  10 3.39  12 3.39  16 3.43  15 3.44  14 3.47
                            17 3.48  29 3.58
  12  1.000  0.889  0.438-  46 2.64  48 2.67  54 2.70  11 3.39  10 3.39  13 3.43  17 3.43  18 3.47
                            15 3.47  30 3.59
  13  0.333  0.222  0.438-  50 2.64  49 2.67  46 2.70  15 3.39  14 3.40  17 3.43  12 3.43  16 3.47
                            10 3.47  31 3.58
  14  0.334  0.556  0.438-  51 2.63  50 2.68  47 2.70  15 3.39  13 3.40  18 3.42  10 3.44  17 3.46
                            11 3.47  32 3.58
  15  0.334  0.889  0.438-  49 2.63  51 2.67  48 2.70  14 3.39  13 3.39  16 3.42  11 3.44  18 3.46
                            12 3.47  33 3.58
  16  0.666  0.222  0.438-  53 2.64  52 2.68  49 2.70  17 3.39  18 3.39  15 3.42  11 3.43  13 3.47
                            10 3.47  34 3.58
  17  0.666  0.555  0.438-  54 2.64  53 2.67  50 2.70  18 3.39  16 3.39  13 3.43  12 3.43  14 3.46
                            11 3.48  35 3.58
  18  0.666  0.889  0.438-  52 2.64  54 2.68  51 2.70  17 3.39  16 3.39  14 3.42  10 3.44  15 3.46
                            12 3.47  36 3.59
  19  0.222  0.111  0.562-  40 2.66  37 2.67  41 2.67  21 3.39  20 3.39  27 3.43  23 3.43  22 3.46
                            25 3.47   1 3.58
  20  0.223  0.445  0.562-  41 2.66  42 2.67  38 2.68  19 3.39  21 3.40  24 3.43  25 3.44  23 3.46
                            26 3.47   2 3.58
  21  0.222  0.778  0.562-  42 2.67  40 2.67  39 2.67  19 3.39  20 3.40  26 3.43  22 3.44  27 3.46
                            24 3.47   3 3.59
  22  0.556  0.112  0.562-  44 2.66  43 2.67  40 2.68  23 3.38  24 3.39  26 3.43  21 3.44  19 3.46
                            25 3.47   4 3.59
  23  0.556  0.444  0.562-  45 2.66  44 2.67  41 2.68  22 3.38  24 3.40  19 3.43  27 3.43  20 3.46
                            26 3.47   5 3.58
  24  0.556  0.779  0.562-  45 2.67  43 2.67  42 2.68  22 3.39  23 3.40  25 3.42  20 3.43  21 3.47
                            27 3.48   6 3.58
  25  0.888  0.111  0.562-  43 2.66  37 2.66  38 2.67  26 3.39  27 3.39  24 3.42  20 3.44  22 3.47
                            19 3.47   7 3.57
  26  0.889  0.445  0.562-  38 2.66  39 2.67  44 2.67  27 3.39  25 3.39  22 3.43  21 3.43  23 3.47
                            20 3.47   8 3.58
  27  0.889  0.778  0.562-  39 2.66  37 2.67  45 2.67  26 3.39  25 3.39  19 3.43  23 3.43  21 3.46
                            24 3.48   9 3.58
  28  1.000  0.223  0.317-  46 2.66  47 2.66  52 2.67  29 3.39  30 3.40  36 3.43  32 3.43  34 3.46
                            31 3.47  10 3.58
  29  1.000  0.556  0.317-  47 2.66  53 2.67  48 2.68  28 3.39  30 3.39  34 3.43  33 3.43  35 3.47
                            32 3.47  11 3.58
  30  1.000  0.889  0.317-  48 2.66  54 2.68  46 2.68  29 3.39  28 3.40  35 3.43  31 3.43  36 3.46
                            33 3.47  12 3.59
  31  0.334  0.222  0.317-  49 2.66  50 2.66  46 2.68  32 3.39  33 3.39  35 3.42  30 3.43  34 3.46
                            28 3.47  13 3.58
  32  0.333  0.555  0.317-  50 2.67  51 2.67  47 2.68  33 3.39  31 3.39  28 3.43  36 3.44  35 3.46
                            29 3.47  14 3.58
  33  0.333  0.888  0.317-  51 2.66  49 2.68  48 2.68  32 3.39  31 3.39  29 3.43  34 3.44  36 3.47
                            30 3.47  15 3.58
  34  0.667  0.223  0.317-  52 2.66  53 2.68  49 2.68  36 3.39  35 3.39  29 3.43  33 3.44  28 3.46
                            31 3.46  16 3.58
  35  0.666  0.555  0.317-  53 2.67  50 2.67  54 2.67  34 3.39  36 3.39  31 3.42  30 3.43  32 3.46
                            29 3.47  17 3.58
  36  0.667  0.890  0.317-  54 2.66  52 2.67  51 2.68  34 3.39  35 3.39  28 3.43  32 3.44  30 3.46
                            33 3.47  18 3.59
  37  0.001  0.000  0.622-   9 2.64  25 2.66  27 2.67  19 2.67   7 2.67   1 2.70  39 3.39  38 3.40
                            41 3.43  45 3.44  40 3.46  43 3.47
  38  1.000  0.334  0.622-   7 2.64  26 2.66  25 2.67   8 2.68  20 2.68   2 2.69  39 3.39  37 3.40
                            43 3.43  42 3.43  44 3.46  41 3.47
  39  0.000  0.667  0.622-   8 2.64  27 2.66  26 2.67  21 2.67   9 2.68   3 2.70  38 3.39  37 3.39
                            40 3.43  44 3.43  42 3.47  45 3.47
  40  0.333  0.000  0.622-   3 2.64  19 2.66  21 2.67   1 2.67  22 2.68   4 2.70  41 3.39  42 3.39
                            44 3.42  39 3.43  37 3.46  43 3.47
  41  0.333  0.333  0.622-   1 2.64  20 2.66  19 2.67  23 2.68   2 2.68   5 2.70  40 3.39  42 3.39
                            45 3.43  37 3.43  44 3.47  38 3.47
  42  0.333  0.667  0.622-   2 2.63  20 2.67  21 2.67   3 2.68  24 2.68   6 2.70  41 3.39  40 3.39
                            38 3.43  43 3.43  45 3.47  39 3.47
  43  0.667  0.000  0.622-   6 2.64  25 2.66  24 2.67  22 2.67   4 2.68   7 2.69  44 3.38  45 3.40
                            38 3.43  42 3.43  40 3.47  37 3.47
  44  0.667  0.333  0.622-   4 2.64  22 2.66  23 2.67  26 2.67   5 2.68   8 2.70  43 3.38  45 3.39
                            40 3.42  39 3.43  38 3.46  41 3.47
  45  0.666  0.666  0.622-   5 2.64  23 2.66  24 2.67  27 2.67   6 2.68   9 2.71  44 3.39  43 3.40
                            41 3.43  37 3.44  42 3.47  39 3.47
  46  0.111  0.111  0.378-  12 2.64  28 2.66  10 2.67  30 2.68  31 2.68  13 2.70  47 3.39  48 3.39
                            50 3.43  54 3.43  52 3.46  49 3.47
  47  0.111  0.445  0.378-  10 2.64  29 2.66  28 2.66  11 2.67  32 2.68  14 2.70  46 3.39  48 3.40
                            51 3.43  52 3.43  53 3.47  50 3.47
  48  0.111  0.779  0.378-  11 2.64  30 2.66  12 2.67  29 2.68  33 2.68  15 2.70  46 3.39  47 3.40
                            49 3.42  53 3.43  54 3.47  51 3.47
  49  0.444  0.111  0.378-  15 2.63  31 2.66  13 2.67  33 2.68  34 2.68  16 2.70  50 3.39  51 3.39
                            48 3.42  53 3.44  52 3.47  46 3.47
  50  0.444  0.444  0.378-  13 2.64  31 2.66  32 2.67  35 2.67  14 2.68  17 2.70  49 3.39  51 3.40
                            46 3.43  54 3.44  53 3.46  47 3.47
  51  0.444  0.778  0.378-  14 2.63  33 2.66  15 2.67  32 2.67  36 2.68  18 2.70  49 3.39  50 3.40
                            47 3.43  52 3.43  54 3.47  48 3.47
  52  0.778  0.111  0.378-  18 2.64  34 2.66  36 2.67  28 2.67  16 2.68  10 2.70  54 3.39  53 3.40
                            47 3.43  51 3.43  46 3.46  49 3.47
  53  0.778  0.445  0.378-  16 2.64  35 2.67  29 2.67  17 2.67  34 2.68  11 2.69  54 3.39  52 3.40
                            48 3.43  49 3.44  50 3.46  47 3.47
  54  0.778  0.778  0.378-  17 2.64  36 2.66  35 2.67  30 2.68  18 2.68  12 2.70  53 3.39  52 3.39
                            46 3.43  50 3.44  48 3.47  51 3.47
 

IMPORTANT INFORMATION: All symmetrisations will be switched off!
NOSYMM: (Re-)initialisation of all symmetry stuff for point group C_1.


----------------------------------------------------------------------------------------

                                     Primitive cell                                     

  volume of cell :    2716.8766

  direct lattice vectors                    reciprocal lattice vectors
    10.402701159  0.000000000  0.000000000     0.096128879  0.055465171 -0.000954199
    -5.085108432  8.813202351  0.000000000     0.000000000  0.113466134 -0.001451861
     0.075370443  0.379183061 29.633985006     0.000000000  0.000000000  0.033745040

  length of vectors
    10.402701159 10.175011717 29.636506674     0.110986743  0.113475422  0.033745040

  position of ions in fractional coordinates (direct lattice)
     0.222478362  0.111244224  0.682837835
     0.221899425  0.444819135  0.682673545
     0.221820109  0.777287008  0.682806214
     0.555747537  0.110822235  0.682959701
     0.555653391  0.444375510  0.682723230
     0.555459263  0.777510074  0.682813438
     0.888447689  0.110470365  0.682621423
     0.889073084  0.444849192  0.682878951
     0.888620927  0.777870551  0.682871509
     0.000165119  0.222285675  0.438152060
     0.999967503  0.555113466  0.438134895
     0.999922468  0.888597140  0.438165975
     0.333202865  0.221894348  0.438117229
     0.333922245  0.556159282  0.437968719
     0.334253711  0.889254719  0.437972341
     0.666465851  0.222244728  0.438016714
     0.665952559  0.555255314  0.438285826
     0.666321396  0.888691982  0.438261454
     0.222210829  0.111100890  0.561944419
     0.222814485  0.444622443  0.561966292
     0.221680334  0.778084917  0.561773671
     0.555562760  0.111956767  0.561843209
     0.555565489  0.444438167  0.561896343
     0.555673229  0.778777827  0.561890914
     0.888197487  0.110752094  0.562155791
     0.888919921  0.444572360  0.561917753
     0.889314884  0.777870444  0.562063868
     0.999938411  0.222754284  0.317324330
     0.999548073  0.555501626  0.317349089
     0.999693984  0.888906749  0.317156725
     0.333647951  0.222228674  0.317411685
     0.333383771  0.555466182  0.317219463
     0.333289557  0.888409138  0.317180844
     0.666825154  0.222530669  0.317296096
     0.665963323  0.555375496  0.317320405
     0.667285094  0.889531362  0.317248071
     0.000511448  0.000026631  0.622328193
     0.999761202  0.333511918  0.622378469
     0.000002595  0.666670359  0.622346815
     0.333476370  0.000356464  0.622341602
     0.333345298  0.333395279  0.622374032
     0.333330156  0.666663360  0.622348567
     0.666774024  0.000321092  0.622310347
     0.666557089  0.332728729  0.622229789
     0.666200282  0.666188180  0.622117597
     0.110563574  0.111481871  0.377824982
     0.110885344  0.444612022  0.377544056
     0.111233154  0.778662270  0.377757394
     0.443992183  0.110859849  0.377768662
     0.444373921  0.443835122  0.377638512
     0.444257042  0.777599647  0.377628034
     0.777774965  0.111032576  0.377643975
     0.778063879  0.445377188  0.377820066
     0.777752511  0.777942206  0.377683568

  ion indices of the primitive-cell ions
   primitive index   ion index
                 1           1
                 2           2
                 3           3
                 4           4
                 5           5
                 6           6
                 7           7
                 8           8
                 9           9
                10          10
                11          11
                12          12
                13          13
                14          14
                15          15
                16          16
                17          17
                18          18
                19          19
                20          20
                21          21
                22          22
                23          23
                24          24
                25          25
                26          26
                27          27
                28          28
                29          29
                30          30
                31          31
                32          32
                33          33
                34          34
                35          35
                36          36
                37          37
                38          38
                39          39
                40          40
                41          41
                42          42
                43          43
                44          44
                45          45
                46          46
                47          47
                48          48
                49          49
                50          50
                51          51
                52          52
                53          53
                54          54

----------------------------------------------------------------------------------------

 
 

Automatic generation of k-mesh.
 generate k-points for:    3    3    1
Space group operators:
 irot       det(A)        alpha          n_x          n_y          n_z        tau_x        tau_y        tau_z
    1     1.000000     0.000000     1.000000     0.000000     0.000000     0.000000     0.000000     0.000000
 
 Subroutine IBZKPT returns following result:
 ===========================================
 
 Found      5 irreducible k-points:
 
 Following reciprocal coordinates:
            Coordinates               Weight
  0.000000  0.000000  0.000000      1.000000
  0.333333  0.000000  0.000000      2.000000
  0.000000  0.333333 -0.000000      2.000000
  0.333333  0.333333  0.000000      2.000000
 -0.333333  0.333333 -0.000000      2.000000
 
 Following cartesian coordinates:
            Coordinates               Weight
  0.000000  0.000000  0.000000      1.000000
  0.032043  0.018488 -0.000318      2.000000
  0.000000  0.037822 -0.000484      2.000000
  0.032043  0.056310 -0.000802      2.000000
 -0.032043  0.019334 -0.000166      2.000000
 


--------------------------------------------------------------------------------------------------------




 Dimension of arrays:
   k-points           NKPTS =      5   k-points in BZ     NKDIM =      5   number of bands    NBANDS=    200
   number of dos      NEDOS =    301   number of ions     NIONS =     54
   non local maximal  LDIM  =      6   non local SUM 2l+1 LMDIM =     18
   total plane-waves  NPLWV = ******
   max r-space proj   IRMAX =      1   max aug-charges    IRDMAX=  36494
   dimension x,y,z NGX =    80 NGY =   80 NGZ =  240
   dimension x,y,z NGXF=   160 NGYF=  160 NGZF=  480
   support grid    NGXF=   160 NGYF=  160 NGZF=  480
   ions per type =              36  18
   NGX,Y,Z   is equivalent  to a cutoff of  12.78, 13.07, 13.46 a.u.
   NGXF,Y,Z  is equivalent  to a cutoff of  25.57, 26.14, 26.93 a.u.

 SYSTEM =  dpgen_md                                
 POSCAR =  Te Mo                                   

 Startparameter for this run:
   NWRITE =      2    write-flag & timer
   PREC   = a         normal or accurate (medium, high low for compatibility)
   ISTART =      0    job   : 0-new  1-cont  2-samecut
   ICHARG =      2    charge: 1-file 2-atom 10-const
   ISPIN  =      1    spin polarized calculation?
   LNONCOLLINEAR =      F non collinear calculations
   LSORBIT =      F    spin-orbit coupling
   INIWAV =      1    electr: 0-lowe 1-rand  2-diag
   LASPH  =      F    aspherical Exc in radial PAW
   METAGGA=      F    non-selfconsistent MetaGGA calc.

 Electronic Relaxation 1
   ENCUT  =  550.0 eV  40.42 Ry    6.36 a.u.  19.89 19.46 56.67*2*pi/ulx,y,z
   ENINI  =  550.0     initial cutoff
   ENAUG  =  368.8 eV  augmentation charge cutoff
   NELM   =    100;   NELMIN=  6; NELMDL= -5     # of ELM steps 
   EDIFF  = 0.1E-05   stopping-criterion for ELM
   LREAL  =      F    real-space projection
   NLSPLINE    = F    spline interpolate recip. space projectors
   LCOMPAT=      F    compatible to vasp.4.4
   GGA_COMPAT  = T    GGA compatible to vasp.4.4-vasp.4.6
   LMAXPAW     = -100 max onsite density
   LMAXMIX     =    2 max onsite mixed and CHGCAR
   VOSKOWN=      0    Vosko Wilk Nusair interpolation
   ROPT   =    0.00000   0.00000
 Ionic relaxation
   EDIFFG = 0.1E-04   stopping-criterion for IOM
   NSW    =     10    number of steps for IOM
   NBLOCK =      1;   KBLOCK =      1    inner block; outer block 
   IBRION =      0    ionic relax: 0-MD 1-quasi-New 2-CG
   NFREE  =      0    steps in history (QN), initial steepest desc. (CG)
   ISIF   =      2    stress and relaxation
   IWAVPR =     11    prediction:  0-non 1-charg 2-wave 3-comb
   ISYM   =      0    0-nonsym 1-usesym 2-fastsym
   LCORR  =      T    Harris-Foulkes like correction to forces

   POTIM  = 2.0000    time-step for ionic-motion
   TEIN   =  100.0    initial temperature
   TEBEG  =  100.0;   TEEND  = 100.0 temperature during run
   SMASS  =   0.04    Nose mass-parameter (am)
   estimated Nose-frequenzy (Omega)   =  0.79E+14 period in steps = 0.40E+02 mass=   0.327E-28a.u.
   SCALEE = 1.0000    scale energy and forces
   NPACO  =    256;   APACO  = 16.0  distance and # of slots for P.C.
   PSTRESS=    0.0 pullay stress

  Mass of Ions in am
   POMASS = 127.60 95.94
  Ionic Valenz
   ZVAL   =   6.00  6.00
  Atomic Wigner-Seitz radii
   RWIGS  =  -1.00 -1.00
  virtual crystal weights 
   VCA    =   1.00  1.00
   NELECT =     324.0000    total number of electrons
   NUPDOWN=      -1.0000    fix difference up-down

 DOS related values:
   EMIN   =  10.00;   EMAX   =-10.00  energy-range for DOS
   EFERMI =   0.00
   ISMEAR =     0;   SIGMA  =   0.10  broadening in eV -4-tet -1-fermi 0-gaus

 Electronic relaxation 2 (details)
   IALGO  =     68    algorithm
   LDIAG  =      T    sub-space diagonalisation (order eigenvalues)
   LSUBROT=      F    optimize rotation matrix (better conditioning)
   TURBO    =      0    0=normal 1=particle mesh
   IRESTART =      0    0=no restart 2=restart with 2 vectors
   NREBOOT  =      0    no. of reboots
   NMIN     =      0    reboot dimension
   EREF     =   0.00    reference energy to select bands
   IMIX   =      4    mixing-type and parameters
     AMIX     =   0.40;   BMIX     =  1.00
     AMIX_MAG =   1.60;   BMIX_MAG =  1.00
     AMIN     =   0.10
     WC   =   100.;   INIMIX=   1;  MIXPRE=   1;  MAXMIX= -45

 Intra band minimization:
   WEIMIN = 0.0010     energy-eigenvalue tresh-hold
   EBREAK =  0.13E-08  absolut break condition
   DEPER  =   0.30     relativ break condition  

   TIME   =   0.40     timestep for ELM

  volume/ion in A,a.u.               =      50.31       339.53
  Fermi-wavevector in a.u.,A,eV,Ry     =   0.805811  1.522762  8.834690  0.649331
  Thomas-Fermi vector in A             =   1.914126
 
 Write flags
   LWAVE        =      F    write WAVECAR
   LDOWNSAMPLE  =      F    k-point downsampling of WAVECAR
   LCHARG       =      F    write CHGCAR
   LVTOT        =      F    write LOCPOT, total local potential
   LVHAR        =      F    write LOCPOT, Hartree potential only
   LELF         =      F    write electronic localiz. function (ELF)
   LORBIT       =      0    0 simple, 1 ext, 2 COOP (PROOUT), +10 PAW based schemes


 Dipole corrections
   LMONO  =      F    monopole corrections only (constant potential shift)
   LDIPOL =      F    correct potential (dipole corrections)
   IDIPOL =      0    1-x, 2-y, 3-z, 4-all directions 
   EPSILON=  1.0000000 bulk dielectric constant

 Exchange correlation treatment:
   GGA     =    --    GGA type
   LEXCH   =     8    internal setting for exchange type
   VOSKOWN=      0    Vosko Wilk Nusair interpolation
   LHFCALC =     F    Hartree Fock is set to
   LHFONE  =     F    Hartree Fock one center treatment
   AEXX    =    0.0000 exact exchange contribution

 Linear response parameters
   LEPSILON=     F    determine dielectric tensor
   LRPA    =     F    only Hartree local field effects (RPA)
   LNABLA  =     F    use nabla operator in PAW spheres
   LVEL    =     F    velocity operator in full k-point grid
   LINTERFAST=   F  fast interpolation
   KINTER  =     0    interpolate to denser k-point grid
   CSHIFT  =0.1000    complex shift for real part using Kramers Kronig
   OMEGAMAX=  -1.0    maximum frequency
   DEG_THRESHOLD= 0.2000000E-02 threshold for treating states as degnerate
   RTIME   =   -0.100 relaxation time in fs
  (WPLASMAI=    0.000 imaginary part of plasma frequency in eV, 0.658/RTIME)
   DFIELD  = 0.0000000 0.0000000 0.0000000 field for delta impulse in time
 
 Orbital magnetization related:
   ORBITALMAG=     F  switch on orbital magnetization
   LCHIMAG   =     F  perturbation theory with respect to B field
   DQ        =  0.001000  dq finite difference perturbation B field
   LLRAUG    =     F  two centre corrections for induced B field



--------------------------------------------------------------------------------------------------------


 molecular dynamics for ions
   using nose mass (canonical ensemble)
 charge density and potential will be updated during run
 non-spin polarized calculation
 RMM-DIIS sequential band-by-band and
  variant of blocked Davidson during initial phase
 perform sub-space diagonalisation
    before iterative eigenvector-optimisation
 modified Broyden-mixing scheme, WC =      100.0
 initial mixing is a Kerker type mixing with AMIX =  0.4000 and BMIX =      1.0000
 Hartree-type preconditioning will be used
 using additional bands           38
 reciprocal scheme for non local part
 use partial core corrections
 calculate Harris-corrections to forces 
   (improved forces if not selfconsistent)
 use gradient corrections 
 use of overlap-Matrix (Vanderbilt PP)
 Gauss-broadening in eV      SIGMA  =   0.10


--------------------------------------------------------------------------------------------------------


  energy-cutoff  :      550.00
  volume of cell :     2716.88
      direct lattice vectors                 reciprocal lattice vectors
    10.402701159  0.000000000  0.000000000     0.096128879  0.055465171 -0.000954199
    -5.085108432  8.813202351  0.000000000     0.000000000  0.113466134 -0.001451861
     0.075370443  0.379183061 29.633985006     0.000000000  0.000000000  0.033745040

  length of vectors
    10.402701159 10.175011717 29.636506674     0.110986743  0.113475422  0.033745040


 
 k-points in units of 2pi/SCALE and weight: read from INCAR                         
   0.00000000  0.00000000  0.00000000       0.111
   0.03204296  0.01848839 -0.00031807       0.222
   0.00000000  0.03782204 -0.00048395       0.222
   0.03204296  0.05631043 -0.00080202       0.222
  -0.03204296  0.01933365 -0.00016589       0.222
 
 k-points in reciprocal lattice and weights: read from INCAR                         
   0.00000000  0.00000000  0.00000000       0.111
   0.33333333  0.00000000  0.00000000       0.222
   0.00000000  0.33333333 -0.00000000       0.222
   0.33333333  0.33333333  0.00000000       0.222
  -0.33333333  0.33333333 -0.00000000       0.222
 
 position of ions in fractional coordinates (direct lattice) 
   0.22247836  0.11124422  0.68283783
   0.22189942  0.44481914  0.68267354
   0.22182011  0.77728701  0.68280621
   0.55574754  0.11082223  0.68295970
   0.55565339  0.44437551  0.68272323
   0.55545926  0.77751007  0.68281344
   0.88844769  0.11047036  0.68262142
   0.88907308  0.44484919  0.68287895
   0.88862093  0.77787055  0.68287151
   0.00016512  0.22228568  0.43815206
   0.99996750  0.55511347  0.43813490
   0.99992247  0.88859714  0.43816597
   0.33320287  0.22189435  0.43811723
   0.33392224  0.55615928  0.43796872
   0.33425371  0.88925472  0.43797234
   0.66646585  0.22224473  0.43801671
   0.66595256  0.55525531  0.43828583
   0.66632140  0.88869198  0.43826145
   0.22221083  0.11110089  0.56194442
   0.22281448  0.44462244  0.56196629
   0.22168033  0.77808492  0.56177367
   0.55556276  0.11195677  0.56184321
   0.55556549  0.44443817  0.56189634
   0.55567323  0.77877783  0.56189091
   0.88819749  0.11075209  0.56215579
   0.88891992  0.44457236  0.56191775
   0.88931488  0.77787044  0.56206387
   0.99993841  0.22275428  0.31732433
   0.99954807  0.55550163  0.31734909
   0.99969398  0.88890675  0.31715672
   0.33364795  0.22222867  0.31741169
   0.33338377  0.55546618  0.31721946
   0.33328956  0.88840914  0.31718084
   0.66682515  0.22253067  0.31729610
   0.66596332  0.55537550  0.31732041
   0.66728509  0.88953136  0.31724807
   0.00051145  0.00002663  0.62232819
   0.99976120  0.33351192  0.62237847
   0.00000259  0.66667036  0.62234681
   0.33347637  0.00035646  0.62234160
   0.33334530  0.33339528  0.62237403
   0.33333016  0.66666336  0.62234857
   0.66677402  0.00032109  0.62231035
   0.66655709  0.33272873  0.62222979
   0.66620028  0.66618818  0.62211760
   0.11056357  0.11148187  0.37782498
   0.11088534  0.44461202  0.37754406
   0.11123315  0.77866227  0.37775739
   0.44399218  0.11085985  0.37776866
   0.44437392  0.44383512  0.37763851
   0.44425704  0.77759965  0.37762803
   0.77777497  0.11103258  0.37764398
   0.77806388  0.44537719  0.37782007
   0.77775251  0.77794221  0.37768357
 
 position of ions in cartesian coordinates  (Angst):
   1.80015276  1.23933840 20.23520616
   0.09785327  4.17913929 20.23033758
  -1.59359700  7.10929623 20.23426910
   5.26920744  1.23566553 20.23881753
   3.57205567  4.17524837 20.23180995
   1.87601763  7.11126490 20.23448320
   8.73195150  1.23243616 20.22879300
   7.03812411  4.17948207 20.23642460
   5.33997018  7.11446388 20.23620407
  -1.09560537  2.12518848 12.98419157
   7.61257335  5.05846063 12.98368292
   5.91630657  7.99753152 12.98460392
   2.37087410  2.12172642 12.98315939
   0.67857296  5.06761461 12.97875846
  -1.01180503  8.00325347 12.97886579
   5.83592005  2.12477628 12.98018073
   4.13720577  5.05976800 12.98815560
   2.44547922  7.99840358 12.98743336
   1.78898677  1.19223443 16.65265250
   0.09927481  4.13163566 16.65330067
  -1.60823077  7.07043488 16.64759255
   5.25238744  1.19973907 16.64965322
   3.56171586  4.12998508 16.65122781
   1.86268282  7.07658609 16.65106692
   8.71883655  1.18924057 16.65891628
   7.02882163  4.13117586 16.65186228
   5.33808442  7.06865472 16.65619224
   9.29324766  2.08350259  9.40358445
   7.59713264  5.01608163  9.40431815
   5.90323480  7.95437551  9.39861763
   2.36470648  2.07890340  9.40617311
   0.66739495  5.01572011  9.40047680
  -1.02663907  7.94999911  9.39933237
   5.82910497  2.08152112  9.40274774
   4.12758939  5.01495915  9.40346813
   2.44211511  7.95991499  9.40132457
   0.05209017  0.23621101 18.44206433
   8.75118169  3.17530339 18.44355422
  -3.34315752  6.11148414 18.44261618
   3.51414852  0.23912299 18.44246170
   1.81924898  3.17427375 18.44342274
   0.12438521  6.11142313 18.44266810
   6.98152193  0.23879939 18.44153550
   5.28893027  3.16834461 18.43914823
   3.58953260  6.10714769 18.43582355
   0.61173925  1.12577712 11.19645984
  -1.07893758  4.06161403 11.18813490
  -2.77398508  7.00574736 11.19445695
   4.08345624  1.12027376 11.19479087
   2.39420216  4.05480287 11.19093401
   0.69575672  6.99633319 11.19062348
   7.55481104  1.12174876 11.19109590
   5.85765119  4.06846225 11.19631418
   4.16327265  6.99937329 11.19226919
 


--------------------------------------------------------------------------------------------------------


 k-point   1 :   0.0000 0.0000 0.0000  plane waves:   79577
 k-point   2 :   0.3333 0.0000 0.0000  plane waves:   79581
 k-point   3 :   0.0000 0.3333-0.0000  plane waves:   79529
 k-point   4 :   0.3333 0.3333 0.0000  plane waves:   79570
 k-point   5 :  -0.3333 0.3333-0.0000  plane waves:   79608

 maximum and minimum number of plane-waves per node :     79608    79529

 maximum number of plane-waves:     79608
 maximum index in each direction: 
   IXMAX=   20   IYMAX=   19   IZMAX=   56
   IXMIN=  -20   IYMIN=  -19   IZMIN=  -56


 serial   3D FFT for wavefunctions
 parallel 3D FFT for charge:
    minimum data exchange during FFTs selected (reduces bandwidth)


 total amount of memory used by VASP MPI-rank0   341834. kBytes
=======================================================================

   base      :      30000. kBytes
   nonl-proj :     183490. kBytes
   fftplans  :      16533. kBytes
   grid      :      78796. kBytes
   one-center:        839. kBytes
   wavefun   :      32176. kBytes
 
     INWAV:  cpu time    0.0000: real time    0.0000
 Broyden mixing: mesh for mixing (old mesh)
   NGX = 39   NGY = 39   NGZ =113
  (NGX  =160   NGY  =160   NGZ  =480)
  gives a total of 171873 points

 initial charge density was supplied:
 charge density of overlapping atoms calculated
 number of electron     324.0000000 magnetization 
 keeping initial charge density in first step


--------------------------------------------------------------------------------------------------------


 Maximum index for augmentation-charges         1209 (set IRDMAX)


--------------------------------------------------------------------------------------------------------


 First call to EWALD:  gamma=   0.127
 Maximum number of real-space cells 4x 4x 2
 Maximum number of reciprocal cells 2x 2x 5

    FEWALD:  cpu time    0.0022: real time    0.0022


--------------------------------------- Iteration      1(   1)  ---------------------------------------


    POTLOK:  cpu time    0.2716: real time    0.2721
    SETDIJ:  cpu time    0.0114: real time    0.0114
     EDDAV:  cpu time   45.0742: real time   45.1346
       DOS:  cpu time    0.0010: real time    0.0011
    --------------------------------------------
      LOOP:  cpu time   45.3582: real time   45.4192

 eigenvalue-minimisations  :  2000
 total energy-change (2. order) : 0.2169853E+04  (-0.1176522E+05)
 number of electron     324.0000000 magnetization 
 augmentation part      324.0000000 magnetization 

 Free energy of the ion-electron system (eV)
  ---------------------------------------------------
  alpha Z        PSCENC =       264.15118226
  Ewald energy   TEWEN  =     62718.25547561
  -Hartree energ DENC   =    -74467.81199348
  -exchange      EXHF   =         0.00000000
  -V(xc)+E(xc)   XCENC  =     -2092.48666248
  PAW double counting   =      7476.04436201    -4809.59211051
  entropy T*S    EENTRO =        -0.11562191
  eigenvalues    EBANDS =      1128.32537316
  atomic energy  EATOM  =     11953.08265402
  Solvation  Ediel_sol  =         0.00000000
  ---------------------------------------------------
  free energy    TOTEN  =      2169.85265868 eV

  energy without entropy =     2169.96828059  energy(sigma->0) =     2169.91046964


--------------------------------------------------------------------------------------------------------




--------------------------------------- Iteration      1(   2)  ---------------------------------------


     EDDAV:  cpu time   63.8398: real time   63.9183
       DOS:  cpu time    0.0007: real time    0.0007
    --------------------------------------------
      LOOP:  cpu time   63.8406: real time   63.9190

 eigenvalue-minimisations  :  3080
 total energy-change (2. order) :-0.2275149E+04  (-0.2214711E+04)
 number of electron     324.0000000 magnetization 
 augmentation part      324.0000000 magnetization 

 Free energy of the ion-electron system (eV)
  ---------------------------------------------------
  alpha Z        PSCENC =       264.15118226
  Ewald energy   TEWEN  =     62718.25547561
  -Hartree energ DENC   =    -74467.81199348
  -exchange      EXHF   =         0.00000000
  -V(xc)+E(xc)   XCENC  =     -2092.48666248
  PAW double counting   =      7476.04436201    -4809.59211051
  entropy T*S    EENTRO =        -0.00003972
  eigenvalues    EBANDS =     -1146.93928403
  atomic energy  EATOM  =     11953.08265402
  Solvation  Ediel_sol  =         0.00000000
  ---------------------------------------------------
  free energy    TOTEN  =      -105.29641631 eV

  energy without entropy =     -105.29637659  energy(sigma->0) =     -105.29639645


--------------------------------------------------------------------------------------------------------




--------------------------------------- Iteration      1(   3)  ---------------------------------------


     EDDAV:  cpu time   54.1361: real time   54.2055
       DOS:  cpu time    0.0004: real time    0.0004
    --------------------------------------------
      LOOP:  cpu time   54.1365: real time   54.2059

 eigenvalue-minimisations  :  2520
 total energy-change (2. order) :-0.2171707E+03  (-0.2144031E+03)
 number of electron     324.0000000 magnetization 
 augmentation part      324.0000000 magnetization 

 Free energy of the ion-electron system (eV)
  ---------------------------------------------------
  alpha Z        PSCENC =       264.15118226
  Ewald energy   TEWEN  =     62718.25547561
  -Hartree energ DENC   =    -74467.81199348
  -exchange      EXHF   =         0.00000000
  -V(xc)+E(xc)   XCENC  =     -2092.48666248
  PAW double counting   =      7476.04436201    -4809.59211051
  entropy T*S    EENTRO =        -0.00000000
  eigenvalues    EBANDS =     -1364.11007126
  atomic energy  EATOM  =     11953.08265402
  Solvation  Ediel_sol  =         0.00000000
  ---------------------------------------------------
  free energy    TOTEN  =      -322.46716383 eV

  energy without entropy =     -322.46716383  energy(sigma->0) =     -322.46716383


--------------------------------------------------------------------------------------------------------




--------------------------------------- Iteration      1(   4)  ---------------------------------------


     EDDAV:  cpu time   64.4814: real time   64.5667
       DOS:  cpu time    0.0004: real time    0.0003
    --------------------------------------------
      LOOP:  cpu time   64.4818: real time   64.5670

 eigenvalue-minimisations  :  3120
 total energy-change (2. order) :-0.1012852E+02  (-0.1006820E+02)
 number of electron     324.0000000 magnetization 
 augmentation part      324.0000000 magnetization 

 Free energy of the ion-electron system (eV)
  ---------------------------------------------------
  alpha Z        PSCENC =       264.15118226
  Ewald energy   TEWEN  =     62718.25547561
  -Hartree energ DENC   =    -74467.81199348
  -exchange      EXHF   =         0.00000000
  -V(xc)+E(xc)   XCENC  =     -2092.48666248
  PAW double counting   =      7476.04436201    -4809.59211051
  entropy T*S    EENTRO =        -0.00000000
  eigenvalues    EBANDS =     -1374.23859462
  atomic energy  EATOM  =     11953.08265402
  Solvation  Ediel_sol  =         0.00000000
  ---------------------------------------------------
  free energy    TOTEN  =      -332.59568718 eV

  energy without entropy =     -332.59568718  energy(sigma->0) =     -332.59568718


--------------------------------------------------------------------------------------------------------




--------------------------------------- Iteration      1(   5)  ---------------------------------------


     EDDAV:  cpu time   60.9506: real time   61.0263
       DOS:  cpu time    0.0005: real time    0.0005
    CHARGE:  cpu time    1.1087: real time    1.1106
    MIXING:  cpu time    0.0084: real time    0.0088
    --------------------------------------------
      LOOP:  cpu time   62.0682: real time   62.1462

 eigenvalue-minimisations  :  2920
 total energy-change (2. order) :-0.2570610E+00  (-0.2567123E+00)
 number of electron     324.0000002 magnetization 
 augmentation part      -24.5231273 magnetization 

 Broyden mixing:
  rms(total) = 0.17623E+01    rms(broyden)= 0.17623E+01
  rms(prec ) = 0.18628E+01
  weight for this iteration     100.00

 Free energy of the ion-electron system (eV)
  ---------------------------------------------------
  alpha Z        PSCENC =       264.15118226
  Ewald energy   TEWEN  =     62718.25547561
  -Hartree energ DENC   =    -74467.81199348
  -exchange      EXHF   =         0.00000000
  -V(xc)+E(xc)   XCENC  =     -2092.48666248
  PAW double counting   =      7476.04436201    -4809.59211051
  entropy T*S    EENTRO =        -0.00000000
  eigenvalues    EBANDS =     -1374.49565557
  atomic energy  EATOM  =     11953.08265402
  Solvation  Ediel_sol  =         0.00000000
  ---------------------------------------------------
  free energy    TOTEN  =      -332.85274813 eV

  energy without entropy =     -332.85274813  energy(sigma->0) =     -332.85274813


--------------------------------------------------------------------------------------------------------




--------------------------------------- Iteration      1(   6)  ---------------------------------------


    POTLOK:  cpu time    0.2338: real time    0.2341
    SETDIJ:  cpu time    0.0110: real time    0.0110
    EDDIAG:  cpu time    2.3689: real time    2.3716
  RMM-DIIS:  cpu time   36.7931: real time   36.8386
    ORTHCH:  cpu time    0.1998: real time    0.2000
       DOS:  cpu time    0.0004: real time    0.0004
    CHARGE:  cpu time    1.1087: real time    1.1099
    MIXING:  cpu time    0.0065: real time    0.0066
    --------------------------------------------
      LOOP:  cpu time   40.7221: real time   40.7721

 eigenvalue-minimisations  :  2039
 total energy-change (2. order) : 0.8990080E+01  (-0.2664891E+01)
 number of electron     324.0000002 magnetization 
 augmentation part      -21.0938675 magnetization 

 Broyden mixing:
  rms(total) = 0.70886E+00    rms(broyden)= 0.70886E+00
  rms(prec ) = 0.78332E+00
  weight for this iteration     100.00

 eigenvalues of (default mixing * dielectric matrix)
  average eigenvalue GAMMA=   1.3537
  1.3537

 Free energy of the ion-electron system (eV)
  ---------------------------------------------------
  alpha Z        PSCENC =       264.15118226
  Ewald energy   TEWEN  =     62718.25547561
  -Hartree energ DENC   =    -74480.02760394
  -exchange      EXHF   =         0.00000000
  -V(xc)+E(xc)   XCENC  =     -2086.26536911
  PAW double counting   =      7822.36996004    -5168.67074211
  entropy T*S    EENTRO =        -0.00000000
  eigenvalues    EBANDS =     -1346.75822444
  atomic energy  EATOM  =     11953.08265402
  Solvation  Ediel_sol  =         0.00000000
  ---------------------------------------------------
  free energy    TOTEN  =      -323.86266765 eV

  energy without entropy =     -323.86266765  energy(sigma->0) =     -323.86266765


--------------------------------------------------------------------------------------------------------




--------------------------------------- Iteration      1(   7)  ---------------------------------------


    POTLOK:  cpu time    0.2338: real time    0.2341
    SETDIJ:  cpu time    0.0107: real time    0.0107
    EDDIAG:  cpu time    2.3694: real time    2.3724
  RMM-DIIS:  cpu time   36.2152: real time   36.2634
    ORTHCH:  cpu time    0.1997: real time    0.1999
       DOS:  cpu time    0.0004: real time    0.0004
    CHARGE:  cpu time    1.1114: real time    1.1128
    MIXING:  cpu time    0.0067: real time    0.0067
    --------------------------------------------
      LOOP:  cpu time   40.1473: real time   40.2003

 eigenvalue-minimisations  :  2000
 total energy-change (2. order) : 0.2519361E+01  (-0.9962440E+00)
 number of electron     324.0000002 magnetization 
 augmentation part      -21.6750338 magnetization 

 Broyden mixing:
  rms(total) = 0.35538E+00    rms(broyden)= 0.35538E+00
  rms(prec ) = 0.37506E+00
  weight for this iteration     100.00

 eigenvalues of (default mixing * dielectric matrix)
  average eigenvalue GAMMA=   1.5025
  0.8429  2.1621

 Free energy of the ion-electron system (eV)
  ---------------------------------------------------
  alpha Z        PSCENC =       264.15118226
  Ewald energy   TEWEN  =     62718.25547561
  -Hartree energ DENC   =    -74567.08296940
  -exchange      EXHF   =         0.00000000
  -V(xc)+E(xc)   XCENC  =     -2083.08285401
  PAW double counting   =      8225.01278153    -5579.74863119
  entropy T*S    EENTRO =        -0.00000000
  eigenvalues    EBANDS =     -1251.93094499
  atomic energy  EATOM  =     11953.08265402
  Solvation  Ediel_sol  =         0.00000000
  ---------------------------------------------------
  free energy    TOTEN  =      -321.34330617 eV

  energy without entropy =     -321.34330617  energy(sigma->0) =     -321.34330617


--------------------------------------------------------------------------------------------------------




--------------------------------------- Iteration      1(   8)  ---------------------------------------


    POTLOK:  cpu time    0.2353: real time    0.2356
    SETDIJ:  cpu time    0.0110: real time    0.0110
    EDDIAG:  cpu time    2.3871: real time    2.3898
  RMM-DIIS:  cpu time   36.6475: real time   36.6945
    ORTHCH:  cpu time    0.1990: real time    0.1992
       DOS:  cpu time    0.0004: real time    0.0004
    CHARGE:  cpu time    1.1070: real time    1.1087
    MIXING:  cpu time    0.0066: real time    0.0066
    --------------------------------------------
      LOOP:  cpu time   40.5940: real time   40.6458

 eigenvalue-minimisations  :  2021
 total energy-change (2. order) : 0.2016888E+00  (-0.3848691E+00)
 number of electron     324.0000002 magnetization 
 augmentation part      -21.1350739 magnetization 

 Broyden mixing:
  rms(total) = 0.94860E-01    rms(broyden)= 0.94860E-01
  rms(prec ) = 0.10390E+00
  weight for this iteration     100.00

 eigenvalues of (default mixing * dielectric matrix)
  average eigenvalue GAMMA=   1.4701
  2.1302  1.4893  0.7908

 Free energy of the ion-electron system (eV)
  ---------------------------------------------------
  alpha Z        PSCENC =       264.15118226
  Ewald energy   TEWEN  =     62718.25547561
  -Hartree energ DENC   =    -74608.39337088
  -exchange      EXHF   =         0.00000000
  -V(xc)+E(xc)   XCENC  =     -2079.91498725
  PAW double counting   =      8506.37374488    -5866.49155164
  entropy T*S    EENTRO =        -0.00000000
  eigenvalues    EBANDS =     -1208.20476439
  atomic energy  EATOM  =     11953.08265402
  Solvation  Ediel_sol  =         0.00000000
  ---------------------------------------------------
  free energy    TOTEN  =      -321.14161740 eV

  energy without entropy =     -321.14161740  energy(sigma->0) =     -321.14161740


--------------------------------------------------------------------------------------------------------




--------------------------------------- Iteration      1(   9)  ---------------------------------------


    POTLOK:  cpu time    0.2353: real time    0.2355
    SETDIJ:  cpu time    0.0110: real time    0.0110
    EDDIAG:  cpu time    2.3665: real time    2.3696
  RMM-DIIS:  cpu time   40.6241: real time   40.6771
    ORTHCH:  cpu time    0.1992: real time    0.2007
       DOS:  cpu time    0.0005: real time    0.0005
    CHARGE:  cpu time    1.1061: real time    1.1074
    MIXING:  cpu time    0.0066: real time    0.0066
    --------------------------------------------
      LOOP:  cpu time   44.5493: real time   44.6084

 eigenvalue-minimisations  :  2223
 total energy-change (2. order) :-0.5243713E-01  (-0.8912286E-01)
 number of electron     324.0000002 magnetization 
 augmentation part      -21.0367991 magnetization 

 Broyden mixing:
  rms(total) = 0.92405E-01    rms(broyden)= 0.92405E-01
  rms(prec ) = 0.10438E+00
  weight for this iteration     100.00

 eigenvalues of (default mixing * dielectric matrix)
  average eigenvalue GAMMA=   1.3992
  2.1857  2.1857  0.7934  0.4322

 Free energy of the ion-electron system (eV)
  ---------------------------------------------------
  alpha Z        PSCENC =       264.15118226
  Ewald energy   TEWEN  =     62718.25547561
  -Hartree energ DENC   =    -74619.65371786
  -exchange      EXHF   =         0.00000000
  -V(xc)+E(xc)   XCENC  =     -2079.49847877
  PAW double counting   =      8552.32162130    -5912.88380715
  entropy T*S    EENTRO =        -0.00000000
  eigenvalues    EBANDS =     -1196.96898395
  atomic energy  EATOM  =     11953.08265402
  Solvation  Ediel_sol  =         0.00000000
  ---------------------------------------------------
  free energy    TOTEN  =      -321.19405453 eV

  energy without entropy =     -321.19405453  energy(sigma->0) =     -321.19405453


--------------------------------------------------------------------------------------------------------




--------------------------------------- Iteration      1(  10)  ---------------------------------------


    POTLOK:  cpu time    0.2358: real time    0.2361
    SETDIJ:  cpu time    0.0113: real time    0.0113
    EDDIAG:  cpu time    2.3697: real time    2.3729
  RMM-DIIS:  cpu time   41.0246: real time   41.0765
    ORTHCH:  cpu time    0.2005: real time    0.2007
       DOS:  cpu time    0.0006: real time    0.0006
    CHARGE:  cpu time    1.1100: real time    1.1116
    MIXING:  cpu time    0.0072: real time    0.0073
    --------------------------------------------
      LOOP:  cpu time   44.9597: real time   45.0169

 eigenvalue-minimisations  :  2215
 total energy-change (2. order) : 0.2004081E-01  (-0.1836694E-01)
 number of electron     324.0000002 magnetization 
 augmentation part      -21.1121562 magnetization 

 Broyden mixing:
  rms(total) = 0.22319E-01    rms(broyden)= 0.22318E-01
  rms(prec ) = 0.27084E-01
  weight for this iteration     100.00

 eigenvalues of (default mixing * dielectric matrix)
  average eigenvalue GAMMA=   1.3324
  2.3223  2.1871  0.8663  0.8663  0.4199

 Free energy of the ion-electron system (eV)
  ---------------------------------------------------
  alpha Z        PSCENC =       264.15118226
  Ewald energy   TEWEN  =     62718.25547561
  -Hartree energ DENC   =    -74629.85158791
  -exchange      EXHF   =         0.00000000
  -V(xc)+E(xc)   XCENC  =     -2079.25777402
  PAW double counting   =      8586.57007536    -5947.27462511
  entropy T*S    EENTRO =        -0.00000000
  eigenvalues    EBANDS =     -1186.84941394
  atomic energy  EATOM  =     11953.08265402
  Solvation  Ediel_sol  =         0.00000000
  ---------------------------------------------------
  free energy    TOTEN  =      -321.17401372 eV

  energy without entropy =     -321.17401372  energy(sigma->0) =     -321.17401372


--------------------------------------------------------------------------------------------------------




--------------------------------------- Iteration      1(  11)  ---------------------------------------


    POTLOK:  cpu time    0.2358: real time    0.2361
    SETDIJ:  cpu time    0.0110: real time    0.0110
    EDDIAG:  cpu time    2.4154: real time    2.4188
  RMM-DIIS:  cpu time   48.2627: real time   48.3271
    ORTHCH:  cpu time    0.2007: real time    0.2009
       DOS:  cpu time    0.0004: real time    0.0004
    CHARGE:  cpu time    1.1061: real time    1.1076
    MIXING:  cpu time    0.0068: real time    0.0068
    --------------------------------------------
      LOOP:  cpu time   52.2389: real time   52.3086

 eigenvalue-minimisations  :  2649
 total energy-change (2. order) :-0.3553223E-02  (-0.5309011E-02)
 number of electron     324.0000002 magnetization 
 augmentation part      -21.1715938 magnetization 

 Broyden mixing:
  rms(total) = 0.16771E-01    rms(broyden)= 0.16771E-01
  rms(prec ) = 0.20286E-01
  weight for this iteration     100.00

 eigenvalues of (default mixing * dielectric matrix)
  average eigenvalue GAMMA=   1.2668
  2.3981  2.0837  1.2986  0.7888  0.6039  0.4281

 Free energy of the ion-electron system (eV)
  ---------------------------------------------------
  alpha Z        PSCENC =       264.15118226
  Ewald energy   TEWEN  =     62718.25547561
  -Hartree energ DENC   =    -74637.84846120
  -exchange      EXHF   =         0.00000000
  -V(xc)+E(xc)   XCENC  =     -2079.12669351
  PAW double counting   =      8602.52375183    -5963.24526548
  entropy T*S    EENTRO =        -0.00000000
  eigenvalues    EBANDS =     -1178.97021047
  atomic energy  EATOM  =     11953.08265402
  Solvation  Ediel_sol  =         0.00000000
  ---------------------------------------------------
  free energy    TOTEN  =      -321.17756695 eV

  energy without entropy =     -321.17756695  energy(sigma->0) =     -321.17756695


--------------------------------------------------------------------------------------------------------




--------------------------------------- Iteration      1(  12)  ---------------------------------------


    POTLOK:  cpu time    0.2362: real time    0.2364
    SETDIJ:  cpu time    0.0110: real time    0.0110
    EDDIAG:  cpu time    2.3671: real time    2.3703
  RMM-DIIS:  cpu time   44.5926: real time   44.6501
    ORTHCH:  cpu time    0.2010: real time    0.2011
       DOS:  cpu time    0.0004: real time    0.0004
    CHARGE:  cpu time    1.1110: real time    1.1121
    MIXING:  cpu time    0.0072: real time    0.0072
    --------------------------------------------
      LOOP:  cpu time   48.5264: real time   48.5886

 eigenvalue-minimisations  :  2441
 total energy-change (2. order) :-0.5114103E-03  (-0.1017310E-02)
 number of electron     324.0000002 magnetization 
 augmentation part      -21.1544140 magnetization 

 Broyden mixing:
  rms(total) = 0.12123E-01    rms(broyden)= 0.12123E-01
  rms(prec ) = 0.15268E-01
  weight for this iteration     100.00

 eigenvalues of (default mixing * dielectric matrix)
  average eigenvalue GAMMA=   1.3506
  2.4441  2.4441  2.0005  0.8673  0.8673  0.4244  0.4065

 Free energy of the ion-electron system (eV)
  ---------------------------------------------------
  alpha Z        PSCENC =       264.15118226
  Ewald energy   TEWEN  =     62718.25547561
  -Hartree energ DENC   =    -74641.21400187
  -exchange      EXHF   =         0.00000000
  -V(xc)+E(xc)   XCENC  =     -2079.08774337
  PAW double counting   =      8604.23860654    -5964.90722476
  entropy T*S    EENTRO =        -0.00000000
  eigenvalues    EBANDS =     -1175.69702678
  atomic energy  EATOM  =     11953.08265402
  Solvation  Ediel_sol  =         0.00000000
  ---------------------------------------------------
  free energy    TOTEN  =      -321.17807836 eV

  energy without entropy =     -321.17807836  energy(sigma->0) =     -321.17807836


--------------------------------------------------------------------------------------------------------




--------------------------------------- Iteration      1(  13)  ---------------------------------------


    POTLOK:  cpu time    0.2369: real time    0.2371
    SETDIJ:  cpu time    0.0109: real time    0.0109
    EDDIAG:  cpu time    2.3701: real time    2.3728
  RMM-DIIS:  cpu time   41.2018: real time   41.2498
    ORTHCH:  cpu time    0.1989: real time    0.1991
       DOS:  cpu time    0.0004: real time    0.0004
    CHARGE:  cpu time    1.1079: real time    1.1090
    MIXING:  cpu time    0.0073: real time    0.0073
    --------------------------------------------
      LOOP:  cpu time   45.1342: real time   45.1865

 eigenvalue-minimisations  :  2217
 total energy-change (2. order) :-0.5518289E-03  (-0.4160052E-03)
 number of electron     324.0000002 magnetization 
 augmentation part      -21.1303857 magnetization 

 Broyden mixing:
  rms(total) = 0.78765E-02    rms(broyden)= 0.78765E-02
  rms(prec ) = 0.10543E-01
  weight for this iteration     100.00

 eigenvalues of (default mixing * dielectric matrix)
  average eigenvalue GAMMA=   1.3549
  2.8610  2.4672  1.8382  1.2119  0.8185  0.8185  0.4407  0.3830

 Free energy of the ion-electron system (eV)
  ---------------------------------------------------
  alpha Z        PSCENC =       264.15118226
  Ewald energy   TEWEN  =     62718.25547561
  -Hartree energ DENC   =    -74647.24694313
  -exchange      EXHF   =         0.00000000
  -V(xc)+E(xc)   XCENC  =     -2079.05230473
  PAW double counting   =      8603.22345319    -5963.75765656
  entropy T*S    EENTRO =        -0.00000000
  eigenvalues    EBANDS =     -1169.83449085
  atomic energy  EATOM  =     11953.08265402
  Solvation  Ediel_sol  =         0.00000000
  ---------------------------------------------------
  free energy    TOTEN  =      -321.17863019 eV

  energy without entropy =     -321.17863019  energy(sigma->0) =     -321.17863019


--------------------------------------------------------------------------------------------------------




--------------------------------------- Iteration      1(  14)  ---------------------------------------


    POTLOK:  cpu time    0.2368: real time    0.2370
    SETDIJ:  cpu time    0.0109: real time    0.0109
    EDDIAG:  cpu time    2.3696: real time    2.3720
  RMM-DIIS:  cpu time   40.0958: real time   40.1474
    ORTHCH:  cpu time    0.1999: real time    0.2001
       DOS:  cpu time    0.0004: real time    0.0004
    CHARGE:  cpu time    1.1095: real time    1.1106
    MIXING:  cpu time    0.0071: real time    0.0072
    --------------------------------------------
      LOOP:  cpu time   44.0299: real time   44.0856

 eigenvalue-minimisations  :  2180
 total energy-change (2. order) :-0.4551609E-03  (-0.1612523E-03)
 number of electron     324.0000002 magnetization 
 augmentation part      -21.1487823 magnetization 

 Broyden mixing:
  rms(total) = 0.35653E-02    rms(broyden)= 0.35653E-02
  rms(prec ) = 0.55424E-02
  weight for this iteration     100.00

 eigenvalues of (default mixing * dielectric matrix)
  average eigenvalue GAMMA=   1.3225
  3.0529  2.2853  1.8688  1.4266  0.9329  0.7558  0.7558  0.4403  0.3843

 Free energy of the ion-electron system (eV)
  ---------------------------------------------------
  alpha Z        PSCENC =       264.15118226
  Ewald energy   TEWEN  =     62718.25547561
  -Hartree energ DENC   =    -74652.20501050
  -exchange      EXHF   =         0.00000000
  -V(xc)+E(xc)   XCENC  =     -2079.02799461
  PAW double counting   =      8604.91412813    -5965.41891509
  entropy T*S    EENTRO =        -0.00000000
  eigenvalues    EBANDS =     -1164.93060517
  atomic energy  EATOM  =     11953.08265402
  Solvation  Ediel_sol  =         0.00000000
  ---------------------------------------------------
  free energy    TOTEN  =      -321.17908535 eV

  energy without entropy =     -321.17908535  energy(sigma->0) =     -321.17908535


--------------------------------------------------------------------------------------------------------




--------------------------------------- Iteration      1(  15)  ---------------------------------------


    POTLOK:  cpu time    0.2371: real time    0.2374
    SETDIJ:  cpu time    0.0111: real time    0.0111
    EDDIAG:  cpu time    2.3704: real time    2.3737
  RMM-DIIS:  cpu time   44.3915: real time   44.4487
    ORTHCH:  cpu time    0.2009: real time    0.2011
       DOS:  cpu time    0.0004: real time    0.0004
    CHARGE:  cpu time    1.1087: real time    1.1105
    MIXING:  cpu time    0.0073: real time    0.0073
    --------------------------------------------
      LOOP:  cpu time   48.3275: real time   48.3902

 eigenvalue-minimisations  :  2430
 total energy-change (2. order) :-0.1072285E-02  (-0.8525417E-04)
 number of electron     324.0000002 magnetization 
 augmentation part      -21.1522927 magnetization 

 Broyden mixing:
  rms(total) = 0.34477E-02    rms(broyden)= 0.34477E-02
  rms(prec ) = 0.47672E-02
  weight for this iteration     100.00

 eigenvalues of (default mixing * dielectric matrix)
  average eigenvalue GAMMA=   1.3590
  3.3650  2.2282  2.2282  1.6673  1.1695  0.7887  0.7887  0.3851  0.4365  0.5330

 Free energy of the ion-electron system (eV)
  ---------------------------------------------------
  alpha Z        PSCENC =       264.15118226
  Ewald energy   TEWEN  =     62718.25547561
  -Hartree energ DENC   =    -74655.07630994
  -exchange      EXHF   =         0.00000000
  -V(xc)+E(xc)   XCENC  =     -2079.00840728
  PAW double counting   =      8604.68917488    -5965.20671732
  entropy T*S    EENTRO =        -0.00000000
  eigenvalues    EBANDS =     -1162.06720986
  atomic energy  EATOM  =     11953.08265402
  Solvation  Ediel_sol  =         0.00000000
  ---------------------------------------------------
  free energy    TOTEN  =      -321.18015763 eV

  energy without entropy =     -321.18015763  energy(sigma->0) =     -321.18015763


--------------------------------------------------------------------------------------------------------




--------------------------------------- Iteration      1(  16)  ---------------------------------------


    POTLOK:  cpu time    0.2383: real time    0.2387
    SETDIJ:  cpu time    0.0110: real time    0.0110
    EDDIAG:  cpu time    2.3687: real time    2.3715
  RMM-DIIS:  cpu time   40.1557: real time   40.2047
    ORTHCH:  cpu time    0.1998: real time    0.2000
       DOS:  cpu time    0.0004: real time    0.0004
    CHARGE:  cpu time    1.1089: real time    1.1104
    MIXING:  cpu time    0.0075: real time    0.0075
    --------------------------------------------
      LOOP:  cpu time   44.0903: real time   44.1442

 eigenvalue-minimisations  :  2149
 total energy-change (2. order) :-0.1475113E-02  (-0.4442046E-04)
 number of electron     324.0000002 magnetization 
 augmentation part      -21.1462735 magnetization 

 Broyden mixing:
  rms(total) = 0.24926E-02    rms(broyden)= 0.24926E-02
  rms(prec ) = 0.32304E-02
  weight for this iteration     100.00

 eigenvalues of (default mixing * dielectric matrix)
  average eigenvalue GAMMA=   1.5106
  4.9763  2.5900  2.3733  1.7531  1.3231  0.8023  0.8023  0.7599  0.4410  0.3839
  0.4116

 Free energy of the ion-electron system (eV)
  ---------------------------------------------------
  alpha Z        PSCENC =       264.15118226
  Ewald energy   TEWEN  =     62718.25547561
  -Hartree energ DENC   =    -74658.66531990
  -exchange      EXHF   =         0.00000000
  -V(xc)+E(xc)   XCENC  =     -2078.98870454
  PAW double counting   =      8603.10268445    -5963.62520741
  entropy T*S    EENTRO =        -0.00000000
  eigenvalues    EBANDS =     -1158.49439724
  atomic energy  EATOM  =     11953.08265402
  Solvation  Ediel_sol  =         0.00000000
  ---------------------------------------------------
  free energy    TOTEN  =      -321.18163274 eV

  energy without entropy =     -321.18163274  energy(sigma->0) =     -321.18163274


--------------------------------------------------------------------------------------------------------




--------------------------------------- Iteration      1(  17)  ---------------------------------------


    POTLOK:  cpu time    0.2387: real time    0.2390
    SETDIJ:  cpu time    0.0111: real time    0.0111
    EDDIAG:  cpu time    2.3702: real time    2.3733
  RMM-DIIS:  cpu time   41.2760: real time   41.3344
    ORTHCH:  cpu time    0.2004: real time    0.2006
       DOS:  cpu time    0.0004: real time    0.0004
    CHARGE:  cpu time    1.1071: real time    1.1088
    MIXING:  cpu time    0.0077: real time    0.0077
    --------------------------------------------
      LOOP:  cpu time   45.2116: real time   45.2753

 eigenvalue-minimisations  :  2211
 total energy-change (2. order) :-0.1253428E-02  (-0.2842502E-04)
 number of electron     324.0000002 magnetization 
 augmentation part      -21.1411994 magnetization 

 Broyden mixing:
  rms(total) = 0.16954E-02    rms(broyden)= 0.16954E-02
  rms(prec ) = 0.19800E-02
  weight for this iteration     100.00

 eigenvalues of (default mixing * dielectric matrix)
  average eigenvalue GAMMA=   1.5042
  5.2782  2.7458  2.1345  1.8955  1.4426  0.9506  0.8075  0.8075  0.7494  0.4401
  0.3845  0.4145

 Free energy of the ion-electron system (eV)
  ---------------------------------------------------
  alpha Z        PSCENC =       264.15118226
  Ewald energy   TEWEN  =     62718.25547561
  -Hartree energ DENC   =    -74661.56223327
  -exchange      EXHF   =         0.00000000
  -V(xc)+E(xc)   XCENC  =     -2078.97991906
  PAW double counting   =      8601.47940240    -5961.99586807
  entropy T*S    EENTRO =        -0.00000000
  eigenvalues    EBANDS =     -1155.61358006
  atomic energy  EATOM  =     11953.08265402
  Solvation  Ediel_sol  =         0.00000000
  ---------------------------------------------------
  free energy    TOTEN  =      -321.18288617 eV

  energy without entropy =     -321.18288617  energy(sigma->0) =     -321.18288617


--------------------------------------------------------------------------------------------------------




--------------------------------------- Iteration      1(  18)  ---------------------------------------


    POTLOK:  cpu time    0.2389: real time    0.2392
    SETDIJ:  cpu time    0.0108: real time    0.0108
    EDDIAG:  cpu time    2.3681: real time    2.3710
  RMM-DIIS:  cpu time   40.0691: real time   40.1186
    ORTHCH:  cpu time    0.2005: real time    0.2007
       DOS:  cpu time    0.0004: real time    0.0004
    CHARGE:  cpu time    1.1094: real time    1.1111
    MIXING:  cpu time    0.0078: real time    0.0078
    --------------------------------------------
      LOOP:  cpu time   44.0050: real time   44.0596

 eigenvalue-minimisations  :  2187
 total energy-change (2. order) :-0.3968572E-03  (-0.7878091E-05)
 number of electron     324.0000002 magnetization 
 augmentation part      -21.1449998 magnetization 

 Broyden mixing:
  rms(total) = 0.85745E-03    rms(broyden)= 0.85745E-03
  rms(prec ) = 0.10788E-02
  weight for this iteration     100.00

 eigenvalues of (default mixing * dielectric matrix)
  average eigenvalue GAMMA=   1.5368
  5.7911  2.8846  2.1771  2.1771  1.6912  1.1566  0.8174  0.8174  0.7665  0.3847
  0.4459  0.4459  0.4224

 Free energy of the ion-electron system (eV)
  ---------------------------------------------------
  alpha Z        PSCENC =       264.15118226
  Ewald energy   TEWEN  =     62718.25547561
  -Hartree energ DENC   =    -74662.11387365
  -exchange      EXHF   =         0.00000000
  -V(xc)+E(xc)   XCENC  =     -2078.98321349
  PAW double counting   =      8601.66379320    -5962.17724325
  entropy T*S    EENTRO =        -0.00000000
  eigenvalues    EBANDS =     -1155.06205773
  atomic energy  EATOM  =     11953.08265402
  Solvation  Ediel_sol  =         0.00000000
  ---------------------------------------------------
  free energy    TOTEN  =      -321.18328303 eV

  energy without entropy =     -321.18328303  energy(sigma->0) =     -321.18328303


--------------------------------------------------------------------------------------------------------




--------------------------------------- Iteration      1(  19)  ---------------------------------------


    POTLOK:  cpu time    0.2401: real time    0.2415
    SETDIJ:  cpu time    0.0109: real time    0.0109
    EDDIAG:  cpu time    2.3724: real time    2.3757
  RMM-DIIS:  cpu time   42.3882: real time   42.4382
    ORTHCH:  cpu time    0.2012: real time    0.2015
       DOS:  cpu time    0.0004: real time    0.0004
    CHARGE:  cpu time    1.1077: real time    1.1088
    MIXING:  cpu time    0.0078: real time    0.0078
    --------------------------------------------
      LOOP:  cpu time   46.3288: real time   46.3848

 eigenvalue-minimisations  :  2297
 total energy-change (2. order) :-0.3803787E-03  (-0.6696005E-05)
 number of electron     324.0000002 magnetization 
 augmentation part      -21.1492196 magnetization 

 Broyden mixing:
  rms(total) = 0.11258E-02    rms(broyden)= 0.11258E-02
  rms(prec ) = 0.12977E-02
  weight for this iteration     100.00

 eigenvalues of (default mixing * dielectric matrix)
  average eigenvalue GAMMA=   1.6259
  6.9238  3.0730  2.4526  2.0379  2.0379  1.1093  1.1093  0.7990  0.7990  0.7573
  0.4416  0.4371  0.3843  0.4001

 Free energy of the ion-electron system (eV)
  ---------------------------------------------------
  alpha Z        PSCENC =       264.15118226
  Ewald energy   TEWEN  =     62718.25547561
  -Hartree energ DENC   =    -74662.58598083
  -exchange      EXHF   =         0.00000000
  -V(xc)+E(xc)   XCENC  =     -2078.98500762
  PAW double counting   =      8602.00887698    -5962.52145575
  entropy T*S    EENTRO =        -0.00000000
  eigenvalues    EBANDS =     -1154.58940808
  atomic energy  EATOM  =     11953.08265402
  Solvation  Ediel_sol  =         0.00000000
  ---------------------------------------------------
  free energy    TOTEN  =      -321.18366341 eV

  energy without entropy =     -321.18366341  energy(sigma->0) =     -321.18366341


--------------------------------------------------------------------------------------------------------




--------------------------------------- Iteration      1(  20)  ---------------------------------------


    POTLOK:  cpu time    0.2409: real time    0.2413
    SETDIJ:  cpu time    0.0105: real time    0.0105
    EDDIAG:  cpu time    2.3694: real time    2.3720
  RMM-DIIS:  cpu time   35.2149: real time   35.2555
    ORTHCH:  cpu time    0.2001: real time    0.2003
       DOS:  cpu time    0.0004: real time    0.0004
    CHARGE:  cpu time    1.1080: real time    1.1093
    MIXING:  cpu time    0.0081: real time    0.0080
    --------------------------------------------
      LOOP:  cpu time   39.1523: real time   39.1973

 eigenvalue-minimisations  :  1949
 total energy-change (2. order) :-0.2085249E-03  (-0.2945200E-05)
 number of electron     324.0000002 magnetization 
 augmentation part      -21.1456665 magnetization 

 Broyden mixing:
  rms(total) = 0.21485E-03    rms(broyden)= 0.21485E-03
  rms(prec ) = 0.30286E-03
  weight for this iteration     100.00

 eigenvalues of (default mixing * dielectric matrix)
  average eigenvalue GAMMA=   1.6682
  6.9600  3.4621  2.5203  2.0685  2.0003  1.8622  1.0662  1.0662  0.7984  0.7984
  0.7579  0.4424  0.4359  0.3843  0.3995

 Free energy of the ion-electron system (eV)
  ---------------------------------------------------
  alpha Z        PSCENC =       264.15118226
  Ewald energy   TEWEN  =     62718.25547561
  -Hartree energ DENC   =    -74662.80972166
  -exchange      EXHF   =         0.00000000
  -V(xc)+E(xc)   XCENC  =     -2078.98138215
  PAW double counting   =      8602.16141302    -5962.67841091
  entropy T*S    EENTRO =        -0.00000000
  eigenvalues    EBANDS =     -1154.36508213
  atomic energy  EATOM  =     11953.08265402
  Solvation  Ediel_sol  =         0.00000000
  ---------------------------------------------------
  free energy    TOTEN  =      -321.18387193 eV

  energy without entropy =     -321.18387193  energy(sigma->0) =     -321.18387193


--------------------------------------------------------------------------------------------------------




--------------------------------------- Iteration      1(  21)  ---------------------------------------


    POTLOK:  cpu time    0.2422: real time    0.2425
    SETDIJ:  cpu time    0.0111: real time    0.0111
    EDDIAG:  cpu time    2.3730: real time    2.3769
  RMM-DIIS:  cpu time   37.3791: real time   37.4213
    ORTHCH:  cpu time    0.2011: real time    0.2013
       DOS:  cpu time    0.0004: real time    0.0004
    CHARGE:  cpu time    1.1061: real time    1.1073
    MIXING:  cpu time    0.0081: real time    0.0081
    --------------------------------------------
      LOOP:  cpu time   41.3212: real time   41.3690

 eigenvalue-minimisations  :  1918
 total energy-change (2. order) :-0.1223343E-03  (-0.1219396E-05)
 number of electron     324.0000002 magnetization 
 augmentation part      -21.1451540 magnetization 

 Broyden mixing:
  rms(total) = 0.23946E-03    rms(broyden)= 0.23946E-03
  rms(prec ) = 0.29190E-03
  weight for this iteration     100.00

 eigenvalues of (default mixing * dielectric matrix)
  average eigenvalue GAMMA=   1.6555
  7.0032  3.8208  2.6017  2.4120  1.9811  1.9811  1.0812  1.0812  0.7948  0.7948
  0.7538  0.5205  0.4419  0.4351  0.3844  0.4000

 Free energy of the ion-electron system (eV)
  ---------------------------------------------------
  alpha Z        PSCENC =       264.15118226
  Ewald energy   TEWEN  =     62718.25547561
  -Hartree energ DENC   =    -74662.93523046
  -exchange      EXHF   =         0.00000000
  -V(xc)+E(xc)   XCENC  =     -2078.98236395
  PAW double counting   =      8602.21827174    -5962.73530481
  entropy T*S    EENTRO =        -0.00000000
  eigenvalues    EBANDS =     -1154.23867868
  atomic energy  EATOM  =     11953.08265402
  Solvation  Ediel_sol  =         0.00000000
  ---------------------------------------------------
[...]
 -0.000  -0.000   0.000   0.000   0.000   0.011  -0.000  -0.000
 -0.000   0.000   0.000   0.000   0.000  -0.000   0.011  -0.000
 -0.000  -0.000   0.000   0.000   0.000  -0.000  -0.000   0.011
 -0.000  -0.000   0.000   0.000   0.000  -0.000  -0.000   0.000
  0.000  -0.000  -0.017   0.001   0.000  -0.000  -0.000  -0.000
 -0.010  -0.000   0.000  -0.021  -0.000   0.000  -0.000   0.000
 -0.000  -0.000   0.000   0.001  -0.017  -0.000  -0.000  -0.000
 -0.000  -0.000  -0.000   0.000   0.000   0.000  -0.000  -0.000
 total augmentation occupancy for first ion, spin component:           1
  1.928   0.265   0.000   0.197   0.003  -0.007   0.058  -0.003   0.001  -0.001   0.008  -0.001   0.001
  0.265   1.512   0.014  -0.978  -0.001   0.011   0.402  -0.012  -0.004  -0.003  -0.028  -0.000  -0.006
  0.000   0.014   1.350  -0.010  -0.003  -0.519   0.006   0.000   0.001  -0.125  -0.000   0.002  -0.047
  0.197  -0.978  -0.010   1.526  -0.005   0.006  -0.581   0.006   0.001   0.002  -0.042   0.003   0.001
  0.003  -0.001  -0.003  -0.005   1.348   0.000   0.005  -0.512  -0.043   0.002   0.002  -0.124  -0.001
 -0.007   0.011  -0.519   0.006   0.000   0.361  -0.002  -0.003  -0.002   0.042  -0.001   0.001   0.008
  0.058   0.402   0.006  -0.581   0.005  -0.002   0.325  -0.002   0.000  -0.001   0.052  -0.002   0.000
 -0.003  -0.012   0.000   0.006  -0.512  -0.003  -0.002   0.351   0.009   0.001   0.001   0.043  -0.001
  0.001  -0.004   0.001   0.001  -0.043  -0.002   0.000   0.009   0.025  -0.000   0.001  -0.001   0.000
 -0.001  -0.003  -0.125   0.002   0.002   0.042  -0.001   0.001  -0.000   0.022  -0.000  -0.000  -0.000
  0.008  -0.028  -0.000  -0.042   0.002  -0.001   0.052   0.001   0.001  -0.000   0.023  -0.000   0.001
 -0.001  -0.000   0.002   0.003  -0.124   0.001  -0.002   0.043  -0.001  -0.000  -0.000   0.021  -0.000
  0.001  -0.006  -0.047   0.001  -0.001   0.008   0.000  -0.001   0.000  -0.000   0.001  -0.000   0.024


------------------------ aborting loop because EDIFF is reached ----------------------------------------


    CHARGE:  cpu time    1.1115: real time    1.1127
    FORLOC:  cpu time    0.0720: real time    0.0720
    FORNL :  cpu time   12.1944: real time   12.2062
    STRESS:  cpu time   66.3305: real time   66.4097
    FORCOR:  cpu time    0.2724: real time    0.2727
    FORHAR:  cpu time    0.1142: real time    0.1143
    MIXING:  cpu time    0.0071: real time    0.0071
    OFIELD:  cpu time    0.0000: real time    0.0000

  Number of pair interactions contributing to vdW energy:  288246
  Edisp (eV):  -19.86591
    FORVDW:  cpu time    0.0310: real time    0.0310

  FORCE on cell =-STRESS in cart. coord.  units (eV):
  Direction    XX          YY          ZZ          XY          YZ          ZX
  --------------------------------------------------------------------------------------
  Alpha Z   264.15118   264.15118   264.15118
  Ewald   71802.70013 71898.36397-81200.27515   -20.54307   -33.36619    -9.90963
  Hartree 74107.62468 74130.95045-73784.80140    -3.68174    -5.83154    -2.91616
  E(xc)   -1368.52048 -1370.00448 -1389.82616     0.56058     0.79312    -0.00961
  Local  ************************149893.48305    23.05305    36.93666    11.96329
  n-local  3590.70361  3592.50543  3789.91879    -0.70849    -4.97970     0.43723
  augment  -760.42311  -758.99886  -803.93971    -0.40793     0.56950    -0.23775
  Kinetic  3325.62746  3344.31536  3288.00154    -5.10204    -6.98864    -2.28639
  Fock        0.00000     0.00000     0.00000     0.00000     0.00000     0.00000
  vdW       -13.39273   -12.97725   -11.10056     0.03001    -0.54657    -0.49167
  -------------------------------------------------------------------------------------
  Total      40.87990    66.91276    45.61160    -6.79963   -13.41336    -3.45069
  in kB      24.10741    39.45932    26.89775    -4.00983    -7.91003    -2.03492
  external pressure =       30.15 kB  Pullay stress =        0.00 kB

  kinetic pressure (ideal gas correction) =      0.31 kB
  total pressure  =     30.46 kB
  Total+kin.    24.273      39.629      27.485      -4.007      -7.976      -2.124

 VOLUME and BASIS-vectors are now :
 -----------------------------------------------------------------------------
  energy-cutoff  :      550.00
  volume of cell :     2716.88
      direct lattice vectors                 reciprocal lattice vectors
    10.402701159  0.000000000  0.000000000     0.096128879  0.055465171 -0.000954199
    -5.085108432  8.813202351  0.000000000     0.000000000  0.113466134 -0.001451861
     0.075370443  0.379183061 29.633985006     0.000000000  0.000000000  0.033745040

  length of vectors
    10.402701159 10.175011717 29.636506674     0.110986743  0.113475422  0.033745040


 FORCES acting on ions
    electron-ion (+dipol)            ewald-force                    non-local-force                 convergence-correction
 -----------------------------------------------------------------------------------------------
   0.203E+01 -.127E+01 -.872E+03   -.195E+01 0.136E+01 0.877E+03   -.313E+00 -.174E+00 -.442E+01   -.630E-03 -.445E-04 0.644E-04
   -.880E+00 0.412E+01 -.871E+03   0.916E+00 -.407E+01 0.876E+03   -.924E-02 -.456E+00 -.466E+01   0.151E-04 -.158E-03 0.183E-03
   0.101E+01 0.139E+01 -.873E+03   -.102E+01 -.128E+01 0.878E+03   0.237E-01 -.243E+00 -.478E+01   -.107E-03 -.222E-03 0.432E-03
   0.396E+01 0.261E+00 -.872E+03   -.394E+01 -.206E+00 0.878E+03   -.512E+00 -.254E+00 -.424E+01   0.137E-03 -.556E-03 0.884E-03
   0.208E+01 0.173E+01 -.872E+03   -.204E+01 -.167E+01 0.878E+03   -.106E+00 -.356E+00 -.449E+01   -.615E-03 0.241E-03 0.768E-03
   -.588E+00 0.486E+01 -.875E+03   0.541E+00 -.473E+01 0.880E+03   0.167E+00 -.651E+00 -.448E+01   0.187E-05 0.155E-04 0.311E-03
   -.220E+01 -.114E+01 -.871E+03   0.228E+01 0.125E+01 0.876E+03   -.114E+00 -.183E+00 -.453E+01   0.487E-03 -.176E-03 -.170E-04
   0.161E+01 -.118E+01 -.873E+03   -.157E+01 0.125E+01 0.878E+03   -.294E+00 0.785E-01 -.455E+01   0.600E-03 0.352E-03 0.805E-03
   -.110E+01 0.313E+01 -.874E+03   0.111E+01 -.305E+01 0.879E+03   0.182E+00 -.572E+00 -.451E+01   0.943E-04 0.492E-03 0.157E-03
   0.208E+01 0.168E+00 0.106E+03   -.201E+01 -.548E-01 -.101E+03   -.267E+00 -.163E+00 -.465E+01   -.407E-04 -.176E-03 0.739E-03
   0.765E+00 0.328E+01 0.105E+03   -.717E+00 -.317E+01 -.999E+02   -.194E+00 -.469E+00 -.479E+01   -.755E-03 -.472E-03 0.309E-03
   0.325E+00 0.698E-01 0.109E+03   -.275E+00 0.150E-01 -.104E+03   0.385E-01 -.250E+00 -.443E+01   -.437E-03 -.667E-04 0.424E-03
   -.153E+01 0.199E+01 0.109E+03   0.165E+01 -.190E+01 -.103E+03   -.206E-01 -.468E+00 -.445E+01   0.337E-04 -.439E-04 0.854E-03
   -.620E+00 0.175E+01 0.105E+03   0.692E+00 -.159E+01 -.100E+03   -.701E-01 -.520E+00 -.475E+01   0.160E-03 -.295E-03 0.117E-02
   -.141E+01 -.184E+01 0.108E+03   0.147E+01 0.208E+01 -.103E+03   -.221E-01 -.331E+00 -.505E+01   -.135E-03 0.371E-03 0.109E-02
   0.157E+01 0.235E+01 0.110E+03   -.151E+01 -.225E+01 -.105E+03   -.237E+00 -.354E+00 -.498E+01   -.198E-05 0.660E-03 0.308E-03
   0.147E+01 0.137E+01 0.106E+03   -.138E+01 -.123E+01 -.101E+03   -.953E-01 -.216E+00 -.456E+01   0.609E-03 -.212E-04 0.941E-05
   0.127E+01 0.132E+01 0.107E+03   -.119E+01 -.114E+01 -.101E+03   -.200E-01 -.519E+00 -.508E+01   0.543E-03 0.431E-04 0.731E-03
   0.360E+01 -.117E+01 -.106E+03   -.363E+01 0.115E+01 0.100E+03   -.271E+00 -.108E-01 0.488E+01   -.640E-03 0.789E-04 -.217E-03
   -.256E+01 0.208E+01 -.111E+03   0.260E+01 -.214E+01 0.105E+03   0.211E+00 0.425E-01 0.478E+01   0.186E-03 -.254E-03 -.225E-03
   -.196E+01 0.961E+00 -.105E+03   0.201E+01 -.987E+00 0.996E+02   0.986E-01 -.249E-01 0.474E+01   0.221E-04 -.674E-04 -.354E-03
   -.984E+00 0.280E+01 -.109E+03   0.106E+01 -.287E+01 0.103E+03   -.222E-01 -.278E+00 0.445E+01   0.182E-03 -.527E-03 -.105E-02
   0.490E+01 0.111E-01 -.107E+03   -.500E+01 -.594E-01 0.101E+03   -.131E+00 0.137E+00 0.463E+01   -.775E-03 0.206E-03 -.952E-03
   0.144E+01 0.328E+01 -.107E+03   -.152E+01 -.332E+01 0.102E+03   -.188E-01 -.256E+00 0.483E+01   0.558E-04 -.212E-05 -.338E-03
   0.772E+00 -.929E+00 -.110E+03   -.756E+00 0.873E+00 0.105E+03   -.310E+00 0.195E+00 0.496E+01   0.461E-03 -.155E-03 -.105E-03
   -.852E-01 0.266E+01 -.103E+03   0.119E+00 -.278E+01 0.982E+02   -.983E-01 0.697E-01 0.464E+01   0.574E-03 0.103E-03 -.888E-03
   0.130E+01 -.101E+01 -.105E+03   -.133E+01 0.990E+00 0.100E+03   0.353E-01 0.142E+00 0.428E+01   -.645E-04 0.606E-03 -.217E-03
   -.395E+00 0.305E+01 0.872E+03   0.424E+00 -.308E+01 -.878E+03   0.956E-01 -.257E+00 0.449E+01   0.958E-05 -.218E-03 -.540E-03
   0.423E-01 0.158E+01 0.873E+03   -.431E-01 -.154E+01 -.878E+03   -.760E-01 -.151E-01 0.439E+01   -.737E-03 -.341E-03 -.264E-03
   0.307E+01 -.196E+01 0.873E+03   -.309E+01 0.197E+01 -.878E+03   -.231E+00 0.219E+00 0.443E+01   -.500E-03 -.122E-03 -.308E-03
   0.187E+01 -.280E+00 0.873E+03   -.185E+01 0.268E+00 -.879E+03   -.208E+00 0.150E+00 0.449E+01   -.889E-04 0.648E-04 -.704E-03
   -.488E+00 0.508E+00 0.872E+03   0.567E+00 -.438E+00 -.877E+03   -.224E+00 -.598E-01 0.462E+01   0.187E-03 -.229E-03 -.107E-02
   -.644E+00 0.858E+00 0.874E+03   0.688E+00 -.865E+00 -.879E+03   -.170E+00 -.517E-01 0.469E+01   -.162E-03 0.116E-03 -.103E-02
   -.523E+00 0.420E+00 0.869E+03   0.539E+00 -.412E+00 -.874E+03   0.819E-01 0.153E+00 0.463E+01   0.844E-04 0.729E-03 -.215E-03
   0.353E+01 -.166E-02 0.872E+03   -.349E+01 0.642E-01 -.878E+03   -.344E+00 0.916E-01 0.451E+01   0.562E-03 0.950E-04 0.339E-04
   -.270E+00 0.203E+01 0.871E+03   0.363E+00 -.198E+01 -.876E+03   -.475E-01 -.255E+00 0.469E+01   0.675E-03 -.645E-04 -.603E-03
   -.197E+01 -.615E+01 -.490E+03   0.217E+01 0.634E+01 0.490E+03   0.166E+00 0.293E+00 -.153E+00   -.997E-04 0.290E-03 -.344E-03
   -.442E+01 0.934E+00 -.488E+03   0.451E+01 -.913E+00 0.488E+03   0.254E+00 -.326E+00 0.214E-01   0.710E-03 -.334E-03 -.304E-03
   -.199E+01 -.993E+00 -.486E+03   0.208E+01 0.102E+01 0.486E+03   -.169E+00 -.688E-01 0.554E+00   0.137E-03 0.450E-03 -.270E-04
   -.699E+00 -.553E+00 -.487E+03   0.796E+00 0.527E+00 0.487E+03   0.157E+00 0.244E-01 0.220E+00   -.443E-03 -.275E-03 -.268E-03
   0.251E+01 -.273E+01 -.493E+03   -.253E+01 0.286E+01 0.493E+03   -.177E+00 0.915E-01 -.197E+00   -.746E-03 -.117E-03 -.407E-03
   -.198E+01 -.583E+00 -.490E+03   0.200E+01 0.826E+00 0.490E+03   -.137E+00 -.562E-02 -.562E-01   0.102E-03 -.216E-03 -.311E-03
   -.316E+01 -.201E+01 -.496E+03   0.331E+01 0.214E+01 0.495E+03   0.306E+00 0.314E+00 -.578E+00   0.571E-03 -.271E-03 -.456E-03
   -.981E+00 -.321E+01 -.490E+03   0.111E+01 0.348E+01 0.490E+03   0.131E+00 0.172E+00 0.118E+00   0.334E-04 -.186E-04 -.284E-03
   0.342E+01 -.595E+00 -.487E+03   -.355E+01 0.724E+00 0.487E+03   -.427E+00 0.826E-01 0.282E+00   -.287E-03 0.516E-03 -.341E-03
   -.206E+00 -.180E+01 0.493E+03   0.221E+00 0.192E+01 -.493E+03   0.123E+00 0.418E-01 -.168E+00   -.298E-03 -.266E-03 0.331E-03
   -.178E+01 -.170E+01 0.486E+03   0.189E+01 0.190E+01 -.486E+03   0.152E+00 0.193E+00 0.115E-01   -.467E-03 -.434E-03 0.347E-03
   -.399E+01 -.317E+01 0.493E+03   0.421E+01 0.328E+01 -.493E+03   0.306E+00 0.244E+00 0.194E+00   -.789E-03 -.213E-03 0.335E-03
   -.368E+01 -.625E+00 0.491E+03   0.378E+01 0.611E+00 -.491E+03   0.190E+00 0.103E+00 0.311E+00   0.145E-03 0.552E-03 0.599E-03
   -.833E+00 -.378E+01 0.489E+03   0.892E+00 0.402E+01 -.489E+03   0.861E-01 0.194E+00 -.211E+00   0.628E-03 0.199E-04 0.290E-03
   -.252E+01 -.418E+01 0.489E+03   0.258E+01 0.442E+01 -.489E+03   0.191E+00 0.422E+00 0.469E-01   0.416E-03 0.125E-03 0.321E-03
   0.418E+00 -.973E+00 0.490E+03   -.328E+00 0.106E+01 -.490E+03   -.708E-01 0.392E+00 0.130E+00   0.151E-03 0.240E-03 0.378E-03
   -.205E+01 0.179E+01 0.487E+03   0.224E+01 -.169E+01 -.487E+03   0.167E+00 -.236E+00 0.646E-01   -.155E-03 0.893E-04 0.429E-03
   0.401E+01 -.290E+01 0.489E+03   -.412E+01 0.303E+01 -.489E+03   -.301E+00 0.164E+00 -.153E+00   0.321E-03 -.183E-03 0.236E-03
 -----------------------------------------------------------------------------------------------
   0.254E+01 0.401E+01 -.175E+00   -.799E-14 -.391E-13 0.176E-11   -.255E+01 -.401E+01 0.171E+00   -.776E-04 -.815E-04 0.704E-03
 
 
 POSITION                                       TOTAL-FORCE (eV/Angst)
 -----------------------------------------------------------------------------------
      1.81332      1.21270     20.23711        -0.224186     -0.092893      0.802571
      0.08515      4.18817     20.24975         0.017112     -0.394280      0.586631
     -1.61222      7.10106     20.25876         0.006705     -0.135838      0.355082
      5.27476      1.22836     20.22922        -0.482481     -0.196809      1.022862
      3.57648      4.18100     20.24090        -0.059803     -0.279605      0.726898
      1.87119      7.10415     20.26711         0.119423     -0.516014      0.662464
      8.73085      1.23047     20.23803        -0.037523     -0.079905      0.770060
      7.03786      4.15520     20.24443        -0.245808      0.133477      0.611286
      5.33196      7.11499     20.24648         0.188931     -0.478278      0.652289
      9.31324      2.10902     12.99797        -0.171106     -0.034079      0.644062
     -2.78009      5.09354     13.01555        -0.123575     -0.307541      0.453190
      5.90932      8.00240     12.96579         0.101515     -0.140262      0.909744
      2.35712      2.13151     12.97063         0.107780     -0.343275      0.880689
      0.66822      5.07245     13.01013         0.014539     -0.326825      0.534123
     -1.03743      8.00256     13.00929         0.044815     -0.070470      0.220451
      5.85125      2.13152     12.98605        -0.157191     -0.223865      0.438787
      4.13957      5.05180     12.99489         0.012565     -0.055635      0.755342
      2.43454      8.00093     13.02146         0.073472     -0.306648      0.234780
      1.79560      1.20236     16.62873        -0.312508     -0.058731     -0.475837
      0.06708      4.13640     16.65755         0.213504     -0.040720     -0.584976
     -1.60331      7.07330     16.62147         0.123861     -0.086322     -0.551793
      5.25684      1.20912     16.67350         0.041808     -0.365808     -0.930730
      3.56770      4.11674     16.64557        -0.237181      0.045313     -0.711980
      1.87555      7.09676     16.64080        -0.118130     -0.302704     -0.468346
      8.72731      1.17182     16.65634        -0.309089      0.093276     -0.437495
      7.01611      4.12758     16.62173        -0.091864     -0.080498     -0.648244
      5.33559      7.06463     16.65106        -0.007568      0.087949     -1.058168
     -1.12710      2.11855      9.38909         0.110779     -0.270309     -0.699961
     -2.79069      5.02244      9.38904        -0.076999      0.011590     -0.757840
     -4.48290      7.95225      9.39386        -0.244516      0.214862     -0.799394
      2.36679      2.08193      9.38381        -0.193613      0.129079     -0.731034
      0.67965      5.01242      9.38546        -0.143576     -0.003813     -0.525117
     -1.01499      7.95820      9.36281        -0.123695     -0.062592     -0.481264
      5.82574      2.08111      9.40171         0.092246      0.155389     -0.658276
      4.16071      5.01396      9.39019        -0.290363      0.143248     -0.661627
      2.43991      7.96138      9.38336         0.041021     -0.213283     -0.488366
      5.36182      9.03183     18.45256         0.349119      0.527407     -0.238300
      8.72594      3.19424     18.43964         0.392160     -0.352182      0.016667
     -3.33473      6.11193     18.40572        -0.080216     -0.040191      0.833043
     -1.58395      9.04258     18.42524         0.263667      0.011915      0.323427
      1.82601      3.16977     18.45913        -0.214614      0.234870     -0.221110
      0.13361      6.12362     18.45098        -0.112082      0.205129     -0.143550
      1.87968      9.02407     18.48980         0.488718      0.477763     -0.867394
      5.28453      3.16797     18.43800         0.258794      0.431851      0.255064
      3.62150      6.10895     18.42642        -0.586181      0.205748      0.373361
      0.61024      1.13694     11.18859         0.151568      0.143052     -0.391613
     -1.08590      4.06073     11.20135         0.261296      0.383584      0.080527
     -2.77567      6.99592     11.17306         0.531590      0.386061      0.226631
      4.07287      1.11909     11.16776         0.319686      0.103413      0.493887
      2.39366      4.05866     11.20105         0.147803      0.446065     -0.369663
      0.68427      6.97957     11.19125         0.267372      0.676995      0.009429
      7.56546      1.10211     11.18669        -0.015652      0.507305      0.159850
      5.86490      4.08991     11.19415         0.354282     -0.204458      0.125998
      4.17952      6.99131     11.20133        -0.437194      0.309728     -0.260032
 -----------------------------------------------------------------------------------
    total drift:                               -0.000581      0.001237     -0.002916


--------------------------------------------------------------------------------------------------------



  FREE ENERGIE OF THE ION-ELECTRON SYSTEM (eV)
  ---------------------------------------------------
  free  energy   TOTEN  =      -341.19886759 eV

  energy  without entropy=     -341.19886759  energy(sigma->0) =     -341.19886759
 
 d Force = 0.2394005E-01[ 0.210E-01, 0.269E-01]  d Energy = 0.2385082E-01 0.892E-04
 d Force = 0.3691558E+02[ 0.369E+02, 0.369E+02]  d Ewald  = 0.3691559E+02-0.670E-05


--------------------------------------------------------------------------------------------------------


    POTLOK:  cpu time    0.2484: real time    0.2488


--------------------------------------------------------------------------------------------------------


           RANDOM_SEED =         216378537              324                0
   IONSTEP:  cpu time    0.0001: real time    0.0001

  ENERGY OF THE ELECTRON-ION-THERMOSTAT SYSTEM (eV)
  ---------------------------------------------------
% ion-electron   TOTEN  =      -341.198868  see above
  kinetic energy EKIN   =         0.787955
  kin. lattice  EKIN_LAT=         0.000000  (temperature  115.02 K)
  nose potential ES     =         0.029479
  nose kinetic   EPS    =         0.003229
  ---------------------------------------------------
  total energy   ETOTAL =      -340.378205 eV

  maximum distance moved by ions :      0.50E-03


 mean value of Nose-termostat <S>:     1.031 mean value of <T> :   115.016
 mean temperature <T/S>/<1/S>  :   115.016

    WAVPRE:  cpu time    0.0936: real time    0.0961
    FEWALD:  cpu time    0.0009: real time    0.0009
    ORTHCH:  cpu time    7.4169: real time    7.4250
    POTLOK:  cpu time    0.2485: real time    0.2487
    EDDIAG:  cpu time    2.3629: real time    2.3657
     LOOP+:  cpu time  465.2378: real time  465.8187
    4ORBIT:  cpu time    0.0000: real time    0.0000

 total amount of memory used by VASP MPI-rank0   341834. kBytes
=======================================================================

   base      :      30000. kBytes
   nonl-proj :     183490. kBytes
   fftplans  :      16533. kBytes
   grid      :      78796. kBytes
   one-center:        839. kBytes
   wavefun   :      32176. kBytes
 
  
  
 General timing and accounting informations for this job:
 ========================================================
  
                  Total CPU time used (sec):     5339.359
                            User time (sec):     5326.819
                          System time (sec):       12.541
                         Elapsed time (sec):     5346.508
  
                   Maximum memory used (kb):      768448.
                   Average memory used (kb):           0.
  
                          Minor page faults:       399619
                          Major page faults:            0
                 Voluntary context switches:          529
