 vasp.6.1.1 19Jun20 (build Dec 21 2021 08:45:49) complex                        
  
 executed on             LinuxIFC date 2023.10.07  17:00:17
 running on   40 total cores
 distrk:  each k-point on   40 cores,    1 groups
 distr:  one band on NCORE=   1 cores,   40 groups


--------------------------------------------------------------------------------------------------------


 INCAR:
 POTCAR:   PAW_PBE Te 08Apr2002                   
 POTCAR:   PAW_PBE Mo 08Apr2002                   
 -----------------------------------------------------------------------------
|                                                                             |
|           W    W    AA    RRRRR   N    N  II  N    N   GGGG   !!!           |
|           W    W   A  A   R    R  NN   N  II  NN   N  G    G  !!!           |
|           W    W  A    A  R    R  N N  N  II  N N  N  G       !!!           |
|           W WW W  AAAAAA  RRRRR   N  N N  II  N  N N  G  GGG   !            |
|           WW  WW  A    A  R   R   N   NN  II  N   NN  G    G                |
|           W    W  A    A  R    R  N    N  II  N    N   GGGG   !!!           |
|                                                                             |
|     For optimal performance we recommend to set                             |
|       NCORE = 4 - approx SQRT(number of cores).                             |
|     NCORE specifies how many cores store one orbital (NPAR=cpu/NCORE).      |
|     This setting can greatly improve the performance of VASP for DFT.       |
|     The default, NCORE=1 might be grossly inefficient on modern             |
|     multi-core architectures or massively parallel machines. Do your        |
|     own testing!!!!                                                         |
|     Unfortunately you need to use the default for GW and RPA                |
|     calculations (for HF NCORE is supported but not extensively tested      |
|     yet).                                                                   |
|                                                                             |
 -----------------------------------------------------------------------------

 POTCAR:   PAW_PBE Te 08Apr2002                   
   VRHFIN =Te: s2p4                                                                                 
   LEXCH  = PE                                                                                      
   EATOM  =   223.2721 eV,   16.4100 Ry                                                             
                                                                                                    
   TITEL  = PAW_PBE Te 08Apr2002                                                                    
   LULTRA =        F    use ultrasoft PP ?                                                          
   IUNSCR =        1    unscreen: 0-lin 1-nonlin 2-no                                               
   RPACOR =    2.200    partial core radius                                                         
   POMASS =  127.600; ZVAL   =    6.000    mass and valenz                                          
   RCORE  =    2.300    outmost cutoff radius                                                       
   RWIGS  =    2.900; RWIGS  =    1.535    wigner-seitz radius (au A)                               
   ENMAX  =  174.982; ENMIN  =  131.236 eV                                                          
   ICORE  =        3    local potential                                                             
   LCOR   =        T    correct aug charges                                                         
   LPAW   =        T    paw PP                                                                      
   EAUG   =  368.792                                                                                
   DEXC   =    -.169                                                                                
   RMAX   =    3.486    core radius for proj-oper                                                   
   RAUG   =    1.300    factor for augmentation sphere                                              
   RDEP   =    2.397    radius for radial grids                                                     
   QCUT   =   -3.586; QGAM   =    7.172    optimization parameters                                  
                                                                                                    
   Description                                                                                      
     l     E      TYP  RCUT    TYP  RCUT                                                            
     0   .000     23  2.300                                                                         
     0   .000     23  2.300                                                                         
     1   .000     23  2.300                                                                         
     1   .000     23  2.300                                                                         
     2   .000     23  2.300                                                                         
     3  -.100     23  2.300                                                                         
  local pseudopotential read in
  partial core-charges read in
  atomic valenz-charges read in
  non local Contribution for L=           0  read in
    real space projection operators read in
  non local Contribution for L=           0  read in
    real space projection operators read in
  non local Contribution for L=           1  read in
    real space projection operators read in
  non local Contribution for L=           1  read in
    real space projection operators read in
  non local Contribution for L=           2  read in
    real space projection operators read in
    PAW grid and wavefunctions read in
 
   number of l-projection  operators is LMAX  =           5
   number of lm-projection operators is LMMAX =          13
 
 POTCAR:   PAW_PBE Mo 08Apr2002                   
   VRHFIN =Mo: 4p5s4d                                                                               
   LEXCH  = PE                                                                                      
   EATOM  =   217.5180 eV,   15.9871 Ry                                                             
                                                                                                    
   TITEL  = PAW_PBE Mo 08Apr2002                                                                    
   LULTRA =        F    use ultrasoft PP ?                                                          
   IUNSCR =        1    unscreen: 0-lin 1-nonlin 2-no                                               
   RPACOR =    2.200    partial core radius                                                         
   POMASS =   95.940; ZVAL   =    6.000    mass and valenz                                          
   RCORE  =    2.750    outmost cutoff radius                                                       
   RWIGS  =    2.750; RWIGS  =    1.455    wigner-seitz radius (au A)                               
   ENMAX  =  224.584; ENMIN  =  168.438 eV                                                          
   RCLOC  =    2.111    cutoff for local pot                                                        
   LCOR   =        T    correct aug charges                                                         
   LPAW   =        T    paw PP                                                                      
   EAUG   =  345.278                                                                                
   DEXC   =    -.088                                                                                
   RMAX   =    3.077    core radius for proj-oper                                                   
   RAUG   =    1.300    factor for augmentation sphere                                              
   RDEP   =    2.815    radius for radial grids                                                     
   QCUT   =   -4.063; QGAM   =    8.126    optimization parameters                                  
                                                                                                    
   Description                                                                                      
     l     E      TYP  RCUT    TYP  RCUT                                                            
     2   .000     23  2.500                                                                         
     2   .000     23  2.500                                                                         
     0   .000     23  2.600                                                                         
     0  1.000     23  2.600                                                                         
     1   .400     23  2.750                                                                         
     1  2.000     23  2.750                                                                         
     3   .000      7   .000                                                                         
  local pseudopotential read in
  partial core-charges read in
  atomic valenz-charges read in
  non local Contribution for L=           2  read in
    real space projection operators read in
  non local Contribution for L=           2  read in
    real space projection operators read in
  non local Contribution for L=           0  read in
    real space projection operators read in
  non local Contribution for L=           0  read in
    real space projection operators read in
  non local Contribution for L=           1  read in
    real space projection operators read in
  non local Contribution for L=           1  read in
    real space projection operators read in
    PAW grid and wavefunctions read in
 
   number of l-projection  operators is LMAX  =           6
   number of lm-projection operators is LMMAX =          18
 
 -----------------------------------------------------------------------------
|                                                                             |
|               ----> ADVICE to this user running VASP <----                  |
|                                                                             |
|     You have a (more or less) 'large supercell' and for larger cells it     |
|     might be more efficient to use real-space projection operators.         |
|     Therefore, try LREAL= Auto in the INCAR file.                           |
|     Mind: If you want to do very accurate calculations, keep the            |
|     reciprocal projection scheme (i.e. LREAL=.FALSE.).                      |
|                                                                             |
 -----------------------------------------------------------------------------

 PAW_PBE Te 08Apr2002                   :
 energy of atom  1       EATOM= -223.2721
 kinetic energy error for atom=    0.0006 (will be added to EATOM!!)
 PAW_PBE Mo 08Apr2002                   :
 energy of atom  2       EATOM= -217.5180
 kinetic energy error for atom=    0.0009 (will be added to EATOM!!)
 
 
 POSCAR: Te Mo
  positions in cartesian coordinates
  No initial velocities read in
 exchange correlation table for  LEXCH =        8
   RHO(1)=    0.500       N(1)  =     2000
   RHO(2)=  100.500       N(2)  =     4000
 


--------------------------------------------------------------------------------------------------------


 ion  position               nearest neighbor table
   1  0.222  0.111  0.689-  40 2.68  37 2.73  41 2.75   7 3.54   9 3.55   3 3.55   2 3.55   4 3.56
                             5 3.56  19 3.58
   2  0.222  0.445  0.689-  41 2.68  38 2.73  42 2.74   6 3.55   3 3.55   8 3.55   7 3.55   1 3.55
                             5 3.55  20 3.57
   3  0.223  0.778  0.689-  42 2.68  39 2.74  40 2.75   6 3.54   2 3.55   1 3.55   9 3.55   4 3.55
                             8 3.55  21 3.58
   4  0.556  0.112  0.689-  43 2.68  40 2.74  44 2.75   5 3.55   8 3.55   3 3.55   1 3.56   7 3.56
                             6 3.56  22 3.58
   5  0.556  0.445  0.689-  44 2.67  41 2.73  45 2.75   6 3.55   4 3.55   8 3.55   9 3.55   2 3.55
                             1 3.56  23 3.57
   6  0.555  0.777  0.689-  45 2.69  42 2.73  43 2.76   3 3.54   2 3.55   5 3.55   9 3.56   4 3.56
                             7 3.56  24 3.58
   7  0.890  0.111  0.689-  37 2.68  43 2.74  38 2.74   1 3.54   2 3.55   9 3.55   8 3.56   4 3.56
                             6 3.56  25 3.58
   8  0.889  0.445  0.689-  38 2.68  44 2.73  39 2.74   9 3.55   2 3.55   4 3.55   5 3.55   3 3.55
                             7 3.56  26 3.57
   9  0.889  0.778  0.689-  39 2.67  45 2.73  37 2.75   8 3.55   1 3.55   5 3.55   7 3.55   3 3.55
                             6 3.56  27 3.57
  10  0.222  0.111  0.432-  49 2.68  46 2.73  50 2.74  12 3.54  16 3.55  13 3.55  11 3.55  18 3.55
                            14 3.55  28 3.57
  11  0.222  0.444  0.432-  50 2.68  47 2.73  51 2.75  17 3.55  15 3.55  16 3.55  10 3.55  14 3.55
                            12 3.56  29 3.57
  12  0.222  0.779  0.432-  51 2.68  48 2.73  49 2.74  10 3.54  18 3.55  15 3.55  13 3.55  17 3.56
                            11 3.56  30 3.56
  13  0.556  0.111  0.432-  52 2.68  49 2.74  53 2.75  14 3.55  16 3.55  17 3.55  12 3.55  15 3.55
                            10 3.55  31 3.58
  14  0.556  0.444  0.432-  53 2.68  50 2.73  54 2.75  13 3.55  17 3.55  18 3.55  11 3.55  15 3.55
                            10 3.55  32 3.57
  15  0.555  0.778  0.432-  54 2.68  51 2.73  52 2.75  11 3.55  12 3.55  13 3.55  14 3.55  18 3.55
                            16 3.56  33 3.57
  16  0.889  0.111  0.432-  46 2.67  52 2.74  47 2.75  17 3.55  13 3.55  10 3.55  11 3.55  18 3.55
                            15 3.56  34 3.58
  17  0.889  0.444  0.432-  47 2.68  53 2.73  48 2.75  16 3.55  11 3.55  13 3.55  14 3.55  18 3.55
                            12 3.56  35 3.57
  18  0.889  0.778  0.432-  48 2.68  54 2.74  46 2.75  12 3.55  14 3.55  17 3.55  10 3.55  16 3.55
                            15 3.55  36 3.57
  19  0.222  0.111  0.568-  41 2.69  37 2.70  40 2.76  27 3.55  22 3.55  21 3.55  25 3.55  20 3.55
                            23 3.56   1 3.58
  20  0.223  0.445  0.568-  42 2.69  38 2.71  41 2.75  23 3.54  24 3.55  21 3.55  19 3.55  26 3.55
                            25 3.56   2 3.57
  21  0.222  0.778  0.568-  40 2.70  39 2.71  42 2.77  27 3.54  20 3.55  19 3.55  26 3.55  22 3.56
                            24 3.56   3 3.58
  22  0.556  0.111  0.568-  44 2.69  40 2.71  43 2.76  25 3.55  26 3.55  19 3.55  24 3.55  23 3.55
                            21 3.56   4 3.58
  23  0.556  0.445  0.568-  45 2.69  41 2.71  44 2.76  20 3.54  24 3.55  26 3.55  22 3.55  19 3.56
                            27 3.56   5 3.57
  24  0.556  0.778  0.568-  43 2.69  42 2.71  45 2.76  23 3.55  25 3.55  20 3.55  22 3.55  27 3.55
                            21 3.56   6 3.58
  25  0.889  0.111  0.568-  38 2.69  43 2.71  37 2.76  26 3.55  22 3.55  24 3.55  27 3.55  19 3.55
                            20 3.56   7 3.58
  26  0.889  0.444  0.568-  39 2.70  44 2.71  38 2.76  25 3.55  22 3.55  21 3.55  23 3.55  27 3.55
                            20 3.55   8 3.57
  27  0.890  0.778  0.568-  37 2.69  45 2.71  39 2.76  21 3.54  19 3.55  25 3.55  26 3.55  24 3.55
                            23 3.56   9 3.57
  28  0.222  0.111  0.311-  50 2.69  46 2.71  49 2.76  31 3.55  34 3.55  36 3.55  29 3.55  32 3.55
                            30 3.56  10 3.57
  29  0.222  0.445  0.311-  51 2.69  47 2.71  50 2.76  33 3.54  30 3.54  35 3.55  32 3.55  28 3.55
                            34 3.56  11 3.57
  30  0.223  0.778  0.311-  49 2.69  48 2.71  51 2.75  33 3.54  31 3.54  29 3.54  36 3.55  28 3.56
                            35 3.56  12 3.56
  31  0.555  0.111  0.311-  53 2.70  49 2.70  52 2.75  30 3.54  34 3.55  28 3.55  33 3.55  32 3.56
                            35 3.56  13 3.58
  32  0.556  0.445  0.311-  54 2.69  50 2.71  53 2.76  33 3.54  35 3.55  36 3.55  29 3.55  28 3.55
                            31 3.56  14 3.57
  33  0.555  0.777  0.312-  52 2.69  51 2.70  54 2.75  30 3.54  29 3.54  32 3.54  31 3.55  36 3.55
                            34 3.56  15 3.57
  34  0.889  0.111  0.311-  47 2.70  52 2.71  46 2.76  35 3.55  31 3.55  28 3.55  29 3.56  36 3.56
                            33 3.56  16 3.58
  35  0.889  0.444  0.311-  48 2.69  53 2.70  47 2.76  34 3.55  36 3.55  32 3.55  29 3.55  30 3.56
                            31 3.56  17 3.57
  36  0.889  0.778  0.311-  46 2.70  54 2.71  48 2.75  35 3.55  32 3.55  28 3.55  30 3.55  33 3.55
                            34 3.56  18 3.57
  37  0.000  1.000  0.628-   7 2.68  27 2.69  19 2.70   1 2.73   9 2.75  25 2.76
  38  1.000  0.332  0.628-   8 2.68  25 2.69  20 2.71   2 2.73   7 2.74  26 2.76
  39  0.000  0.666  0.628-   9 2.67  26 2.70  21 2.71   3 2.74   8 2.74  27 2.76
  40  0.333  1.000  0.628-   1 2.68  21 2.70  22 2.71   4 2.74   3 2.75  19 2.76
  41  0.333  0.333  0.628-   2 2.68  19 2.69  23 2.71   5 2.73   1 2.75  20 2.75
  42  0.334  0.667  0.628-   3 2.68  20 2.69  24 2.71   6 2.73   2 2.74  21 2.77
  43  0.667  1.000  0.628-   4 2.68  24 2.69  25 2.71   7 2.74   6 2.76  22 2.76
  44  0.667  0.334  0.628-   5 2.67  22 2.69  26 2.71   8 2.73   4 2.75  23 2.76
  45  0.667  0.667  0.628-   6 2.69  23 2.69  27 2.71   9 2.73   5 2.75  24 2.76
  46  1.000  0.001  0.372-  16 2.67  36 2.70  28 2.71  10 2.73  18 2.75  34 2.76
  47  0.000  0.334  0.372-  17 2.68  34 2.70  29 2.71  11 2.73  16 2.75  35 2.76
  48  1.000  0.666  0.372-  18 2.68  35 2.69  30 2.71  12 2.73  17 2.75  36 2.75
  49  0.334  1.000  0.372-  10 2.68  30 2.69  31 2.70  13 2.74  12 2.74  28 2.76
  50  0.333  0.333  0.372-  11 2.68  28 2.69  32 2.71  14 2.73  10 2.74  29 2.76
  51  0.333  0.667  0.372-  12 2.68  29 2.69  33 2.70  15 2.73  11 2.75  30 2.75
  52  0.666  1.000  0.372-  13 2.68  33 2.69  34 2.71  16 2.74  15 2.75  31 2.75
  53  0.667  0.334  0.372-  14 2.68  31 2.70  35 2.70  17 2.73  13 2.75  32 2.76
  54  0.666  0.667  0.372-  15 2.68  32 2.69  36 2.71  18 2.74  33 2.75  14 2.75
 

IMPORTANT INFORMATION: All symmetrisations will be switched off!
NOSYMM: (Re-)initialisation of all symmetry stuff for point group C_1.


----------------------------------------------------------------------------------------

                                     Primitive cell                                     

  volume of cell :    2903.4746

  direct lattice vectors                    reciprocal lattice vectors
    10.650813427  0.000000000  0.000000000     0.093889543  0.054127420 -0.001046266
    -5.320608572  9.229139451  0.000000000     0.000000000  0.108352464  0.002187135
     0.672878559 -0.596225790 29.537520801     0.000000000  0.000000000  0.033855245

  length of vectors
    10.650813427 10.652975669 29.551199397     0.108379511  0.108374536  0.033855245

  position of ions in fractional coordinates (direct lattice)
     0.221826370  0.110984778  0.688783870
     0.222069067  0.444638150  0.688582978
     0.222723611  0.777972168  0.688863225
     0.555982897  0.111756302  0.688882563
     0.555713197  0.444665319  0.688640761
     0.554902455  0.777103060  0.688927633
     0.889516007  0.111209282  0.688848520
     0.888960973  0.444637478  0.688645552
     0.889005613  0.777595170  0.688589123
     0.222119404  0.110959710  0.432179487
     0.222212377  0.444461485  0.432174916
     0.222233936  0.778513579  0.432022217
     0.555809718  0.111371575  0.432356140
     0.555720729  0.444316752  0.432105122
     0.555111086  0.777651433  0.432251129
     0.888986237  0.111243414  0.432140544
     0.889013268  0.444233080  0.432175991
     0.888812792  0.777515910  0.432134303
     0.222216599  0.111129505  0.567803526
     0.222936413  0.445024351  0.567880252
     0.221921396  0.777616878  0.567708942
     0.555562038  0.111120079  0.567832728
     0.555659095  0.444842799  0.567839574
     0.555892104  0.777925608  0.567822364
     0.888624048  0.111033938  0.567764145
     0.888823883  0.444113147  0.567712263
     0.889741986  0.778123246  0.567701888
     0.222273777  0.111302329  0.311268081
     0.222479429  0.445005284  0.311310622
     0.222912965  0.777893528  0.311471341
     0.555111400  0.110534459  0.311238260
     0.555789594  0.444804829  0.311327108
     0.555193932  0.777239111  0.311540612
     0.888694491  0.111305123  0.311104171
     0.888827458  0.444408675  0.311290910
     0.889131059  0.777643307  0.311316644
     0.000260849  0.999983885  0.628251218
     0.999667783  0.332468740  0.628350559
     0.000010787  0.666435657  0.628355779
     0.333240517  0.999897585  0.628273858
     0.333086626  0.333212381  0.628216275
     0.333649495  0.666829451  0.628400695
     0.666630666  0.999958338  0.628259493
     0.666642172  0.333504961  0.628351183
     0.667225011  0.666869916  0.628118267
     0.999988544  0.000583033  0.371946191
     0.000114985  0.333633885  0.371643677
     0.999719442  0.666325118  0.371649241
     0.333504023  0.999927680  0.371697487
     0.333129737  0.332901648  0.371777537
     0.333119580  0.666676290  0.371731727
     0.666301271  0.999892987  0.371638348
     0.667177557  0.333536691  0.371824665
     0.665946437  0.666626088  0.371620701

  ion indices of the primitive-cell ions
   primitive index   ion index
                 1           1
                 2           2
                 3           3
                 4           4
                 5           5
                 6           6
                 7           7
                 8           8
                 9           9
                10          10
                11          11
                12          12
                13          13
                14          14
                15          15
                16          16
                17          17
                18          18
                19          19
                20          20
                21          21
                22          22
                23          23
                24          24
                25          25
                26          26
                27          27
                28          28
                29          29
                30          30
                31          31
                32          32
                33          33
                34          34
                35          35
                36          36
                37          37
                38          38
                39          39
                40          40
                41          41
                42          42
                43          43
                44          44
                45          45
                46          46
                47          47
                48          48
                49          49
                50          50
                51          51
                52          52
                53          53
                54          54

----------------------------------------------------------------------------------------

 
 

Automatic generation of k-mesh.
 generate k-points for:    3    3    1
Space group operators:
 irot       det(A)        alpha          n_x          n_y          n_z        tau_x        tau_y        tau_z
    1     1.000000     0.000000     1.000000     0.000000     0.000000     0.000000     0.000000     0.000000
 
 Subroutine IBZKPT returns following result:
 ===========================================
 
 Found      5 irreducible k-points:
 
 Following reciprocal coordinates:
            Coordinates               Weight
  0.000000  0.000000  0.000000      1.000000
  0.333333  0.000000  0.000000      2.000000
  0.000000  0.333333 -0.000000      2.000000
  0.333333  0.333333  0.000000      2.000000
 -0.333333  0.333333 -0.000000      2.000000
 
 Following cartesian coordinates:
            Coordinates               Weight
  0.000000  0.000000  0.000000      1.000000
  0.031297  0.018042 -0.000349      2.000000
  0.000000  0.036117  0.000729      2.000000
  0.031297  0.054160  0.000380      2.000000
 -0.031297  0.018075  0.001078      2.000000
 


--------------------------------------------------------------------------------------------------------




 Dimension of arrays:
   k-points           NKPTS =      5   k-points in BZ     NKDIM =      5   number of bands    NBANDS=    200
   number of dos      NEDOS =    301   number of ions     NIONS =     54
   non local maximal  LDIM  =      6   non local SUM 2l+1 LMDIM =     18
   total plane-waves  NPLWV = ******
   max r-space proj   IRMAX =      1   max aug-charges    IRDMAX=  37642
   dimension x,y,z NGX =    84 NGY =   84 NGZ =  240
   dimension x,y,z NGXF=   168 NGYF=  168 NGZF=  480
   support grid    NGXF=   168 NGYF=  168 NGZF=  480
   ions per type =              36  18
   NGX,Y,Z   is equivalent  to a cutoff of  13.11, 13.11, 13.50 a.u.
   NGXF,Y,Z  is equivalent  to a cutoff of  26.22, 26.22, 27.00 a.u.

 SYSTEM =  dpgen_md                                
 POSCAR =  Te Mo                                   

 Startparameter for this run:
   NWRITE =      2    write-flag & timer
   PREC   = a         normal or accurate (medium, high low for compatibility)
   ISTART =      0    job   : 0-new  1-cont  2-samecut
   ICHARG =      2    charge: 1-file 2-atom 10-const
   ISPIN  =      1    spin polarized calculation?
   LNONCOLLINEAR =      F non collinear calculations
   LSORBIT =      F    spin-orbit coupling
   INIWAV =      1    electr: 0-lowe 1-rand  2-diag
   LASPH  =      F    aspherical Exc in radial PAW
   METAGGA=      F    non-selfconsistent MetaGGA calc.

 Electronic Relaxation 1
   ENCUT  =  550.0 eV  40.42 Ry    6.36 a.u.  20.37 20.37 56.51*2*pi/ulx,y,z
   ENINI  =  550.0     initial cutoff
   ENAUG  =  368.8 eV  augmentation charge cutoff
   NELM   =    100;   NELMIN=  6; NELMDL= -5     # of ELM steps 
   EDIFF  = 0.1E-05   stopping-criterion for ELM
   LREAL  =      F    real-space projection
   NLSPLINE    = F    spline interpolate recip. space projectors
   LCOMPAT=      F    compatible to vasp.4.4
   GGA_COMPAT  = T    GGA compatible to vasp.4.4-vasp.4.6
   LMAXPAW     = -100 max onsite density
   LMAXMIX     =    2 max onsite mixed and CHGCAR
   VOSKOWN=      0    Vosko Wilk Nusair interpolation
   ROPT   =    0.00000   0.00000
 Ionic relaxation
   EDIFFG = 0.1E-04   stopping-criterion for IOM
   NSW    =     10    number of steps for IOM
   NBLOCK =      1;   KBLOCK =      1    inner block; outer block 
   IBRION =      0    ionic relax: 0-MD 1-quasi-New 2-CG
   NFREE  =      0    steps in history (QN), initial steepest desc. (CG)
   ISIF   =      2    stress and relaxation
   IWAVPR =     11    prediction:  0-non 1-charg 2-wave 3-comb
   ISYM   =      0    0-nonsym 1-usesym 2-fastsym
   LCORR  =      T    Harris-Foulkes like correction to forces

   POTIM  = 2.0000    time-step for ionic-motion
   TEIN   =  100.0    initial temperature
   TEBEG  =  100.0;   TEEND  = 100.0 temperature during run
   SMASS  =   0.04    Nose mass-parameter (am)
   estimated Nose-frequenzy (Omega)   =  0.79E+14 period in steps = 0.40E+02 mass=   0.327E-28a.u.
   SCALEE = 1.0000    scale energy and forces
   NPACO  =    256;   APACO  = 16.0  distance and # of slots for P.C.
   PSTRESS=    0.0 pullay stress

  Mass of Ions in am
   POMASS = 127.60 95.94
  Ionic Valenz
   ZVAL   =   6.00  6.00
  Atomic Wigner-Seitz radii
   RWIGS  =  -1.00 -1.00
  virtual crystal weights 
   VCA    =   1.00  1.00
   NELECT =     324.0000    total number of electrons
   NUPDOWN=      -1.0000    fix difference up-down

 DOS related values:
   EMIN   =  10.00;   EMAX   =-10.00  energy-range for DOS
   EFERMI =   0.00
   ISMEAR =     0;   SIGMA  =   0.10  broadening in eV -4-tet -1-fermi 0-gaus

 Electronic relaxation 2 (details)
   IALGO  =     68    algorithm
   LDIAG  =      T    sub-space diagonalisation (order eigenvalues)
   LSUBROT=      F    optimize rotation matrix (better conditioning)
   TURBO    =      0    0=normal 1=particle mesh
   IRESTART =      0    0=no restart 2=restart with 2 vectors
   NREBOOT  =      0    no. of reboots
   NMIN     =      0    reboot dimension
   EREF     =   0.00    reference energy to select bands
   IMIX   =      4    mixing-type and parameters
     AMIX     =   0.40;   BMIX     =  1.00
     AMIX_MAG =   1.60;   BMIX_MAG =  1.00
     AMIN     =   0.10
     WC   =   100.;   INIMIX=   1;  MIXPRE=   1;  MAXMIX= -45

 Intra band minimization:
   WEIMIN = 0.0010     energy-eigenvalue tresh-hold
   EBREAK =  0.13E-08  absolut break condition
   DEPER  =   0.30     relativ break condition  

   TIME   =   0.40     timestep for ELM

  volume/ion in A,a.u.               =      53.77       362.84
  Fermi-wavevector in a.u.,A,eV,Ry     =   0.788165  1.489416  8.451995  0.621204
  Thomas-Fermi vector in A             =   1.893052
 
 Write flags
   LWAVE        =      F    write WAVECAR
   LDOWNSAMPLE  =      F    k-point downsampling of WAVECAR
   LCHARG       =      F    write CHGCAR
   LVTOT        =      F    write LOCPOT, total local potential
   LVHAR        =      F    write LOCPOT, Hartree potential only
   LELF         =      F    write electronic localiz. function (ELF)
   LORBIT       =      0    0 simple, 1 ext, 2 COOP (PROOUT), +10 PAW based schemes


 Dipole corrections
   LMONO  =      F    monopole corrections only (constant potential shift)
   LDIPOL =      F    correct potential (dipole corrections)
   IDIPOL =      0    1-x, 2-y, 3-z, 4-all directions 
   EPSILON=  1.0000000 bulk dielectric constant

 Exchange correlation treatment:
   GGA     =    --    GGA type
   LEXCH   =     8    internal setting for exchange type
   VOSKOWN=      0    Vosko Wilk Nusair interpolation
   LHFCALC =     F    Hartree Fock is set to
   LHFONE  =     F    Hartree Fock one center treatment
   AEXX    =    0.0000 exact exchange contribution

 Linear response parameters
   LEPSILON=     F    determine dielectric tensor
   LRPA    =     F    only Hartree local field effects (RPA)
   LNABLA  =     F    use nabla operator in PAW spheres
   LVEL    =     F    velocity operator in full k-point grid
   LINTERFAST=   F  fast interpolation
   KINTER  =     0    interpolate to denser k-point grid
   CSHIFT  =0.1000    complex shift for real part using Kramers Kronig
   OMEGAMAX=  -1.0    maximum frequency
   DEG_THRESHOLD= 0.2000000E-02 threshold for treating states as degnerate
   RTIME   =   -0.100 relaxation time in fs
  (WPLASMAI=    0.000 imaginary part of plasma frequency in eV, 0.658/RTIME)
   DFIELD  = 0.0000000 0.0000000 0.0000000 field for delta impulse in time
 
 Orbital magnetization related:
   ORBITALMAG=     F  switch on orbital magnetization
   LCHIMAG   =     F  perturbation theory with respect to B field
   DQ        =  0.001000  dq finite difference perturbation B field
   LLRAUG    =     F  two centre corrections for induced B field



--------------------------------------------------------------------------------------------------------


 molecular dynamics for ions
   using nose mass (canonical ensemble)
 charge density and potential will be updated during run
 non-spin polarized calculation
 RMM-DIIS sequential band-by-band and
  variant of blocked Davidson during initial phase
 perform sub-space diagonalisation
    before iterative eigenvector-optimisation
 modified Broyden-mixing scheme, WC =      100.0
 initial mixing is a Kerker type mixing with AMIX =  0.4000 and BMIX =      1.0000
 Hartree-type preconditioning will be used
 using additional bands           38
 reciprocal scheme for non local part
 use partial core corrections
 calculate Harris-corrections to forces 
   (improved forces if not selfconsistent)
 use gradient corrections 
 use of overlap-Matrix (Vanderbilt PP)
 Gauss-broadening in eV      SIGMA  =   0.10


--------------------------------------------------------------------------------------------------------


  energy-cutoff  :      550.00
  volume of cell :     2903.47
      direct lattice vectors                 reciprocal lattice vectors
    10.650813427  0.000000000  0.000000000     0.093889543  0.054127420 -0.001046266
    -5.320608572  9.229139451  0.000000000     0.000000000  0.108352464  0.002187135
     0.672878559 -0.596225790 29.537520801     0.000000000  0.000000000  0.033855245

  length of vectors
    10.650813427 10.652975669 29.551199397     0.108379511  0.108374536  0.033855245


 
 k-points in units of 2pi/SCALE and weight: read from INCAR                         
   0.00000000  0.00000000  0.00000000       0.111
   0.03129651  0.01804247 -0.00034876       0.222
   0.00000000  0.03611749  0.00072904       0.222
   0.03129651  0.05415996  0.00038029       0.222
  -0.03129651  0.01807501  0.00107780       0.222
 
 k-points in reciprocal lattice and weights: read from INCAR                         
   0.00000000  0.00000000  0.00000000       0.111
   0.33333333  0.00000000  0.00000000       0.222
   0.00000000  0.33333333 -0.00000000       0.222
   0.33333333  0.33333333  0.00000000       0.222
  -0.33333333  0.33333333 -0.00000000       0.222
 
 position of ions in fractional coordinates (direct lattice) 
   0.22182637  0.11098478  0.68878387
   0.22206907  0.44463815  0.68858298
   0.22272361  0.77797217  0.68886322
   0.55598290  0.11175630  0.68888256
   0.55571320  0.44466532  0.68864076
   0.55490245  0.77710306  0.68892763
   0.88951601  0.11120928  0.68884852
   0.88896097  0.44463748  0.68864555
   0.88900561  0.77759517  0.68858912
   0.22211940  0.11095971  0.43217949
   0.22221238  0.44446148  0.43217492
   0.22223394  0.77851358  0.43202222
   0.55580972  0.11137157  0.43235614
   0.55572073  0.44431675  0.43210512
   0.55511109  0.77765143  0.43225113
   0.88898624  0.11124341  0.43214054
   0.88901327  0.44423308  0.43217599
   0.88881279  0.77751591  0.43213430
   0.22221660  0.11112951  0.56780353
   0.22293641  0.44502435  0.56788025
   0.22192140  0.77761688  0.56770894
   0.55556204  0.11112008  0.56783273
   0.55565910  0.44484280  0.56783957
   0.55589210  0.77792561  0.56782236
   0.88862405  0.11103394  0.56776414
   0.88882388  0.44411315  0.56771226
   0.88974199  0.77812325  0.56770189
   0.22227378  0.11130233  0.31126808
   0.22247943  0.44500528  0.31131062
   0.22291296  0.77789353  0.31147134
   0.55511140  0.11053446  0.31123826
   0.55578959  0.44480483  0.31132711
   0.55519393  0.77723911  0.31154061
   0.88869449  0.11130512  0.31110417
   0.88882746  0.44440868  0.31129091
   0.88913106  0.77764331  0.31131664
   0.00026085  0.99998388  0.62825122
   0.99966778  0.33246874  0.62835056
   0.00001079  0.66643566  0.62835578
   0.33324052  0.99989759  0.62827386
   0.33308663  0.33321238  0.62821627
   0.33364949  0.66682945  0.62840070
   0.66663067  0.99995834  0.62825949
   0.66664217  0.33350496  0.62835118
   0.66722501  0.66686992  0.62811827
   0.99998854  0.00058303  0.37194619
   0.00011499  0.33363389  0.37164368
   0.99971944  0.66632512  0.37164924
   0.33350402  0.99992768  0.37169749
   0.33312974  0.33290165  0.37177754
   0.33311958  0.66667629  0.37173173
   0.66630127  0.99989299  0.37163835
   0.66717756  0.33353669  0.37182466
   0.66594644  0.66662609  0.37162070
 
 position of ions in cartesian coordinates  (Angst):
   2.23559262  0.61362329 20.34496789
   0.46280337  3.69307656 20.33903403
  -1.30357647  6.76929560 20.34731183
   5.79059288  0.62068495 20.34788303
   4.01627908  3.69329285 20.34074081
   2.23906595  6.76123608 20.34921428
   9.34587938  0.61565672 20.34687750
   7.56579032  3.69303305 20.34088231
   5.79469024  6.76597967 20.33921555
   2.06618346  0.76638608 12.76551059
   0.29273822  3.84432319 12.76537558
  -1.48449534  6.92742760 12.76086522
   5.61818423  0.77008191 12.77072848
   3.84559656  3.84302904 12.76331404
   2.06565824  6.91933425 12.76762672
   9.16732200  0.76902764 12.76436030
   7.39592608  3.84221457 12.76540732
   5.62049531  6.91815314 12.76417597
   2.15757376  0.68709060 16.77150845
   0.38876821  3.76860694 16.77377475
  -1.39175247  6.83825190 16.76871468
   5.70804363  0.68698619 16.77237102
   3.93347401  3.76695563 16.77257324
   2.16374092  6.84103358 16.77206488
   9.25583714  0.68623207 16.77034524
   7.48574654  3.76029747 16.76881277
   5.71838111  6.84292944 16.76850632
   1.98464602  0.84163866  9.19408743
   0.21136221  3.92140440  9.19534398
  -1.55508019  6.99358060  9.20009122
   5.53370291  0.83456965  9.19320659
   3.76246422  3.91954455  9.19583092
   1.98751091  6.98749959  9.20213729
   9.08244355  0.84176217  9.18924593
   7.31167179  3.91590997  9.19476173
   5.54191167  6.99136352  9.19552184
  -4.89500780  8.85441114 18.55698343
   9.30114264  2.69376156 18.55991769
  -3.12292125  5.77598570 18.56007190
  -1.34802908  8.85360118 18.55765215
   2.19746412  2.70070478 18.55595129
   0.42853738  5.77959329 18.56139861
   2.20251428  8.85417043 18.55722784
   5.74863608  2.70332461 18.55993615
   3.98098262  5.78013515 18.55305638
  10.89786394 -0.21638302 10.98636834
  -1.52383956  2.85757011 10.97743285
   7.35264493  5.92802057 10.97759719
  -1.51802738  9.00685637 10.97902225
   2.02702445  2.85073237 10.98138673
   0.25100122  5.93121240 10.98003363
   2.02667879  9.00657145 10.97727543
   5.58155835  2.85656518 10.98277878
   3.79607038  5.93081528 10.97675419
 


--------------------------------------------------------------------------------------------------------


 k-point   1 :   0.0000 0.0000 0.0000  plane waves:   85125
 k-point   2 :   0.3333 0.0000 0.0000  plane waves:   85019
 k-point   3 :   0.0000 0.3333-0.0000  plane waves:   85021
 k-point   4 :   0.3333 0.3333 0.0000  plane waves:   85044
 k-point   5 :  -0.3333 0.3333-0.0000  plane waves:   85026

 maximum and minimum number of plane-waves per node :     85125    85019

 maximum number of plane-waves:     85125
 maximum index in each direction: 
   IXMAX=   20   IYMAX=   20   IZMAX=   56
   IXMIN=  -20   IYMIN=  -20   IZMIN=  -56


 serial   3D FFT for wavefunctions
 parallel 3D FFT for charge:
    minimum data exchange during FFTs selected (reduces bandwidth)


 total amount of memory used by VASP MPI-rank0   371870. kBytes
=======================================================================

   base      :      30000. kBytes
   nonl-proj :     196208. kBytes
   fftplans  :      19943. kBytes
   grid      :      90496. kBytes
   one-center:        839. kBytes
   wavefun   :      34384. kBytes
 
     INWAV:  cpu time    0.0000: real time    0.0000
 Broyden mixing: mesh for mixing (old mesh)
   NGX = 41   NGY = 41   NGZ =113
  (NGX  =168   NGY  =168   NGZ  =480)
  gives a total of 189953 points

 initial charge density was supplied:
 charge density of overlapping atoms calculated
 number of electron     324.0000000 magnetization 
 keeping initial charge density in first step


--------------------------------------------------------------------------------------------------------


 Maximum index for augmentation-charges         2284 (set IRDMAX)


--------------------------------------------------------------------------------------------------------


 First call to EWALD:  gamma=   0.124
 Maximum number of real-space cells 4x 4x 2
 Maximum number of reciprocal cells 2x 2x 5

    FEWALD:  cpu time    0.0022: real time    0.0023


--------------------------------------- Iteration      1(   1)  ---------------------------------------


    POTLOK:  cpu time    0.3424: real time    0.3437
    SETDIJ:  cpu time    0.0144: real time    0.0145
     EDDAV:  cpu time   48.4591: real time   48.5423
       DOS:  cpu time    0.0010: real time    0.0012
    --------------------------------------------
      LOOP:  cpu time   48.8169: real time   48.9017

 eigenvalue-minimisations  :  2000
 total energy-change (2. order) : 0.2099410E+04  (-0.1154015E+05)
 number of electron     324.0000000 magnetization 
 augmentation part      324.0000000 magnetization 

 Free energy of the ion-electron system (eV)
  ---------------------------------------------------
  alpha Z        PSCENC =       247.17494946
  Ewald energy   TEWEN  =     53387.15077599
  -Hartree energ DENC   =    -65073.12763891
  -exchange      EXHF   =         0.00000000
  -V(xc)+E(xc)   XCENC  =     -2101.82514690
  PAW double counting   =      7476.04436201    -4809.59211051
  entropy T*S    EENTRO =        -0.12067146
  eigenvalues    EBANDS =      1020.62239270
  atomic energy  EATOM  =     11953.08265402
  Solvation  Ediel_sol  =         0.00000000
  ---------------------------------------------------
  free energy    TOTEN  =      2099.40956639 eV

  energy without entropy =     2099.53023785  energy(sigma->0) =     2099.46990212


--------------------------------------------------------------------------------------------------------




--------------------------------------- Iteration      1(   2)  ---------------------------------------


     EDDAV:  cpu time   67.0983: real time   67.2221
       DOS:  cpu time    0.0005: real time    0.0005
    --------------------------------------------
      LOOP:  cpu time   67.0988: real time   67.2226

 eigenvalue-minimisations  :  3000
 total energy-change (2. order) :-0.2197770E+04  (-0.2116813E+04)
 number of electron     324.0000000 magnetization 
 augmentation part      324.0000000 magnetization 

 Free energy of the ion-electron system (eV)
  ---------------------------------------------------
  alpha Z        PSCENC =       247.17494946
  Ewald energy   TEWEN  =     53387.15077599
  -Hartree energ DENC   =    -65073.12763891
  -exchange      EXHF   =         0.00000000
  -V(xc)+E(xc)   XCENC  =     -2101.82514690
  PAW double counting   =      7476.04436201    -4809.59211051
  entropy T*S    EENTRO =        -0.00002976
  eigenvalues    EBANDS =     -1177.26776808
  atomic energy  EATOM  =     11953.08265402
  Solvation  Ediel_sol  =         0.00000000
  ---------------------------------------------------
  free energy    TOTEN  =       -98.35995269 eV

  energy without entropy =      -98.35992292  energy(sigma->0) =      -98.35993780


--------------------------------------------------------------------------------------------------------




--------------------------------------- Iteration      1(   3)  ---------------------------------------


     EDDAV:  cpu time   58.0705: real time   58.2140
       DOS:  cpu time    0.0004: real time    0.0004
    --------------------------------------------
      LOOP:  cpu time   58.0709: real time   58.2144

 eigenvalue-minimisations  :  2520
 total energy-change (2. order) :-0.2261158E+03  (-0.2226590E+03)
 number of electron     324.0000000 magnetization 
 augmentation part      324.0000000 magnetization 

 Free energy of the ion-electron system (eV)
  ---------------------------------------------------
  alpha Z        PSCENC =       247.17494946
  Ewald energy   TEWEN  =     53387.15077599
  -Hartree energ DENC   =    -65073.12763891
  -exchange      EXHF   =         0.00000000
  -V(xc)+E(xc)   XCENC  =     -2101.82514690
  PAW double counting   =      7476.04436201    -4809.59211051
  entropy T*S    EENTRO =        -0.00000000
  eigenvalues    EBANDS =     -1403.38356963
  atomic energy  EATOM  =     11953.08265402
  Solvation  Ediel_sol  =         0.00000000
  ---------------------------------------------------
  free energy    TOTEN  =      -324.47572447 eV

  energy without entropy =     -324.47572447  energy(sigma->0) =     -324.47572447


--------------------------------------------------------------------------------------------------------




--------------------------------------- Iteration      1(   4)  ---------------------------------------


     EDDAV:  cpu time   68.7424: real time   68.8765
       DOS:  cpu time    0.0004: real time    0.0004
    --------------------------------------------
      LOOP:  cpu time   68.7427: real time   68.8768

 eigenvalue-minimisations  :  3080
 total energy-change (2. order) :-0.1141190E+02  (-0.1132757E+02)
 number of electron     324.0000000 magnetization 
 augmentation part      324.0000000 magnetization 

 Free energy of the ion-electron system (eV)
  ---------------------------------------------------
  alpha Z        PSCENC =       247.17494946
  Ewald energy   TEWEN  =     53387.15077599
  -Hartree energ DENC   =    -65073.12763891
  -exchange      EXHF   =         0.00000000
  -V(xc)+E(xc)   XCENC  =     -2101.82514690
  PAW double counting   =      7476.04436201    -4809.59211051
  entropy T*S    EENTRO =        -0.00000000
  eigenvalues    EBANDS =     -1414.79547292
  atomic energy  EATOM  =     11953.08265402
  Solvation  Ediel_sol  =         0.00000000
  ---------------------------------------------------
  free energy    TOTEN  =      -335.88762776 eV

  energy without entropy =     -335.88762776  energy(sigma->0) =     -335.88762776


--------------------------------------------------------------------------------------------------------




--------------------------------------- Iteration      1(   5)  ---------------------------------------


     EDDAV:  cpu time   68.2085: real time   68.3727
       DOS:  cpu time    0.0004: real time    0.0004
    CHARGE:  cpu time    1.1765: real time    1.1860
    MIXING:  cpu time    0.0078: real time    0.0081
    --------------------------------------------
      LOOP:  cpu time   69.3932: real time   69.5671

 eigenvalue-minimisations  :  3040
 total energy-change (2. order) :-0.3245492E+00  (-0.3238913E+00)
 number of electron     324.0000005 magnetization 
 augmentation part      -25.6620632 magnetization 

 Broyden mixing:
  rms(total) = 0.19243E+01    rms(broyden)= 0.19243E+01
  rms(prec ) = 0.20402E+01
  weight for this iteration     100.00

 Free energy of the ion-electron system (eV)
  ---------------------------------------------------
  alpha Z        PSCENC =       247.17494946
  Ewald energy   TEWEN  =     53387.15077599
  -Hartree energ DENC   =    -65073.12763891
  -exchange      EXHF   =         0.00000000
  -V(xc)+E(xc)   XCENC  =     -2101.82514690
  PAW double counting   =      7476.04436201    -4809.59211051
  entropy T*S    EENTRO =        -0.00000000
  eigenvalues    EBANDS =     -1415.12002214
  atomic energy  EATOM  =     11953.08265402
  Solvation  Ediel_sol  =         0.00000000
  ---------------------------------------------------
  free energy    TOTEN  =      -336.21217699 eV

  energy without entropy =     -336.21217699  energy(sigma->0) =     -336.21217699


--------------------------------------------------------------------------------------------------------




--------------------------------------- Iteration      1(   6)  ---------------------------------------


    POTLOK:  cpu time    0.3106: real time    0.3109
    SETDIJ:  cpu time    0.0118: real time    0.0119
    EDDIAG:  cpu time    2.5649: real time    2.5725
  RMM-DIIS:  cpu time   42.4263: real time   42.5076
    ORTHCH:  cpu time    0.2131: real time    0.2133
       DOS:  cpu time    0.0005: real time    0.0005
    CHARGE:  cpu time    1.1732: real time    1.1785
    MIXING:  cpu time    0.0108: real time    0.0109
    --------------------------------------------
      LOOP:  cpu time   46.7113: real time   46.8060

 eigenvalue-minimisations  :  2141
 total energy-change (2. order) : 0.8728617E+01  (-0.5788909E+01)
 number of electron     324.0000007 magnetization 
 augmentation part      -19.8588567 magnetization 

 Broyden mixing:
  rms(total) = 0.71720E+00    rms(broyden)= 0.71720E+00
  rms(prec ) = 0.83394E+00
  weight for this iteration     100.00

 eigenvalues of (default mixing * dielectric matrix)
  average eigenvalue GAMMA=   1.0246
  1.0246

 Free energy of the ion-electron system (eV)
  ---------------------------------------------------
  alpha Z        PSCENC =       247.17494946
  Ewald energy   TEWEN  =     53387.15077599
  -Hartree energ DENC   =    -65045.72628968
  -exchange      EXHF   =         0.00000000
  -V(xc)+E(xc)   XCENC  =     -2095.13313890
  PAW double counting   =      7686.10445393    -5031.19517604
  entropy T*S    EENTRO =        -0.00000000
  eigenvalues    EBANDS =     -1428.94178851
  atomic energy  EATOM  =     11953.08265402
  Solvation  Ediel_sol  =         0.00000000
  ---------------------------------------------------
  free energy    TOTEN  =      -327.48355973 eV

  energy without entropy =     -327.48355973  energy(sigma->0) =     -327.48355973


--------------------------------------------------------------------------------------------------------




--------------------------------------- Iteration      1(   7)  ---------------------------------------


    POTLOK:  cpu time    0.3098: real time    0.3136
    SETDIJ:  cpu time    0.0153: real time    0.0153
    EDDIAG:  cpu time    2.5758: real time    2.5826
  RMM-DIIS:  cpu time   39.2607: real time   39.3588
    ORTHCH:  cpu time    0.2220: real time    0.2222
       DOS:  cpu time    0.0005: real time    0.0005
    CHARGE:  cpu time    1.1821: real time    1.1831
    MIXING:  cpu time    0.0072: real time    0.0072
    --------------------------------------------
      LOOP:  cpu time   43.5735: real time   43.6834

 eigenvalue-minimisations  :  2009
 total energy-change (2. order) : 0.3307680E+01  (-0.1042929E+01)
 number of electron     324.0000006 magnetization 
 augmentation part      -21.6769218 magnetization 

 Broyden mixing:
  rms(total) = 0.47359E+00    rms(broyden)= 0.47359E+00
  rms(prec ) = 0.50427E+00
  weight for this iteration     100.00

 eigenvalues of (default mixing * dielectric matrix)
  average eigenvalue GAMMA=   1.4986
  0.7389  2.2583

 Free energy of the ion-electron system (eV)
  ---------------------------------------------------
  alpha Z        PSCENC =       247.17494946
  Ewald energy   TEWEN  =     53387.15077599
  -Hartree energ DENC   =    -65129.47555162
  -exchange      EXHF   =         0.00000000
  -V(xc)+E(xc)   XCENC  =     -2093.88466411
  PAW double counting   =      7979.33642635    -5329.37265426
  entropy T*S    EENTRO =        -0.00000000
  eigenvalues    EBANDS =     -1338.18781581
  atomic energy  EATOM  =     11953.08265402
  Solvation  Ediel_sol  =         0.00000000
  ---------------------------------------------------
  free energy    TOTEN  =      -324.17587998 eV

  energy without entropy =     -324.17587998  energy(sigma->0) =     -324.17587998


--------------------------------------------------------------------------------------------------------




--------------------------------------- Iteration      1(   8)  ---------------------------------------


    POTLOK:  cpu time    0.3001: real time    0.3004
    SETDIJ:  cpu time    0.0120: real time    0.0120
    EDDIAG:  cpu time    2.5805: real time    2.5874
  RMM-DIIS:  cpu time   39.5255: real time   39.6167
    ORTHCH:  cpu time    0.2090: real time    0.2092
       DOS:  cpu time    0.0004: real time    0.0004
    CHARGE:  cpu time    1.2034: real time    1.2144
    MIXING:  cpu time    0.0080: real time    0.0080
    --------------------------------------------
      LOOP:  cpu time   43.8388: real time   43.9486

 eigenvalue-minimisations  :  2038
 total energy-change (2. order) : 0.4478715E+00  (-0.8396811E+00)
 number of electron     324.0000006 magnetization 
 augmentation part      -21.6669051 magnetization 

 Broyden mixing:
  rms(total) = 0.15415E+00    rms(broyden)= 0.15415E+00
  rms(prec ) = 0.18004E+00
  weight for this iteration     100.00

 eigenvalues of (default mixing * dielectric matrix)
  average eigenvalue GAMMA=   1.2615
  2.1649  0.8098  0.8098

 Free energy of the ion-electron system (eV)
  ---------------------------------------------------
  alpha Z        PSCENC =       247.17494946
  Ewald energy   TEWEN  =     53387.15077599
  -Hartree energ DENC   =    -65194.56670116
  -exchange      EXHF   =         0.00000000
  -V(xc)+E(xc)   XCENC  =     -2089.76494505
  PAW double counting   =      8317.69900043    -5674.51430396
  entropy T*S    EENTRO =        -0.00000000
  eigenvalues    EBANDS =     -1269.98943819
  atomic energy  EATOM  =     11953.08265402
  Solvation  Ediel_sol  =         0.00000000
  ---------------------------------------------------
  free energy    TOTEN  =      -323.72800847 eV

  energy without entropy =     -323.72800847  energy(sigma->0) =     -323.72800847


--------------------------------------------------------------------------------------------------------




--------------------------------------- Iteration      1(   9)  ---------------------------------------


    POTLOK:  cpu time    0.3073: real time    0.3118
    SETDIJ:  cpu time    0.0120: real time    0.0120
    EDDIAG:  cpu time    2.5742: real time    2.5846
  RMM-DIIS:  cpu time   43.3200: real time   43.4407
    ORTHCH:  cpu time    0.2141: real time    0.2153
       DOS:  cpu time    0.0004: real time    0.0004
    CHARGE:  cpu time    1.1722: real time    1.1774
    MIXING:  cpu time    0.0107: real time    0.0107
    --------------------------------------------
      LOOP:  cpu time   47.6110: real time   47.7528

 eigenvalue-minimisations  :  2182
 total energy-change (2. order) : 0.1801150E-01  (-0.1278125E+00)
 number of electron     324.0000006 magnetization 
 augmentation part      -21.2313095 magnetization 

 Broyden mixing:
  rms(total) = 0.10069E+00    rms(broyden)= 0.10069E+00
  rms(prec ) = 0.11239E+00
  weight for this iteration     100.00

 eigenvalues of (default mixing * dielectric matrix)
  average eigenvalue GAMMA=   1.1280
  2.0602  1.2354  0.7726  0.4436

 Free energy of the ion-electron system (eV)
  ---------------------------------------------------
  alpha Z        PSCENC =       247.17494946
  Ewald energy   TEWEN  =     53387.15077599
  -Hartree energ DENC   =    -65188.31903098
  -exchange      EXHF   =         0.00000000
  -V(xc)+E(xc)   XCENC  =     -2089.47210682
  PAW double counting   =      8303.06905502    -5659.83238753
  entropy T*S    EENTRO =        -0.00000000
  eigenvalues    EBANDS =     -1276.56390613
  atomic energy  EATOM  =     11953.08265402
  Solvation  Ediel_sol  =         0.00000000
  ---------------------------------------------------
  free energy    TOTEN  =      -323.70999697 eV

  energy without entropy =     -323.70999697  energy(sigma->0) =     -323.70999697


--------------------------------------------------------------------------------------------------------




--------------------------------------- Iteration      1(  10)  ---------------------------------------


    POTLOK:  cpu time    0.3021: real time    0.3026
    SETDIJ:  cpu time    0.0119: real time    0.0119
    EDDIAG:  cpu time    2.5546: real time    2.5614
  RMM-DIIS:  cpu time   46.2633: real time   46.3904
    ORTHCH:  cpu time    0.2211: real time    0.2213
       DOS:  cpu time    0.0004: real time    0.0004
    CHARGE:  cpu time    1.1814: real time    1.1825
    MIXING:  cpu time    0.0075: real time    0.0075
    --------------------------------------------
      LOOP:  cpu time   50.5424: real time   50.6781

 eigenvalue-minimisations  :  2344
 total energy-change (2. order) :-0.1131865E-01  (-0.4407411E-01)
 number of electron     324.0000006 magnetization 
 augmentation part      -20.9966300 magnetization 

 Broyden mixing:
  rms(total) = 0.75015E-01    rms(broyden)= 0.75014E-01
  rms(prec ) = 0.84004E-01
  weight for this iteration     100.00

 eigenvalues of (default mixing * dielectric matrix)
  average eigenvalue GAMMA=   1.2791
  2.3921  1.7515  0.9368  0.9368  0.3785

 Free energy of the ion-electron system (eV)
  ---------------------------------------------------
  alpha Z        PSCENC =       247.17494946
  Ewald energy   TEWEN  =     53387.15077599
  -Hartree energ DENC   =    -65189.07010622
  -exchange      EXHF   =         0.00000000
  -V(xc)+E(xc)   XCENC  =     -2089.25909893
  PAW double counting   =      8308.94334123    -5665.67442518
  entropy T*S    EENTRO =        -0.00000000
  eigenvalues    EBANDS =     -1276.06940599
  atomic energy  EATOM  =     11953.08265402
  Solvation  Ediel_sol  =         0.00000000
  ---------------------------------------------------
  free energy    TOTEN  =      -323.72131562 eV

  energy without entropy =     -323.72131562  energy(sigma->0) =     -323.72131562


--------------------------------------------------------------------------------------------------------




--------------------------------------- Iteration      1(  11)  ---------------------------------------


    POTLOK:  cpu time    0.3043: real time    0.3045
    SETDIJ:  cpu time    0.0118: real time    0.0118
    EDDIAG:  cpu time    2.5598: real time    2.5670
  RMM-DIIS:  cpu time   41.1989: real time   41.3090
    ORTHCH:  cpu time    0.2083: real time    0.2085
       DOS:  cpu time    0.0004: real time    0.0004
    CHARGE:  cpu time    1.1763: real time    1.1776
    MIXING:  cpu time    0.0076: real time    0.0076
    --------------------------------------------
      LOOP:  cpu time   45.4675: real time   45.5864

 eigenvalue-minimisations  :  2108
 total energy-change (2. order) : 0.1207091E-01  (-0.1748117E-01)
 number of electron     324.0000006 magnetization 
 augmentation part      -21.2879749 magnetization 

 Broyden mixing:
  rms(total) = 0.36214E-01    rms(broyden)= 0.36214E-01
  rms(prec ) = 0.41692E-01
  weight for this iteration     100.00

 eigenvalues of (default mixing * dielectric matrix)
  average eigenvalue GAMMA=   1.2136
  2.5506  1.7398  1.1857  0.7530  0.6788  0.3737

 Free energy of the ion-electron system (eV)
  ---------------------------------------------------
  alpha Z        PSCENC =       247.17494946
  Ewald energy   TEWEN  =     53387.15077599
  -Hartree energ DENC   =    -65207.77832979
  -exchange      EXHF   =         0.00000000
  -V(xc)+E(xc)   XCENC  =     -2088.92096894
  PAW double counting   =      8361.07170925    -5718.07414993
  entropy T*S    EENTRO =        -0.00000000
  eigenvalues    EBANDS =     -1257.41588478
  atomic energy  EATOM  =     11953.08265402
  Solvation  Ediel_sol  =         0.00000000
  ---------------------------------------------------
  free energy    TOTEN  =      -323.70924471 eV

  energy without entropy =     -323.70924471  energy(sigma->0) =     -323.70924471


--------------------------------------------------------------------------------------------------------




--------------------------------------- Iteration      1(  12)  ---------------------------------------


    POTLOK:  cpu time    0.3035: real time    0.3038
    SETDIJ:  cpu time    0.0119: real time    0.0119
    EDDIAG:  cpu time    2.5843: real time    2.5869
  RMM-DIIS:  cpu time   48.0082: real time   48.1207
    ORTHCH:  cpu time    0.2125: real time    0.2127
       DOS:  cpu time    0.0004: real time    0.0004
    CHARGE:  cpu time    1.1836: real time    1.1847
    MIXING:  cpu time    0.0076: real time    0.0076
    --------------------------------------------
      LOOP:  cpu time   52.3122: real time   52.4288

 eigenvalue-minimisations  :  2455
 total energy-change (2. order) :-0.4298438E-03  (-0.4212459E-02)
 number of electron     324.0000006 magnetization 
 augmentation part      -21.2889500 magnetization 

 Broyden mixing:
  rms(total) = 0.27891E-01    rms(broyden)= 0.27891E-01
  rms(prec ) = 0.32161E-01
  weight for this iteration     100.00

 eigenvalues of (default mixing * dielectric matrix)
  average eigenvalue GAMMA=   1.1772
  2.5095  1.6535  1.6535  0.8270  0.8270  0.4034  0.3665

 Free energy of the ion-electron system (eV)
  ---------------------------------------------------
  alpha Z        PSCENC =       247.17494946
  Ewald energy   TEWEN  =     53387.15077599
  -Hartree energ DENC   =    -65211.45727072
  -exchange      EXHF   =         0.00000000
  -V(xc)+E(xc)   XCENC  =     -2088.80316898
  PAW double counting   =      8365.14342920    -5722.17372050
  entropy T*S    EENTRO =        -0.00000000
  eigenvalues    EBANDS =     -1253.82732301
  atomic energy  EATOM  =     11953.08265402
  Solvation  Ediel_sol  =         0.00000000
  ---------------------------------------------------
  free energy    TOTEN  =      -323.70967455 eV

  energy without entropy =     -323.70967455  energy(sigma->0) =     -323.70967455


--------------------------------------------------------------------------------------------------------




--------------------------------------- Iteration      1(  13)  ---------------------------------------


    POTLOK:  cpu time    0.3063: real time    0.3066
    SETDIJ:  cpu time    0.0118: real time    0.0118
    EDDIAG:  cpu time    2.5618: real time    2.5643
  RMM-DIIS:  cpu time   46.3862: real time   46.4753
    ORTHCH:  cpu time    0.2065: real time    0.2068
       DOS:  cpu time    0.0004: real time    0.0004
    CHARGE:  cpu time    1.1857: real time    1.1868
    MIXING:  cpu time    0.0081: real time    0.0081
    --------------------------------------------
      LOOP:  cpu time   50.6668: real time   50.7601

 eigenvalue-minimisations  :  2354
 total energy-change (2. order) : 0.1619836E-02  (-0.2237141E-02)
 number of electron     324.0000006 magnetization 
 augmentation part      -21.1872740 magnetization 

 Broyden mixing:
  rms(total) = 0.89735E-02    rms(broyden)= 0.89734E-02
  rms(prec ) = 0.12325E-01
  weight for this iteration     100.00

 eigenvalues of (default mixing * dielectric matrix)
  average eigenvalue GAMMA=   1.3238
  2.6086  2.6086  1.7718  1.1824  0.8236  0.8236  0.3670  0.4047

 Free energy of the ion-electron system (eV)
  ---------------------------------------------------
  alpha Z        PSCENC =       247.17494946
  Ewald energy   TEWEN  =     53387.15077599
  -Hartree energ DENC   =    -65213.15160395
  -exchange      EXHF   =         0.00000000
  -V(xc)+E(xc)   XCENC  =     -2088.72436585
  PAW double counting   =      8359.86812462    -5716.86873994
  entropy T*S    EENTRO =        -0.00000000
  eigenvalues    EBANDS =     -1252.23984907
  atomic energy  EATOM  =     11953.08265402
  Solvation  Ediel_sol  =         0.00000000
  ---------------------------------------------------
  free energy    TOTEN  =      -323.70805472 eV

  energy without entropy =     -323.70805472  energy(sigma->0) =     -323.70805472


--------------------------------------------------------------------------------------------------------




--------------------------------------- Iteration      1(  14)  ---------------------------------------


    POTLOK:  cpu time    0.3075: real time    0.3079
    SETDIJ:  cpu time    0.0120: real time    0.0151
    EDDIAG:  cpu time    2.5784: real time    2.5856
  RMM-DIIS:  cpu time   45.4228: real time   45.5660
    ORTHCH:  cpu time    0.2198: real time    0.2200
       DOS:  cpu time    0.0005: real time    0.0005
    CHARGE:  cpu time    1.1792: real time    1.1808
    MIXING:  cpu time    0.0079: real time    0.0079
    --------------------------------------------
      LOOP:  cpu time   49.7282: real time   49.8837

 eigenvalue-minimisations  :  2286
 total energy-change (2. order) :-0.1034092E-02  (-0.7033112E-03)
 number of electron     324.0000006 magnetization 
 augmentation part      -21.1815606 magnetization 

 Broyden mixing:
  rms(total) = 0.59319E-02    rms(broyden)= 0.59319E-02
  rms(prec ) = 0.78773E-02
  weight for this iteration     100.00

 eigenvalues of (default mixing * dielectric matrix)
  average eigenvalue GAMMA=   1.3379
  3.4055  2.5265  1.5201  1.5201  0.8193  0.8193  0.6580  0.4055  0.3668

 Free energy of the ion-electron system (eV)
  ---------------------------------------------------
  alpha Z        PSCENC =       247.17494946
  Ewald energy   TEWEN  =     53387.15077599
  -Hartree energ DENC   =    -65221.83224097
  -exchange      EXHF   =         0.00000000
  -V(xc)+E(xc)   XCENC  =     -2088.66069783
  PAW double counting   =      8356.35233064    -5713.26597770
  entropy T*S    EENTRO =        -0.00000000
  eigenvalues    EBANDS =     -1243.71088242
  atomic energy  EATOM  =     11953.08265402
  Solvation  Ediel_sol  =         0.00000000
  ---------------------------------------------------
  free energy    TOTEN  =      -323.70908881 eV

  energy without entropy =     -323.70908881  energy(sigma->0) =     -323.70908881


--------------------------------------------------------------------------------------------------------




--------------------------------------- Iteration      1(  15)  ---------------------------------------


    POTLOK:  cpu time    0.3070: real time    0.3072
    SETDIJ:  cpu time    0.0117: real time    0.0117
    EDDIAG:  cpu time    2.5719: real time    2.5745
  RMM-DIIS:  cpu time   49.0018: real time   49.1367
    ORTHCH:  cpu time    0.2137: real time    0.2139
       DOS:  cpu time    0.0005: real time    0.0004
    CHARGE:  cpu time    1.1767: real time    1.1862
    MIXING:  cpu time    0.0080: real time    0.0080
    --------------------------------------------
      LOOP:  cpu time   53.2912: real time   53.4387

 eigenvalue-minimisations  :  2509
 total energy-change (2. order) :-0.5820086E-03  (-0.2035566E-03)
 number of electron     324.0000006 magnetization 
 augmentation part      -21.1883866 magnetization 

 Broyden mixing:
  rms(total) = 0.41673E-02    rms(broyden)= 0.41673E-02
  rms(prec ) = 0.53679E-02
  weight for this iteration     100.00

 eigenvalues of (default mixing * dielectric matrix)
  average eigenvalue GAMMA=   1.2894
  3.5675  2.4776  1.6046  1.6046  0.8183  0.8183  0.7734  0.3666  0.4037  0.4590

 Free energy of the ion-electron system (eV)
  ---------------------------------------------------
  alpha Z        PSCENC =       247.17494946
  Ewald energy   TEWEN  =     53387.15077599
  -Hartree energ DENC   =    -65225.34190608
  -exchange      EXHF   =         0.00000000
  -V(xc)+E(xc)   XCENC  =     -2088.63671296
  PAW double counting   =      8356.52423205    -5713.42180323
  entropy T*S    EENTRO =        -0.00000000
  eigenvalues    EBANDS =     -1240.24186006
  atomic energy  EATOM  =     11953.08265402
  Solvation  Ediel_sol  =         0.00000000
  ---------------------------------------------------
  free energy    TOTEN  =      -323.70967082 eV

  energy without entropy =     -323.70967082  energy(sigma->0) =     -323.70967082


--------------------------------------------------------------------------------------------------------




--------------------------------------- Iteration      1(  16)  ---------------------------------------


    POTLOK:  cpu time    0.3090: real time    0.3094
    SETDIJ:  cpu time    0.0147: real time    0.0147
    EDDIAG:  cpu time    2.5739: real time    2.5848
  RMM-DIIS:  cpu time   50.5175: real time   50.6904
    ORTHCH:  cpu time    0.2155: real time    0.2158
       DOS:  cpu time    0.0004: real time    0.0004
    CHARGE:  cpu time    1.1529: real time    1.1583
    MIXING:  cpu time    0.0086: real time    0.0086
    --------------------------------------------
      LOOP:  cpu time   54.7925: real time   54.9822

 eigenvalue-minimisations  :  2553
 total energy-change (2. order) :-0.6006902E-03  (-0.5703514E-04)
 number of electron     324.0000006 magnetization 
 augmentation part      -21.1930748 magnetization 

 Broyden mixing:
  rms(total) = 0.31008E-02    rms(broyden)= 0.31008E-02
  rms(prec ) = 0.40997E-02
  weight for this iteration     100.00

 eigenvalues of (default mixing * dielectric matrix)
  average eigenvalue GAMMA=   1.3285
  3.7969  2.3985  1.9518  1.9518  1.0014  0.8346  0.8346  0.7026  0.4062  0.3658
  0.3688

 Free energy of the ion-electron system (eV)
  ---------------------------------------------------
  alpha Z        PSCENC =       247.17494946
  Ewald energy   TEWEN  =     53387.15077599
  -Hartree energ DENC   =    -65226.56787369
  -exchange      EXHF   =         0.00000000
  -V(xc)+E(xc)   XCENC  =     -2088.63065237
  PAW double counting   =      8356.65294937    -5713.55220316
  entropy T*S    EENTRO =        -0.00000000
  eigenvalues    EBANDS =     -1239.02087112
  atomic energy  EATOM  =     11953.08265402
  Solvation  Ediel_sol  =         0.00000000
  ---------------------------------------------------
  free energy    TOTEN  =      -323.71027151 eV

  energy without entropy =     -323.71027151  energy(sigma->0) =     -323.71027151


--------------------------------------------------------------------------------------------------------




--------------------------------------- Iteration      1(  17)  ---------------------------------------


    POTLOK:  cpu time    0.3199: real time    0.3202
    SETDIJ:  cpu time    0.0119: real time    0.0119
    EDDIAG:  cpu time    2.5737: real time    2.5806
  RMM-DIIS:  cpu time   43.8183: real time   43.9107
    ORTHCH:  cpu time    0.2098: real time    0.2100
       DOS:  cpu time    0.0004: real time    0.0004
    CHARGE:  cpu time    1.1641: real time    1.1653
    MIXING:  cpu time    0.0084: real time    0.0084
    --------------------------------------------
      LOOP:  cpu time   48.1065: real time   48.2074

 eigenvalue-minimisations  :  2211
 total energy-change (2. order) :-0.1344332E-02  (-0.2699522E-04)
 number of electron     324.0000006 magnetization 
 augmentation part      -21.1982000 magnetization 

 Broyden mixing:
  rms(total) = 0.20228E-02    rms(broyden)= 0.20228E-02
  rms(prec ) = 0.26212E-02
  weight for this iteration     100.00

 eigenvalues of (default mixing * dielectric matrix)
  average eigenvalue GAMMA=   1.3972
  4.4064  2.6417  2.3729  1.4925  1.4925  0.9100  0.8346  0.8346  0.6546  0.4052
  0.3670  0.3544

 Free energy of the ion-electron system (eV)
  ---------------------------------------------------
  alpha Z        PSCENC =       247.17494946
  Ewald energy   TEWEN  =     53387.15077599
  -Hartree energ DENC   =    -65229.03761751
  -exchange      EXHF   =         0.00000000
  -V(xc)+E(xc)   XCENC  =     -2088.62102753
  PAW double counting   =      8356.25730499    -5713.16245423
  entropy T*S    EENTRO =        -0.00000000
  eigenvalues    EBANDS =     -1236.55620104
  atomic energy  EATOM  =     11953.08265402
  Solvation  Ediel_sol  =         0.00000000
  ---------------------------------------------------
  free energy    TOTEN  =      -323.71161584 eV

  energy without entropy =     -323.71161584  energy(sigma->0) =     -323.71161584


--------------------------------------------------------------------------------------------------------




--------------------------------------- Iteration      1(  18)  ---------------------------------------


    POTLOK:  cpu time    0.3183: real time    0.3204
    SETDIJ:  cpu time    0.0118: real time    0.0118
    EDDIAG:  cpu time    2.5770: real time    2.5795
  RMM-DIIS:  cpu time   40.9340: real time   41.0425
    ORTHCH:  cpu time    0.2256: real time    0.2258
       DOS:  cpu time    0.0004: real time    0.0004
    CHARGE:  cpu time    1.1566: real time    1.1618
    MIXING:  cpu time    0.0084: real time    0.0085
    --------------------------------------------
      LOOP:  cpu time   45.2321: real time   45.3505

 eigenvalue-minimisations  :  2067
 total energy-change (2. order) :-0.8345060E-03  (-0.2250160E-04)
 number of electron     324.0000006 magnetization 
 augmentation part      -21.1973660 magnetization 

 Broyden mixing:
  rms(total) = 0.16155E-02    rms(broyden)= 0.16155E-02
  rms(prec ) = 0.19761E-02
  weight for this iteration     100.00

 eigenvalues of (default mixing * dielectric matrix)
  average eigenvalue GAMMA=   1.3991
  4.8748  2.8827  2.3554  1.6164  1.6164  0.9304  0.8413  0.8413  0.6692  0.4357
  0.4043  0.3670  0.3538

 Free energy of the ion-electron system (eV)
  ---------------------------------------------------
  alpha Z        PSCENC =       247.17494946
  Ewald energy   TEWEN  =     53387.15077599
  -Hartree energ DENC   =    -65230.92082179
  -exchange      EXHF   =         0.00000000
  -V(xc)+E(xc)   XCENC  =     -2088.61348377
  PAW double counting   =      8355.59897755    -5712.50405253
  entropy T*S    EENTRO =        -0.00000000
  eigenvalues    EBANDS =     -1234.68144927
  atomic energy  EATOM  =     11953.08265402
  Solvation  Ediel_sol  =         0.00000000
  ---------------------------------------------------
  free energy    TOTEN  =      -323.71245035 eV

  energy without entropy =     -323.71245035  energy(sigma->0) =     -323.71245035


--------------------------------------------------------------------------------------------------------




--------------------------------------- Iteration      1(  19)  ---------------------------------------


    POTLOK:  cpu time    0.3082: real time    0.3097
    SETDIJ:  cpu time    0.0120: real time    0.0120
    EDDIAG:  cpu time    2.5702: real time    2.5729
  RMM-DIIS:  cpu time   43.0739: real time   43.1637
    ORTHCH:  cpu time    0.2152: real time    0.2154
       DOS:  cpu time    0.0004: real time    0.0004
    CHARGE:  cpu time    1.1550: real time    1.1601
    MIXING:  cpu time    0.0087: real time    0.0087
    --------------------------------------------
      LOOP:  cpu time   47.3435: real time   47.4429

 eigenvalue-minimisations  :  2184
 total energy-change (2. order) :-0.3710209E-03  (-0.7582184E-05)
 number of electron     324.0000006 magnetization 
 augmentation part      -21.1958988 magnetization 

 Broyden mixing:
  rms(total) = 0.10582E-02    rms(broyden)= 0.10582E-02
  rms(prec ) = 0.13165E-02
  weight for this iteration     100.00

 eigenvalues of (default mixing * dielectric matrix)
  average eigenvalue GAMMA=   1.5242
  6.1186  3.1673  2.3925  1.8611  1.8611  1.0340  1.0340  0.8318  0.8318  0.6771
  0.4069  0.4032  0.3669  0.3522

 Free energy of the ion-electron system (eV)
  ---------------------------------------------------
  alpha Z        PSCENC =       247.17494946
  Ewald energy   TEWEN  =     53387.15077599
  -Hartree energ DENC   =    -65231.61330300
  -exchange      EXHF   =         0.00000000
  -V(xc)+E(xc)   XCENC  =     -2088.61143594
  PAW double counting   =      8355.49294404    -5712.39762895
  entropy T*S    EENTRO =        -0.00000000
  eigenvalues    EBANDS =     -1233.99177699
  atomic energy  EATOM  =     11953.08265402
  Solvation  Ediel_sol  =         0.00000000
  ---------------------------------------------------
  free energy    TOTEN  =      -323.71282137 eV

  energy without entropy =     -323.71282137  energy(sigma->0) =     -323.71282137


--------------------------------------------------------------------------------------------------------




--------------------------------------- Iteration      1(  20)  ---------------------------------------


    POTLOK:  cpu time    0.3112: real time    0.3115
    SETDIJ:  cpu time    0.0118: real time    0.0118
    EDDIAG:  cpu time    2.5754: real time    2.5823
  RMM-DIIS:  cpu time   42.2802: real time   42.3666
    ORTHCH:  cpu time    0.2119: real time    0.2121
       DOS:  cpu time    0.0004: real time    0.0004
    CHARGE:  cpu time    1.1610: real time    1.1662
    MIXING:  cpu time    0.0087: real time    0.0087
    --------------------------------------------
      LOOP:  cpu time   46.5604: real time   46.6595

 eigenvalue-minimisations  :  2133
 total energy-change (2. order) :-0.4945795E-03  (-0.7899080E-05)
 number of electron     324.0000006 magnetization 
 augmentation part      -21.1937289 magnetization 

 Broyden mixing:
  rms(total) = 0.42230E-03    rms(broyden)= 0.42230E-03
  rms(prec ) = 0.52112E-03
  weight for this iteration     100.00

 eigenvalues of (default mixing * dielectric matrix)
  average eigenvalue GAMMA=   1.5836
  6.6717  3.4167  2.5226  1.9002  1.6710  1.6710  1.0092  1.0092  0.8311  0.8311
  0.6890  0.4055  0.4074  0.3669  0.3514

 Free energy of the ion-electron system (eV)
  ---------------------------------------------------
  alpha Z        PSCENC =       247.17494946
  Ewald energy   TEWEN  =     53387.15077599
  -Hartree energ DENC   =    -65232.25495063
  -exchange      EXHF   =         0.00000000
  -V(xc)+E(xc)   XCENC  =     -2088.61229276
  PAW double counting   =      8355.93380304    -5712.83803753
  entropy T*S    EENTRO =        -0.00000000
  eigenvalues    EBANDS =     -1233.35021754
  atomic energy  EATOM  =     11953.08265402
  Solvation  Ediel_sol  =         0.00000000
  ---------------------------------------------------
  free energy    TOTEN  =      -323.71331595 eV

  energy without entropy =     -323.71331595  energy(sigma->0) =     -323.71331595


--------------------------------------------------------------------------------------------------------




--------------------------------------- Iteration      1(  21)  ---------------------------------------


    POTLOK:  cpu time    0.3126: real time    0.3129
    SETDIJ:  cpu time    0.0119: real time    0.0119
    EDDIAG:  cpu time    2.5538: real time    2.5684
  RMM-DIIS:  cpu time   40.7029: real time   40.7982
    ORTHCH:  cpu time    0.2127: real time    0.2130
       DOS:  cpu time    0.0004: real time    0.0004
    CHARGE:  cpu time    1.1635: real time    1.1645
    MIXING:  cpu time    0.0129: real time    0.0129
    --------------------------------------------
      LOOP:  cpu time   44.9706: real time   45.0822

 eigenvalue-minimisations  :  2083
 total energy-change (2. order) :-0.1331374E-03  (-0.2025302E-05)
 number of electron     324.0000006 magnetization 
 augmentation part      -21.1950042 magnetization 

 Broyden mixing:
  rms(total) = 0.30713E-03    rms(broyden)= 0.30713E-03
  rms(prec ) = 0.37765E-03
  weight for this iteration     100.00

 eigenvalues of (default mixing * dielectric matrix)
  average eigenvalue GAMMA=   1.5621
  6.9165  3.4591  2.5457  2.0347  1.8019  1.8019  0.9941  0.9941  0.8312  0.8312
  0.6911  0.5596  0.4049  0.4096  0.3669  0.3512

 Free energy of the ion-electron system (eV)
  ---------------------------------------------------
  alpha Z        PSCENC =       247.17494946
  Ewald energy   TEWEN  =     53387.15077599
  -Hartree energ DENC   =    -65232.48782201
  -exchange      EXHF   =         0.00000000
  -V(xc)+E(xc)   XCENC  =     -2088.61351793
  PAW double counting   =      8356.14050492    -5713.04585086
  entropy T*S    EENTRO =        -0.00000000
  eigenvalues    EBANDS =     -1233.11514267
  atomic energy  EATOM  =     11953.08265402
  Solvation  Ediel_sol  =         0.00000000
  ---------------------------------------------------
  free energy    TOTEN  =      -323.71344908 eV

  energy without entropy =     -323.71344908  energy(sigma->0) =     -323.71344908


--------------------------------------------------------------------------------------------------------




--------------------------------------- Iteration      1(  22)  ---------------------------------------


    POTLOK:  cpu time    0.3145: real time    0.3147
    SETDIJ:  cpu time    0.0118: real time    0.0118
    EDDIAG:  cpu time    2.5713: real time    2.5779
  RMM-DIIS:  cpu time   33.5231: real time   33.5976
    ORTHCH:  cpu time    0.2146: real time    0.2148
       DOS:  cpu time    0.0004: real time    0.0004
    CHARGE:  cpu time    1.1594: real time    1.1635
    MIXING:  cpu time    0.0112: real time    0.0112
    --------------------------------------------
      LOOP:  cpu time   37.8063: real time   37.8920

 eigenvalue-minimisations  :  1590
 total energy-change (2. order) :-0.3622860E-04  (-0.6662958E-06)
 number of electron     324.0000006 magnetization 
 augmentation part      -21.1951120 magnetization 

 Broyden mixing:
  rms(total) = 0.25798E-03    rms(broyden)= 0.25798E-03
  rms(prec ) = 0.31445E-03
  weight for this iteration     100.00

 eigenvalues of (default mixing * dielectric matrix)
  average eigenvalue GAMMA=   1.5672
  7.2033  3.4151  2.5103  2.5103  1.8361  1.8361  1.0610  1.0610  0.9469  0.8286
  0.8286  0.6845  0.3514  0.3669  0.4053  0.4087  0.3884

[...]
  0.000  -0.000   0.000  -0.000   0.000   0.011   0.000  -0.000
 -0.000   0.000  -0.000   0.000   0.000   0.000   0.011  -0.000
 -0.000  -0.000   0.000   0.000   0.000  -0.000  -0.000   0.011
  0.000  -0.000   0.000   0.000   0.001  -0.000  -0.000   0.000
  0.000   0.000  -0.014   0.000   0.000  -0.000   0.000  -0.000
 -0.009  -0.000   0.000  -0.019  -0.000   0.000  -0.000   0.000
 -0.000  -0.000   0.000   0.000  -0.014  -0.000  -0.000  -0.000
  0.000   0.000   0.001  -0.000   0.000   0.000   0.000  -0.000
 total augmentation occupancy for first ion, spin component:           1
  1.934   0.203  -0.005   0.200   0.004  -0.001   0.035  -0.004  -0.000   0.000   0.005  -0.001   0.001
  0.203   1.300   0.016  -0.935  -0.005  -0.002   0.366   0.003  -0.001  -0.002  -0.019  -0.001   0.001
 -0.005   0.016   1.334   0.002  -0.005  -0.471   0.003   0.003  -0.000  -0.114  -0.002   0.002  -0.047
  0.200  -0.935   0.002   1.499  -0.007   0.002  -0.525   0.004   0.002  -0.000  -0.035   0.003  -0.003
  0.004  -0.005  -0.005  -0.007   1.331   0.004   0.004  -0.479  -0.042   0.002   0.003  -0.117  -0.002
 -0.001  -0.002  -0.471   0.002   0.004   0.286  -0.002  -0.002  -0.001   0.038  -0.000  -0.000   0.008
  0.035   0.366   0.003  -0.525   0.004  -0.002   0.279  -0.001  -0.000  -0.000   0.044  -0.001   0.000
 -0.004   0.003   0.003   0.004  -0.479  -0.002  -0.001   0.291   0.008  -0.000  -0.000   0.039  -0.000
 -0.000  -0.001  -0.000   0.002  -0.042  -0.001  -0.000   0.008   0.019  -0.000   0.000  -0.000  -0.000
  0.000  -0.002  -0.114  -0.000   0.002   0.038  -0.000  -0.000  -0.000   0.018   0.000  -0.000  -0.000
  0.005  -0.019  -0.002  -0.035   0.003  -0.000   0.044  -0.000   0.000   0.000   0.019  -0.000  -0.000
 -0.001  -0.001   0.002   0.003  -0.117  -0.000  -0.001   0.039  -0.000  -0.000  -0.000   0.018  -0.000
  0.001   0.001  -0.047  -0.003  -0.002   0.008   0.000  -0.000  -0.000  -0.000  -0.000  -0.000   0.019


------------------------ aborting loop because EDIFF is reached ----------------------------------------


    CHARGE:  cpu time    1.1668: real time    1.1678
    FORLOC:  cpu time    0.0816: real time    0.0816
    FORNL :  cpu time   13.3941: real time   13.4227
    STRESS:  cpu time   70.7507: real time   70.8748
    FORCOR:  cpu time    0.3476: real time    0.3480
    FORHAR:  cpu time    0.1421: real time    0.1422
    MIXING:  cpu time    0.0076: real time    0.0076
    OFIELD:  cpu time    0.0000: real time    0.0000

  Number of pair interactions contributing to vdW energy:  269504
  Edisp (eV):  -18.47305
    FORVDW:  cpu time    0.0294: real time    0.0294

  FORCE on cell =-STRESS in cart. coord.  units (eV):
  Direction    XX          YY          ZZ          XY          YZ          ZX
  --------------------------------------------------------------------------------------
  Alpha Z   247.17495   247.17495   247.17495
  Ewald   62444.28719 62458.29436-71551.74880    -5.30918    34.86575   -33.25207
  Hartree 64805.12703 64807.66205-64413.26351    -1.10517     3.08343    -2.91535
  E(xc)   -1354.22159 -1354.46968 -1373.82034     0.07441    -1.48307     1.43598
  Local  ************************130896.87319     5.96842   -37.10743    35.43802
  n-local  3554.79155  3557.04278  3738.15175    -0.47308    10.65760   -10.28463
  augment  -760.20019  -760.47950  -800.90868     0.01057    -1.77037     1.70253
  Kinetic  3278.09508  3276.45081  3279.24018     0.27196     5.07438    -4.92195
  Fock        0.00000     0.00000     0.00000     0.00000     0.00000     0.00000
  vdW       -12.34819   -12.37374    -8.38629    -0.01157    -0.51965     0.51669
  -------------------------------------------------------------------------------------
  Total      -7.16270    -6.40918    13.31244    -0.57364    12.80064   -12.28078
  in kB      -3.95248    -3.53667     7.34599    -0.31654     7.06357    -6.77670
  external pressure =       -0.05 kB  Pullay stress =        0.00 kB

  kinetic pressure (ideal gas correction) =      0.24 kB
  total pressure  =      0.19 kB
  Total+kin.    -3.644      -3.337       7.547      -0.367       7.069      -6.850

 VOLUME and BASIS-vectors are now :
 -----------------------------------------------------------------------------
  energy-cutoff  :      550.00
  volume of cell :     2903.47
      direct lattice vectors                 reciprocal lattice vectors
    10.650813427  0.000000000  0.000000000     0.093889543  0.054127420 -0.001046266
    -5.320608572  9.229139451  0.000000000     0.000000000  0.108352464  0.002187135
     0.672878559 -0.596225790 29.537520801     0.000000000  0.000000000  0.033855245

  length of vectors
    10.650813427 10.652975669 29.551199397     0.108379511  0.108374536  0.033855245


 FORCES acting on ions
    electron-ion (+dipol)            ewald-force                    non-local-force                 convergence-correction
 -----------------------------------------------------------------------------------------------
   -.121E+01 0.484E+00 -.788E+03   0.131E+01 -.533E+00 0.794E+03   -.294E+00 0.181E+00 -.555E+01   0.707E-03 -.715E-04 -.130E-02
   -.834E+00 0.731E+00 -.790E+03   0.914E+00 -.785E+00 0.795E+03   -.299E+00 0.161E+00 -.525E+01   -.442E-03 -.568E-03 -.790E-03
   0.222E+01 -.370E+01 -.791E+03   -.216E+01 0.367E+01 0.796E+03   -.459E+00 0.386E+00 -.546E+01   0.357E-03 0.910E-03 -.471E-03
   0.478E+01 -.611E+00 -.790E+03   -.478E+01 0.586E+00 0.795E+03   -.371E+00 0.222E+00 -.551E+01   -.163E-02 -.424E-03 0.329E-03
   0.142E+01 0.184E+01 -.790E+03   -.139E+01 -.188E+01 0.796E+03   -.278E+00 0.825E-01 -.533E+01   -.851E-03 -.999E-03 0.691E-03
   0.593E+00 0.518E+00 -.793E+03   -.465E+00 -.567E+00 0.799E+03   -.300E+00 0.563E-01 -.539E+01   -.102E-02 -.547E-03 0.152E-02
   -.475E+00 -.123E+01 -.793E+03   0.590E+00 0.115E+01 0.799E+03   -.426E+00 0.269E+00 -.492E+01   0.964E-03 0.146E-02 0.524E-03
   0.262E+00 -.979E+00 -.792E+03   -.216E+00 0.885E+00 0.797E+03   -.152E+00 0.274E+00 -.500E+01   0.127E-02 -.478E-03 0.457E-03
   0.497E+00 -.172E+01 -.789E+03   -.408E+00 0.169E+01 0.795E+03   -.475E+00 0.299E+00 -.542E+01   0.537E-03 0.737E-03 0.111E-02
   -.254E+00 -.393E+01 0.827E+02   0.267E+00 0.388E+01 -.771E+02   0.418E-01 0.578E+00 -.569E+01   -.475E-03 0.853E-03 0.104E-02
   0.993E+00 0.545E+00 0.832E+02   -.910E+00 -.594E+00 -.775E+02   -.438E+00 0.210E+00 -.536E+01   0.308E-04 0.597E-03 -.655E-03
   -.785E+00 -.329E+00 0.830E+02   0.884E+00 0.264E+00 -.774E+02   -.225E+00 0.244E+00 -.556E+01   -.116E-04 -.170E-02 -.910E-04
   0.167E+00 -.121E+01 0.808E+02   -.141E+00 0.115E+01 -.753E+02   -.207E+00 0.254E+00 -.551E+01   0.930E-03 0.323E-03 0.642E-03
   0.717E+00 -.419E+00 0.801E+02   -.683E+00 0.330E+00 -.745E+02   -.275E+00 0.322E+00 -.578E+01   -.277E-03 -.585E-03 0.256E-03
   0.606E+00 -.841E+00 0.810E+02   -.544E+00 0.814E+00 -.754E+02   -.368E+00 0.218E+00 -.551E+01   -.124E-02 0.392E-04 0.220E-04
   0.550E+00 0.393E-02 0.837E+02   -.513E+00 -.293E-01 -.780E+02   -.180E+00 0.661E-01 -.563E+01   -.617E-03 0.461E-03 0.236E-03
   0.109E+01 0.647E+00 0.817E+02   -.102E+01 -.690E+00 -.761E+02   -.340E+00 0.956E-01 -.556E+01   0.232E-03 0.778E-03 -.534E-03
   0.313E+01 -.950E-01 0.820E+02   -.309E+01 0.514E-01 -.764E+02   -.412E+00 0.243E+00 -.552E+01   0.122E-02 -.617E-03 0.400E-03
   0.422E+00 -.479E+00 -.813E+02   -.480E+00 0.655E+00 0.757E+02   0.487E-01 -.412E+00 0.574E+01   0.839E-03 -.115E-03 0.148E-02
   -.355E+01 0.281E+01 -.808E+02   0.355E+01 -.272E+01 0.751E+02   0.405E+00 -.580E+00 0.553E+01   -.513E-03 -.542E-03 0.103E-02
   -.115E+01 0.375E+00 -.811E+02   0.110E+01 -.340E+00 0.754E+02   0.351E+00 -.343E+00 0.536E+01   0.432E-03 0.110E-02 0.716E-03
   -.122E+01 0.893E+00 -.829E+02   0.120E+01 -.839E+00 0.773E+02   0.462E+00 -.272E+00 0.568E+01   -.173E-02 -.517E-03 0.204E-03
   -.934E+00 0.216E+01 -.822E+02   0.861E+00 -.203E+01 0.766E+02   0.348E+00 -.554E+00 0.546E+01   -.823E-03 -.117E-02 -.343E-03
   -.587E+00 -.752E+00 -.825E+02   0.575E+00 0.837E+00 0.769E+02   0.271E+00 -.241E+00 0.546E+01   -.117E-02 -.658E-03 -.845E-03
   -.364E+00 0.115E+01 -.794E+02   0.288E+00 -.117E+01 0.739E+02   0.211E+00 -.258E+00 0.533E+01   0.989E-03 0.151E-02 0.385E-04
   0.126E+01 -.135E+01 -.800E+02   -.139E+01 0.136E+01 0.743E+02   0.275E+00 0.235E-01 0.514E+01   0.137E-02 -.596E-03 -.240E-03
   0.451E+00 0.301E+01 -.827E+02   -.515E+00 -.292E+01 0.770E+02   0.606E-01 -.675E+00 0.541E+01   0.668E-03 0.871E-03 -.695E-03
   -.162E+00 -.103E+01 0.791E+03   0.112E+00 0.109E+01 -.796E+03   0.282E+00 -.124E+00 0.541E+01   -.356E-03 0.967E-03 -.127E-02
   0.236E+01 0.220E+01 0.791E+03   -.244E+01 -.210E+01 -.797E+03   0.183E-01 -.494E+00 0.548E+01   0.206E-03 0.577E-03 0.512E-03
   -.208E+01 0.208E+01 0.790E+03   0.207E+01 -.204E+01 -.796E+03   0.287E+00 -.358E+00 0.538E+01   -.881E-04 -.172E-02 -.151E-03
   -.215E+01 0.147E+01 0.791E+03   0.211E+01 -.144E+01 -.796E+03   0.292E+00 -.394E+00 0.507E+01   0.980E-03 0.446E-03 -.846E-03
   -.161E+01 -.475E+00 0.788E+03   0.155E+01 0.517E+00 -.794E+03   0.347E+00 -.656E-01 0.518E+01   -.314E-03 -.667E-03 -.570E-03
   0.241E+01 0.750E+00 0.790E+03   -.246E+01 -.663E+00 -.796E+03   -.131E+00 -.368E+00 0.532E+01   -.882E-03 0.294E-04 -.326E-03
   0.747E+00 -.324E+01 0.788E+03   -.793E+00 0.335E+01 -.793E+03   0.566E-01 -.140E-01 0.541E+01   -.468E-03 0.145E-03 -.416E-03
   -.215E+01 0.965E+00 0.790E+03   0.216E+01 -.941E+00 -.796E+03   0.210E+00 -.204E+00 0.544E+01   0.197E-03 0.733E-03 0.427E-03
   -.679E+00 0.236E+01 0.792E+03   0.645E+00 -.235E+01 -.797E+03   0.198E+00 -.277E+00 0.550E+01   0.103E-02 -.584E-03 -.961E-03
   -.521E+01 -.628E+00 -.435E+03   0.535E+01 0.701E+00 0.435E+03   0.575E+00 0.183E+00 0.503E-01   0.136E-02 0.133E-02 0.230E-03
   -.326E+01 0.401E+00 -.436E+03   0.333E+01 -.420E+00 0.436E+03   0.230E+00 0.154E-01 -.966E-03   0.110E-02 0.258E-03 0.140E-03
   0.591E+00 -.299E+01 -.433E+03   -.563E+00 0.303E+01 0.433E+03   0.987E-01 -.351E-01 0.168E+00   0.146E-02 0.428E-03 0.262E-03
   -.969E-01 -.198E+01 -.433E+03   0.919E-01 0.205E+01 0.433E+03   -.390E-02 -.115E-02 0.467E+00   -.680E-03 0.190E-03 0.248E-03
   -.422E+00 0.163E+01 -.436E+03   0.439E+00 -.161E+01 0.436E+03   -.656E-01 0.929E-01 -.157E+00   -.685E-03 -.862E-03 0.230E-03
   -.117E+01 -.187E+01 -.437E+03   0.123E+01 0.194E+01 0.437E+03   0.190E-01 0.268E+00 0.368E-01   -.896E-03 -.420E-03 0.158E-03
   0.365E+01 0.971E+00 -.440E+03   -.363E+01 -.100E+01 0.440E+03   -.402E+00 0.109E+00 -.404E+00   -.707E-03 0.609E-03 0.819E-04
   0.533E+01 0.306E+01 -.436E+03   -.547E+01 -.315E+01 0.436E+03   -.431E+00 -.929E-01 -.660E-01   -.396E-03 -.855E-03 0.144E-03
   -.111E+01 -.876E+00 -.435E+03   0.112E+01 0.102E+01 0.435E+03   0.304E+00 0.276E+00 0.103E+00   -.312E-03 -.338E-03 0.250E-03
   0.113E+01 -.942E+00 0.437E+03   -.115E+01 0.896E+00 -.437E+03   -.132E+00 -.554E-01 0.139E+00   -.188E-03 0.217E-03 -.132E-03
   -.736E+00 0.162E+00 0.435E+03   0.804E+00 -.111E+00 -.436E+03   0.203E+00 0.226E-01 -.311E+00   -.831E-04 0.933E-03 -.967E-04
   -.210E+00 0.155E+01 0.437E+03   0.242E+00 -.157E+01 -.437E+03   -.326E-01 0.112E-01 -.132E+00   0.709E-03 -.902E-03 -.825E-04
   0.340E+00 -.339E+00 0.436E+03   -.366E+00 0.366E+00 -.436E+03   -.206E+00 -.635E-01 0.181E+00   0.290E-03 -.575E-03 -.124E-03
   0.502E+00 0.267E+01 0.435E+03   -.489E+00 -.278E+01 -.435E+03   -.610E-01 -.298E+00 0.178E+00   -.545E-03 0.756E-03 -.152E-03
   0.479E+00 -.133E+01 0.437E+03   -.439E+00 0.142E+01 -.437E+03   0.189E+00 0.247E+00 -.115E+00   -.453E-03 -.676E-03 -.173E-04
   -.364E+00 -.958E+00 0.435E+03   0.350E+00 0.982E+00 -.435E+03   0.155E+00 0.123E+00 0.104E+00   -.831E-04 0.161E-03 -.157E-03
   -.133E+01 -.179E+01 0.435E+03   0.136E+01 0.186E+01 -.435E+03   0.427E-01 0.177E+00 0.290E+00   0.594E-03 0.409E-03 -.159E-03
   -.190E+01 0.122E+01 0.433E+03   0.200E+01 -.126E+01 -.433E+03   0.260E+00 -.102E+00 0.351E-01   -.253E-03 -.416E-03 -.280E-03
 -----------------------------------------------------------------------------------------------
   0.720E+00 0.573E+00 0.713E-01   -.444E-14 -.822E-14 -.341E-12   -.720E+00 -.573E+00 -.702E-01   0.281E-03 0.218E-03 0.168E-02
 
 
 POSITION                                       TOTAL-FORCE (eV/Angst)
 -----------------------------------------------------------------------------------
      2.22998      0.60061     20.34335        -0.181689      0.119856     -0.015496
      0.45850      3.69026     20.33176        -0.210952      0.099288      0.317346
     -1.30194      6.75953     20.35289        -0.383549      0.346038      0.028678
      5.80105      0.61553     20.35217        -0.357022      0.189495      0.041775
      4.01745      3.69337     20.34209        -0.237921      0.046863      0.229614
      2.22527      6.77299     20.37128        -0.167282      0.005158      0.102106
      9.34869      0.63545     20.33741        -0.299554      0.197372      0.587697
      7.55288      3.71844     20.32532        -0.100166      0.179630      0.543854
      5.78180      6.75653     20.34044        -0.378967      0.255268      0.120308
      2.02980      0.73761     12.77960         0.050352      0.509707     -0.069240
      0.30088      3.85298     12.75960        -0.341929      0.157424      0.305706
     -1.49760      6.93686     12.76948        -0.121631      0.174286      0.100163
      5.60139      0.77615     12.78066        -0.175904      0.189555      0.083046
      3.84008      3.84276     12.79778        -0.233324      0.222140     -0.149687
      2.05782      6.92446     12.77673        -0.302001      0.183782      0.145071
      9.14778      0.78401     12.76675        -0.140901      0.039371      0.079695
      7.38393      3.87391     12.78152        -0.261523      0.055845      0.074754
      5.62353      6.93065     12.77282        -0.364104      0.194867      0.121870
      2.17325      0.68271     16.74360        -0.010427     -0.231566      0.052513
      0.36689      3.77758     16.76471         0.382635     -0.476050     -0.156496
     -1.39135      6.83356     16.76723         0.289432     -0.303244     -0.354909
      5.72172      0.68198     16.76071         0.439853     -0.209559      0.014873
      3.94031      3.76512     16.77316         0.267596     -0.409113     -0.223704
      2.15123      6.83128     16.78076         0.247541     -0.151079     -0.190554
      9.25751      0.69093     16.77174         0.127984     -0.266721     -0.298112
      7.50029      3.74271     16.78484         0.150468      0.029361     -0.558991
      5.71130      6.86460     16.77951        -0.006598     -0.571925     -0.325390
      1.99649      0.83106      9.17957         0.225092     -0.053383     -0.112016
      0.24026      3.93217      9.17211        -0.060268     -0.385061     -0.003515
     -1.56059      7.00545      9.18788         0.272367     -0.306439     -0.134528
      5.54641      0.85230      9.19916         0.250183     -0.350422     -0.428463
      3.76851      3.90228      9.20797         0.272052     -0.021721     -0.331097
      2.03177      6.99029      9.19267        -0.176398     -0.272365     -0.193169
      9.11199      0.80848      9.20310         0.008633      0.089449     -0.174917
      7.32382      3.91041      9.18347         0.207683     -0.172529     -0.059027
      5.54842      6.98605      9.16790         0.156023     -0.259669      0.015513
      5.71315      8.85100     18.55013         0.752321      0.249548      0.079967
      9.28274      2.70244     18.55493         0.322557     -0.001260      0.038013
      7.52065      5.78501     18.54302         0.119757      0.007755      0.181141
     -1.34160      8.84639     18.52218        -0.005692      0.073588      0.658308
      2.20547      2.68273     18.56007        -0.057319      0.104590     -0.178125
      0.41696      5.76151     18.56042         0.081645      0.343626      0.073333
      2.23757      8.84156     18.59253        -0.430473      0.074018     -0.496530
      5.78565      2.70824     18.56103        -0.594288     -0.194678     -0.056327
      3.94390      5.75225     18.55541         0.338215      0.412162      0.156326
     -5.05877      9.00200     10.96748        -0.158439     -0.089423      0.174642
      9.12024      2.86031     10.99714         0.270803      0.058650     -0.453788
      7.35059      5.93662     10.98290        -0.000392     -0.019091     -0.230881
      3.81254     -0.20814     10.97162        -0.244160     -0.047020      0.230987
      2.03071      2.86830     10.97275        -0.051956     -0.418368      0.225861
      0.24464      5.92022     10.98317         0.224604      0.338432     -0.172907
      2.01500      8.99683     10.97964         0.156805      0.150932      0.129438
      5.57833      2.84862     10.97388         0.074812      0.261005      0.396013
      3.79576      5.93918     10.98682         0.365643     -0.148124      0.062046
 -----------------------------------------------------------------------------------
    total drift:                                0.000226      0.000249      0.002785


--------------------------------------------------------------------------------------------------------



  FREE ENERGIE OF THE ION-ELECTRON SYSTEM (eV)
  ---------------------------------------------------
  free  energy   TOTEN  =      -342.13716196 eV

  energy  without entropy=     -342.13716196  energy(sigma->0) =     -342.13716196
 
 d Force =-0.1475567E-01[-0.169E-01,-0.126E-01]  d Energy =-0.1476757E-01 0.119E-04
 d Force = 0.7485742E+01[ 0.748E+01, 0.749E+01]  d Ewald  = 0.7485739E+01 0.285E-05


--------------------------------------------------------------------------------------------------------


    POTLOK:  cpu time    0.3200: real time    0.3202


--------------------------------------------------------------------------------------------------------


           RANDOM_SEED =         242657789              324                0
   IONSTEP:  cpu time    0.0001: real time    0.0001

  ENERGY OF THE ELECTRON-ION-THERMOSTAT SYSTEM (eV)
  ---------------------------------------------------
% ion-electron   TOTEN  =      -342.137162  see above
  kinetic energy EKIN   =         0.634645
  kin. lattice  EKIN_LAT=         0.000000  (temperature   92.64 K)
  nose potential ES     =         0.007453
  nose kinetic   EPS    =         0.000016
  ---------------------------------------------------
  total energy   ETOTAL =      -341.495048 eV

  maximum distance moved by ions :      0.59E-03


 mean value of Nose-termostat <S>:     1.004 mean value of <T> :    92.638
 mean temperature <T/S>/<1/S>  :    92.638

    WAVPRE:  cpu time    0.1109: real time    0.1138
    FEWALD:  cpu time    0.0019: real time    0.0019
    ORTHCH:  cpu time    7.8831: real time    7.9152
    POTLOK:  cpu time    0.3149: real time    0.3152
    EDDIAG:  cpu time    2.5736: real time    2.5842
     LOOP+:  cpu time  469.9135: real time  471.0692
    4ORBIT:  cpu time    0.0000: real time    0.0000

 total amount of memory used by VASP MPI-rank0   371870. kBytes
=======================================================================

   base      :      30000. kBytes
   nonl-proj :     196208. kBytes
   fftplans  :      19943. kBytes
   grid      :      90496. kBytes
   one-center:        839. kBytes
   wavefun   :      34384. kBytes
 
  
  
 General timing and accounting informations for this job:
 ========================================================
  
                  Total CPU time used (sec):     5725.033
                            User time (sec):     5711.438
                          System time (sec):       13.595
                         Elapsed time (sec):     5738.544
  
                   Maximum memory used (kb):      826208.
                   Average memory used (kb):           0.
  
                          Minor page faults:       384063
                          Major page faults:            0
                 Voluntary context switches:         1134
