-3.386759000299999798e+02
-3.386727597099999798e+02
-3.386633537800000227e+02
-3.386479361699999799e+02
-3.386269219800000201e+02
-3.386008633100000225e+02
-3.385704279799999767e+02
-3.385363643499999853e+02
-3.384994716400000243e+02
-3.384605739699999845e+02
-3.380949620900000241e+02
-3.380827201299999842e+02
-3.380675273599999855e+02
-3.380496859500000255e+02
-3.380295890300000110e+02
-3.380077018700000053e+02
-3.379845428599999764e+02
-3.379606568500000208e+02
-3.379366091599999891e+02
-3.379129596399999969e+02
-3.380541510499999731e+02
-3.380533811000000242e+02
-3.380476453300000230e+02
-3.380371785599999725e+02
-3.380223590300000183e+02
-3.380036818300000050e+02
-3.379817405900000153e+02
-3.379571891800000003e+02
-3.379307260100000008e+02
-3.379030556000000161e+02
-3.368660944499999914e+02
-3.368763929200000007e+02
-3.368892299500000149e+02
-3.369045016800000099e+02
-3.369221901299999899e+02
-3.369423451999999770e+02
-3.369650632999999971e+02
-3.369904596999999740e+02
-3.370186327399999868e+02
-3.370496390999999790e+02
-3.364076499799999738e+02
-3.364092993400000182e+02
-3.364190320000000156e+02
-3.364368225499999880e+02
-3.364625990200000274e+02
-3.364962133299999891e+02
-3.365374143299999901e+02
-3.365858076200000255e+02
-3.366408359100000212e+02
-3.367017490000000066e+02
-3.361241458999999736e+02
-3.361263139999999794e+02
-3.361367038700000194e+02
-3.361552057499999933e+02
-3.361816142299999797e+02
-3.362156194500000197e+02
-3.362567836000000057e+02
-3.363045439100000067e+02
-3.363581960399999957e+02
-3.364168920800000251e+02
-3.375709000100000026e+02
-3.375728685500000097e+02
-3.375727154599999835e+02
-3.375704712400000176e+02
-3.375662470799999824e+02
-3.375602310500000272e+02
-3.375526814400000148e+02
-3.375439173500000152e+02
-3.375343052299999727e+02
-3.375242473499999960e+02
-3.379445968699999980e+02
-3.379414688200000114e+02
-3.379344894899999758e+02
-3.379238149299999918e+02
-3.379097014600000080e+02
-3.378924876500000209e+02
-3.378725882400000273e+02
-3.378504758299999935e+02
-3.378266618100000187e+02
-3.378016792000000237e+02
-3.383151121899999794e+02
-3.383132190100000116e+02
-3.383065968000000225e+02
-3.382954560800000081e+02
-3.382801278300000263e+02
-3.382610497100000089e+02
-3.382387527700000192e+02
-3.382138237799999843e+02
-3.381869011800000067e+02
-3.381586382400000161e+02
-3.381069312999999852e+02
-3.380998649599999908e+02
-3.380891396399999849e+02
-3.380749673299999927e+02
-3.380576450699999782e+02
-3.380375478700000258e+02
-3.380151091800000245e+02
-3.379908098299999892e+02
-3.379651626300000089e+02
-3.379386953700000049e+02
-3.381817429199999765e+02
-3.381784285400000272e+02
-3.381711180099999865e+02
-3.381600390099999913e+02
-3.381455319899999949e+02
-3.381280287299999827e+02
-3.381080386599999770e+02
-3.380861247999999932e+02
-3.380628777200000172e+02
-3.380389021299999968e+02
-3.374123001599999725e+02
-3.374116067300000168e+02
-3.374088331300000050e+02
-3.374040877799999976e+02
-3.373975989900000059e+02
-3.373896961400000123e+02
-3.373807924399999933e+02
-3.373713705100000197e+02
-3.373619585100000222e+02
-3.373531045899999867e+02
-3.371361905599999886e+02
-3.371515597700000058e+02
-3.371704587500000230e+02
-3.371926713099999802e+02
-3.372179745000000253e+02
-3.372461332299999981e+02
-3.372768934800000125e+02
-3.373099682800000210e+02
-3.373450334300000009e+02
-3.373817152400000055e+02
-3.376747068199999831e+02
-3.376705132899999739e+02
-3.376646603699999787e+02
-3.376573206900000059e+02
-3.376487241500000209e+02
-3.376391434399999980e+02
-3.376288898500000073e+02
-3.376182996599999910e+02
-3.376077260600000045e+02
-3.375975233799999842e+02
-3.378604044900000076e+02
-3.378664531300000249e+02
-3.378709553400000232e+02
-3.378740353200000186e+02
-3.378759410499999944e+02
-3.378770157199999744e+02
-3.378776858499999776e+02
-3.378784229600000231e+02
-3.378797127500000101e+02
-3.378820257500000253e+02
-3.377572946000000229e+02
-3.377580694299999777e+02
-3.377574235399999907e+02
-3.377554520099999991e+02
-3.377523297100000264e+02
-3.377482951200000230e+02
-3.377436467599999901e+02
-3.377387212400000180e+02
-3.377338812899999994e+02
-3.377294941800000174e+02
-3.381517140999999924e+02
-3.381515027199999963e+02
-3.381474082899999871e+02
-3.381395308900000032e+02
-3.381280572900000152e+02
-3.381132519999999886e+02
-3.380954500299999950e+02
-3.380750363899999797e+02
-3.380524327800000037e+02
-3.380280809000000204e+02
-3.379465370199999938e+02
-3.379450885699999958e+02
-3.379393002200000069e+02
-3.379293742199999997e+02
-3.379156476800000064e+02
-3.378985845099999779e+02
-3.378787480999999957e+02
-3.378567768400000091e+02
-3.378333629399999722e+02
-3.378092212199999835e+02
-3.365408074700000043e+02
-3.365321831300000213e+02
-3.365316819000000237e+02
-3.365394235499999809e+02
-3.365554749300000026e+02
-3.365798371299999872e+02
-3.366124229999999784e+02
-3.366530241400000136e+02
-3.367012792300000115e+02
-3.367566498400000228e+02
-3.381746486499999946e+02
-3.381757658399999968e+02
-3.381725640700000213e+02
-3.381652105399999755e+02
-3.381539992300000108e+02
-3.381393340500000022e+02
-3.381217230899999890e+02
-3.381017464899999823e+02
-3.380800442600000224e+02
-3.380572905899999796e+02
-3.376306421699999873e+02
-3.376333440799999721e+02
-3.376329475800000068e+02
-3.376295014400000127e+02
-3.376231586499999935e+02
-3.376141658799999732e+02
-3.376028531900000189e+02
-3.375896254300000123e+02
-3.375749406499999736e+02
-3.375592806199999814e+02
-3.374612369100000251e+02
-3.374669916700000272e+02
-3.374698844299999791e+02
-3.374700280999999791e+02
-3.374676535199999989e+02
-3.374630965599999968e+02
-3.374567797700000256e+02
-3.374491854500000159e+02
-3.374408442399999899e+02
-3.374323031199999718e+02
-3.385134197200000017e+02
-3.385095139499999846e+02
-3.385007422300000144e+02
-3.384873370999999906e+02
-3.384696549500000060e+02
-3.384481524299999933e+02
-3.384233704399999851e+02
-3.383959077000000093e+02
-3.383664022099999897e+02
-3.383355030299999839e+02
-3.379781800100000169e+02
-3.379705416699999887e+02
-3.379595294200000239e+02
-3.379454082299999982e+02
-3.379285401899999783e+02
-3.379093609799999740e+02
-3.378883666799999901e+02
-3.378660969800000089e+02
-3.378431174099999907e+02
-3.378200040899999976e+02
-3.377092735599999855e+02
-3.377154058699999837e+02
-3.377204960000000256e+02
-3.377245644999999854e+02
-3.377276994800000125e+02
-3.377300560699999892e+02
-3.377318545100000051e+02
-3.377333689499999991e+02
-3.377349138399999902e+02
-3.377368303299999752e+02
-3.376781628900000101e+02
-3.376733698400000208e+02
-3.376679164199999832e+02
-3.376621130799999833e+02
-3.376563566899999955e+02
-3.376511241300000279e+02
-3.376469425500000057e+02
-3.376443509499999891e+02
-3.376438762700000211e+02
-3.376460034300000075e+02
-3.378995195599999875e+02
-3.379000963600000205e+02
-3.378972802000000115e+02
-3.378912039599999844e+02
-3.378821240400000079e+02
-3.378704083999999739e+02
-3.378565191499999969e+02
-3.378409966400000144e+02
-3.378244405099999881e+02
-3.378074814999999944e+02
-3.377745988300000022e+02
-3.377792022599999768e+02
-3.377829689800000210e+02
-3.377859519699999851e+02
-3.377882654599999910e+02
-3.377900801299999785e+02
-3.377916183899999965e+02
-3.377931416600000034e+02
-3.377949479499999939e+02
-3.377973521800000185e+02
-3.379598469000000023e+02
-3.379607931499999722e+02
-3.379568901499999924e+02
-3.379483281500000089e+02
-3.379354573800000026e+02
-3.379187686899999790e+02
-3.378988744399999860e+02
-3.378764810399999874e+02
-3.378523524199999883e+02
-3.378272959899999819e+02
-3.382807067200000120e+02
-3.382778185999999891e+02
-3.382699369299999717e+02
-3.382572754000000259e+02
-3.382401620800000046e+02
-3.382190292099999738e+02
-3.381943963499999768e+02
-3.381668477200000211e+02
-3.381370124800000099e+02
-3.381055326800000103e+02
-3.382526036300000101e+02
-3.382380329599999982e+02
-3.382198692900000196e+02
-3.381985747699999934e+02
-3.381747358299999746e+02
-3.381490368099999841e+02
-3.381222308700000099e+02
-3.380951071700000057e+02
-3.380684681600000090e+02
-3.380431023599999776e+02
-3.382997670400000061e+02
-3.382983274800000117e+02
-3.382910805800000276e+02
-3.382782178599999838e+02
-3.382600911999999767e+02
-3.382371932500000185e+02
-3.382101304999999911e+02
-3.381795960499999865e+02
-3.381463366599999745e+02
-3.381111338599999954e+02
-3.381499497899999938e+02
-3.381491098399999942e+02
-3.381448797200000058e+02
-3.381374388400000157e+02
-3.381270521399999893e+02
-3.381140616000000136e+02
-3.380988712000000191e+02
-3.380819341000000122e+02
-3.380637318700000264e+02
-3.380447620099999995e+02
-3.385125255099999890e+02
-3.385098971599999800e+02
-3.385017176900000209e+02
-3.384882159599999909e+02
-3.384697838899999738e+02
-3.384469516400000089e+02
-3.384203650200000197e+02
-3.383907501200000070e+02
-3.383588942700000075e+02
-3.383256197100000122e+02
-3.378969872800000189e+02
-3.379055096499999991e+02
-3.379112354800000162e+02
-3.379142919399999982e+02
-3.379149153000000183e+02
-3.379134458899999913e+02
-3.379102992800000038e+02
-3.379059495800000263e+02
-3.379009023599999750e+02
-3.378956601900000010e+02
-3.374930999000000043e+02
-3.374906427000000235e+02
-3.374891541100000154e+02
-3.374887855800000125e+02
-3.374897389700000190e+02
-3.374922522400000275e+02
-3.374965881900000113e+02
-3.375030008800000019e+02
-3.375117233500000111e+02
-3.375229378399999973e+02
-3.376760402799999952e+02
-3.376757682200000090e+02
-3.376734096299999806e+02
-3.376691302300000075e+02
-3.376631784300000163e+02
-3.376558726700000079e+02
-3.376475902399999995e+02
-3.376387565200000154e+02
-3.376298197200000004e+02
-3.376212389199999961e+02
-3.378078133399999956e+02
-3.378107863399999928e+02
-3.378083407400000056e+02
-3.378006362699999841e+02
-3.377880035499999849e+02
-3.377709377099999983e+02
-3.377500635999999758e+02
-3.377261076400000093e+02
-3.376998694999999771e+02
-3.376721895399999767e+02
-3.377361170300000026e+02
-3.377398580700000252e+02
-3.377433675699999753e+02
-3.377465808900000184e+02
-3.377495102600000223e+02
-3.377522397500000011e+02
-3.377549140099999931e+02
-3.377577299999999809e+02
-3.377609225200000083e+02
-3.377647356499999773e+02
-3.384330785999999875e+02
-3.384321213399999806e+02
-3.384255759000000126e+02
-3.384136191800000120e+02
-3.383965798099999915e+02
-3.383749160599999755e+02
-3.383491968600000064e+02
-3.383200749299999757e+02
-3.382882594499999982e+02
-3.382544897999999876e+02
-3.370591236099999719e+02
-3.370605193999999756e+02
-3.370654892200000177e+02
-3.370740529899999842e+02
-3.370862321500000007e+02
-3.371020416499999897e+02
-3.371214718100000027e+02
-3.371444718299999863e+02
-3.371709314199999881e+02
-3.372006662499999834e+02
-3.379816535599999838e+02
-3.379752739699999893e+02
-3.379642647900000156e+02
-3.379489380599999890e+02
-3.379297379999999862e+02
-3.379072164500000213e+02
-3.378820120500000144e+02
-3.378548173099999872e+02
-3.378263542299999926e+02
-3.377973512899999946e+02
-3.381136225000000195e+02
-3.381131081699999754e+02
-3.381096229099999846e+02
-3.381033241299999759e+02
-3.380945252500000038e+02
-3.380836596899999904e+02
-3.380712698400000136e+02
-3.380579706199999919e+02
-3.380444135800000254e+02
-3.380312556900000232e+02
-3.382292639099999860e+02
-3.382187158500000237e+02
-3.382032462000000237e+02
-3.381833055800000238e+02
-3.381594830000000229e+02
-3.381324858099999915e+02
-3.381031069399999751e+02
-3.380721862299999998e+02
-3.380405919199999971e+02
-3.380091847499999744e+02
-3.376170251099999859e+02
-3.376186793100000045e+02
-3.376214518400000202e+02
-3.376253332699999987e+02
-3.376303211499999861e+02
-3.376364228499999740e+02
-3.376436522899999773e+02
-3.376520301300000142e+02
-3.376615787299999738e+02
-3.376723299899999802e+02
-3.376258167600000206e+02
-3.376249377400000071e+02
-3.376199066099999868e+02
-3.376108283899999947e+02
-3.375979160800000045e+02
-3.375814656300000252e+02
-3.375618598400000110e+02
-3.375395321500000136e+02
-3.375149627900000269e+02
-3.374886538599999994e+02
-3.377921857800000112e+02
-3.378034089199999812e+02
-3.378144463099999939e+02
-3.378251725299999748e+02
-3.378354972000000203e+02
-3.378453681899999879e+02
-3.378547718899999950e+02
-3.378637362000000053e+02
-3.378723176500000136e+02
-3.378806133100000011e+02
-3.377804695799999877e+02
-3.377793220300000030e+02
-3.377746207899999717e+02
-3.377665728000000058e+02
-3.377555447799999797e+02
-3.377420360300000084e+02
-3.377266527200000041e+02
-3.377100742100000161e+02
-3.376930208499999821e+02
-3.376762211299999876e+02
-3.379092617000000018e+02
-3.379151704299999892e+02
-3.379197876499999893e+02
-3.379231571000000258e+02
-3.379254138200000170e+02
-3.379267741599999795e+02
-3.379275252699999896e+02
-3.379279956799999809e+02
-3.379285396299999888e+02
-3.379295178699999838e+02
-3.365477504599999747e+02
-3.365622823499999754e+02
-3.365797593400000096e+02
-3.365999733400000196e+02
-3.366226936699999897e+02
-3.366476810699999760e+02
-3.366746835999999803e+02
-3.367034486000000015e+02
-3.367337228100000175e+02
-3.367652575199999774e+02
-3.373165176599999882e+02
-3.373240459500000270e+02
-3.373310389600000008e+02
-3.373374471899999776e+02
-3.373432983000000149e+02
-3.373486961699999824e+02
-3.373538083999999913e+02
-3.373588555300000280e+02
-3.373640873100000022e+02
-3.373697650400000043e+02
-3.371142786999999998e+02
-3.371113109199999940e+02
-3.371113401299999737e+02
-3.371144323299999996e+02
-3.371206495700000119e+02
-3.371300494700000172e+02
-3.371426741199999810e+02
-3.371585319800000207e+02
-3.371775883700000236e+02
-3.371997492300000090e+02
-3.379117918900000177e+02
-3.379073848400000202e+02
-3.378998323800000207e+02
-3.378892986800000244e+02
-3.378760742200000209e+02
-3.378605630600000040e+02
-3.378432632600000147e+02
-3.378247418999999923e+02
-3.378056089699999802e+02
-3.377864958200000274e+02
-3.378542566599999759e+02
-3.378546170800000255e+02
-3.378524904799999717e+02
-3.378479783600000133e+02
-3.378412515100000064e+02
-3.378325406000000157e+02
-3.378221257399999899e+02
-3.378103256399999736e+02
-3.377974817300000154e+02
-3.377839520800000059e+02
-3.375914272100000062e+02
-3.375902624199999877e+02
-3.375866916499999775e+02
-3.375808220999999776e+02
-3.375728417899999840e+02
-3.375630100700000185e+02
-3.375516504899999859e+02
-3.375391450700000178e+02
-3.375259147400000188e+02
-3.375124154700000076e+02
-3.384219695099999967e+02
-3.384202194499999905e+02
-3.384140730600000211e+02
-3.384037578400000257e+02
-3.383896054599999843e+02
-3.383720193799999834e+02
-3.383514707900000076e+02
-3.383284736400000270e+02
-3.383035621700000206e+02
-3.382772745500000156e+02
-3.378024864999999863e+02
-3.378010530099999755e+02
-3.377982339999999795e+02
-3.377941030299999738e+02
-3.377887855000000172e+02
-3.377824516399999766e+02
-3.377753131599999961e+02
-3.377676119299999868e+02
-3.377596198900000104e+02
-3.377516252899999927e+02
-3.380342717799999832e+02
-3.380338657300000023e+02
-3.380311953799999856e+02
-3.380262636699999916e+02
-3.380191300399999932e+02
-3.380099052099999994e+02
-3.379987519399999769e+02
-3.379858743099999856e+02
-3.379715113899999892e+02
-3.379559283300000061e+02
-3.377848677800000132e+02
-3.377775460999999950e+02
-3.377665382100000215e+02
-3.377522015100000203e+02
-3.377350005000000124e+02
-3.377154784200000108e+02
-3.376942397400000004e+02
-3.376719258499999796e+02
-3.376491858900000125e+02
-3.376266533599999775e+02
-3.377574396200000137e+02
-3.377534738300000186e+02
-3.377478184199999873e+02
-3.377406141199999752e+02
-3.377320606200000270e+02
-3.377224031200000240e+02
-3.377119251600000212e+02
-3.377009474600000090e+02
-3.376898083400000132e+02
-3.376788661699999921e+02
-3.377707690699999716e+02
-3.377683404900000141e+02
-3.377628379500000051e+02
-3.377545167299999775e+02
-3.377437402599999814e+02
-3.377309612299999912e+02
-3.377167086900000186e+02
-3.377015598599999748e+02
-3.376861242499999776e+02
-3.376710102499999948e+02
-3.380938542499999926e+02
-3.380907903300000044e+02
-3.380841401700000119e+02
-3.380740720200000169e+02
-3.380608652899999811e+02
-3.380448974500000077e+02
-3.380266289099999995e+02
-3.380065917100000092e+02
-3.379853651299999910e+02
-3.379635595199999898e+02
-3.380772617599999990e+02
-3.380686881099999823e+02
-3.380569407300000080e+02
-3.380422726300000136e+02
-3.380250240799999801e+02
-3.380056157800000278e+02
-3.379845205299999975e+02
-3.379622501900000202e+02
-3.379393450499999858e+02
-3.379163500700000213e+02
-3.379325241700000220e+02
-3.379315232600000058e+02
-3.379264508200000137e+02
-3.379174982100000193e+02
-3.379049693900000193e+02
-3.378892668699999717e+02
-3.378708749300000136e+02
-3.378503428399999962e+02
-3.378282622500000230e+02
-3.378052401699999905e+02
-3.378631724400000280e+02
-3.378689454999999953e+02
-3.378710156299999881e+02
-3.378693962699999815e+02
-3.378642061300000137e+02
-3.378556615300000203e+02
-3.378440638499999977e+02
-3.378297905700000001e+02
-3.378132683599999950e+02
-3.377949569599999791e+02
-3.376115134699999771e+02
-3.376106625400000212e+02
-3.376056714900000202e+02
-3.375967196500000114e+02
-3.375841469499999903e+02
-3.375684354900000130e+02
-3.375501833299999817e+02
-3.375300810100000035e+02
-3.375088797299999896e+02
-3.374873559200000273e+02
-3.379339204199999926e+02
-3.379282796800000028e+02
-3.379202659300000278e+02
-3.379100608800000032e+02
-3.378979244199999812e+02
-3.378841850700000009e+02
-3.378692357599999809e+02
-3.378535119200000167e+02
-3.378374928299999738e+02
-3.378216772100000185e+02
-3.380592321400000060e+02
-3.380602174599999898e+02
-3.380557211700000266e+02
-3.380458669700000200e+02
-3.380309554699999808e+02
-3.380114471900000126e+02
-3.379879370300000119e+02
-3.379611256700000013e+02
-3.379317900699999768e+02
-3.379007509699999900e+02
-3.368851120599999831e+02
-3.369018886200000225e+02
-3.369234869200000162e+02
-3.369496587500000260e+02
-3.369800810799999908e+02
-3.370143576400000143e+02
-3.370520197999999823e+02
-3.370925218500000256e+02
-3.371352640599999972e+02
-3.371795985599999881e+02
-3.373960790300000099e+02
-3.374074178100000267e+02
-3.374176262500000121e+02
-3.374265961099999913e+02
-3.374342879100000232e+02
-3.374407434400000056e+02
-3.374460737800000061e+02
-3.374504666099999781e+02
-3.374541645300000141e+02
-3.374574596799999995e+02
-3.380651553199999739e+02
-3.380634924500000125e+02
-3.380580438000000072e+02
-3.380489411400000108e+02
-3.380364393099999916e+02
-3.380208937300000116e+02
-3.380027523599999881e+02
-3.379825325499999735e+02
-3.379608051899999737e+02
-3.379381697800000097e+02
-3.377429864999999722e+02
-3.377462298400000122e+02
-3.377482370100000253e+02
-3.377490817099999845e+02
-3.377489196000000220e+02
-3.377479762199999982e+02
-3.377465247100000170e+02
-3.377448746800000094e+02
-3.377433447199999819e+02
-3.377422371900000257e+02
-3.381583468900000184e+02
-3.381645640599999751e+02
-3.381680501100000242e+02
-3.381688418200000115e+02
-3.381670673599999759e+02
-3.381629372599999783e+02
-3.381567370000000210e+02
-3.381488148199999841e+02
-3.381395601099999908e+02
-3.381293981499999859e+02
-3.374343675000000076e+02
-3.374233584199999996e+02
-3.374122225799999910e+02
-3.374013719999999807e+02
-3.373912395199999992e+02
-3.373822698899999750e+02
-3.373748836500000152e+02
-3.373694767100000149e+02
-3.373663834700000166e+02
-3.373658770100000197e+02
-3.380710659700000065e+02
-3.380701644600000009e+02
-3.380659601899999984e+02
-3.380587194099999806e+02
-3.380488011900000060e+02
-3.380366491500000166e+02
-3.380227617499999724e+02
-3.380076677800000198e+02
-3.379919067999999811e+02
-3.379759957300000224e+02
-3.374792969299999754e+02
-3.374770160200000078e+02
-3.374736572799999976e+02
-3.374693508500000121e+02
-3.374642582500000003e+02
-3.374585827000000222e+02
-3.374525593700000172e+02
-3.374464424099999746e+02
-3.374405037899999797e+02
-3.374350182100000097e+02
-3.372939278399999807e+02
-3.372905633400000056e+02
-3.372835322600000154e+02
-3.372730777200000034e+02
-3.372595590000000243e+02
-3.372434401900000012e+02
-3.372252624100000276e+02
-3.372056327399999986e+02
-3.371851867899999888e+02
-3.371645818599999984e+02
-3.371856690800000251e+02
-3.372082626399999867e+02
-3.372316595199999938e+02
-3.372555387400000200e+02
-3.372796131800000126e+02
-3.373036386300000231e+02
-3.373274168400000121e+02
-3.373508156500000155e+02
-3.373737605300000268e+02
-3.373962384399999905e+02
-3.369001455399999827e+02
-3.369036792100000071e+02
-3.369107259400000203e+02
-3.369211761999999908e+02
-3.369348878600000035e+02
-3.369516784799999982e+02
-3.369713364400000160e+02
-3.369936186099999986e+02
-3.370182670500000199e+02
-3.370449890799999935e+02
-3.373178794199999970e+02
-3.373136956000000168e+02
-3.373080408800000214e+02
-3.373010429899999849e+02
-3.372928732799999807e+02
-3.372837431899999956e+02
-3.372738918599999920e+02
-3.372635883600000284e+02
-3.372531139199999757e+02
-3.372427589600000033e+02
-3.383115622999999914e+02
-3.383016516600000045e+02
-3.382880057400000169e+02
-3.382709342300000230e+02
-3.382508366900000283e+02
-3.382281803199999786e+02
-3.382034846700000230e+02
-3.381772917600000028e+02
-3.381501555899999971e+02
-3.381226180300000124e+02
-3.375829218599999990e+02
-3.375771285700000135e+02
-3.375679373599999735e+02
-3.375555823999999916e+02
-3.375403982899999846e+02
-3.375228011400000128e+02
-3.375032713800000010e+02
-3.374823403600000233e+02
-3.374605594600000131e+02
-3.374384921100000270e+02
-3.381580526600000098e+02
-3.381612681899999870e+02
-3.381598467499999856e+02
-3.381538189699999748e+02
-3.381433411200000023e+02
-3.381286782700000231e+02
-3.381102022800000100e+02
-3.380883678700000132e+02
-3.380637018699999885e+02
-3.380367719199999783e+02
-3.369091088999999783e+02
-3.369171159800000055e+02
-3.369282320199999958e+02
-3.369423563099999797e+02
-3.369593700699999772e+02
-3.369791358499999774e+02
-3.370014856999999893e+02
-3.370262186900000074e+02
-3.370530875700000024e+02
-3.370818009899999765e+02
-3.379325079800000253e+02
-3.379243122500000140e+02
-3.379130637299999762e+02
-3.378989567899999997e+02
-3.378822717900000043e+02
-3.378633715700000266e+02
-3.378426814700000023e+02
-3.378206776800000171e+02
-3.377978688599999941e+02
-3.377747912400000132e+02
-3.374350408999999900e+02
-3.374269097299999771e+02
-3.374159304400000110e+02
-3.374024066000000062e+02
-3.373867186100000026e+02
-3.373693121700000006e+02
-3.373506743500000198e+02
-3.373313096599999881e+02
-3.373117354899999896e+02
-3.372924530399999981e+02
-3.380539609900000073e+02
-3.380537571400000161e+02
-3.380498368899999946e+02
-3.380423692599999868e+02
-3.380316106700000205e+02
-3.380178996999999868e+02
-3.380016398700000195e+02
-3.379832848400000103e+02
-3.379633175499999993e+02
-3.379422313599999939e+02
-3.376616743000000156e+02
-3.376607537300000104e+02
-3.376577290199999766e+02
-3.376527364500000203e+02
-3.376459654500000056e+02
-3.376376409100000160e+02
-3.376280413999999723e+02
-3.376174596100000258e+02
-3.376062132800000199e+02
-3.375946280900000147e+02
-3.379711485600000174e+02
-3.379745804099999873e+02
-3.379732388400000218e+02
-3.379672866099999737e+02
-3.379570497999999930e+02
-3.379430011000000036e+02
-3.379257230000000050e+02
-3.379058938599999919e+02
-3.378842377799999781e+02
-3.378614994499999966e+02
-3.370907730299999798e+02
-3.370804551300000185e+02
-3.370743102800000202e+02
-3.370725865599999906e+02
-3.370754856799999857e+02
-3.370831467300000099e+02
-3.370956317600000034e+02
-3.371129065200000241e+02
-3.371348261900000125e+02
-3.371611194500000011e+02
-3.379823608199999967e+02
-3.379783441999999809e+02
-3.379696952099999976e+02
-3.379566051499999730e+02
-3.379393828699999744e+02
-3.379184348000000000e+02
-3.378942495200000167e+02
-3.378673755799999867e+02
-3.378383997299999919e+02
-3.378079284300000040e+02
-3.374425507500000094e+02
-3.374416888200000244e+02
-3.374363209699999970e+02
-3.374266166200000043e+02
-3.374128731399999879e+02
-3.373955103499999950e+02
-3.373750430000000051e+02
-3.373520657500000084e+02
-3.373272241500000064e+02
-3.373011953000000176e+02
-3.365724122299999976e+02
-3.365649997300000109e+02
-3.365657419899999923e+02
-3.365748037800000247e+02
-3.365922542800000201e+02
-3.366180460699999912e+02
-3.366519881500000224e+02
-3.366937293799999793e+02
-3.367427294899999879e+02
-3.367982488800000169e+02
-3.375786537399999929e+02
-3.375793274399999859e+02
-3.375785716099999831e+02
-3.375764831500000014e+02
-3.375732104400000253e+02
-3.375689431000000127e+02
-3.375639227600000254e+02
-3.375584134000000063e+02
-3.375527092799999878e+02
-3.375471185900000251e+02
-3.380637586700000270e+02
-3.380612178599999993e+02
-3.380547720299999810e+02
-3.380445872000000236e+02
-3.380309384299999920e+02
-3.380142078499999911e+02
-3.379948505799999907e+02
-3.379733826799999861e+02
-3.379503541799999766e+02
-3.379263255999999842e+02
-3.375297443000000044e+02
-3.375252165800000057e+02
-3.375194923099999755e+02
-3.375126811999999745e+02
-3.375049470000000156e+02
-3.374965046600000278e+02
-3.374876132499999812e+02
-3.374785687400000143e+02
-3.374696993300000258e+02
-3.374613426099999742e+02
-3.372141224700000066e+02
-3.372061737600000129e+02
-3.372013523100000043e+02
-3.371998248300000114e+02
-3.372017429900000138e+02
-3.372072368600000232e+02
-3.372164065900000196e+02
-3.372293070499999885e+02
-3.372459414300000162e+02
-3.372662510200000270e+02
-3.380435967899999810e+02
-3.380531659100000184e+02
-3.380597854399999846e+02
-3.380634877499999789e+02
-3.380644096899999909e+02
-3.380627830600000152e+02
-3.380589180700000043e+02
-3.380531968199999824e+02
-3.380460392699999943e+02
-3.380378840000000196e+02
-3.375452718000000232e+02
-3.375304752299999791e+02
-3.375148266300000159e+02
-3.374987583700000187e+02
-3.374827635699999746e+02
-3.374673817899999904e+02
-3.374531640499999980e+02
-3.374406665000000203e+02
-3.374304143499999782e+02
-3.374228870900000175e+02
-3.373685693799999967e+02
-3.373732144100000028e+02
-3.373753025600000228e+02
-3.373749298700000168e+02
-3.373722804099999735e+02
-3.373676342800000043e+02
-3.373613460000000259e+02
-3.373538295800000242e+02
-3.373455425199999809e+02
-3.373369716999999923e+02
-3.378489859399999773e+02
-3.378509206100000029e+02
-3.378489498800000206e+02
-3.378432311700000241e+02
-3.378340486399999918e+02
-3.378217982200000051e+02
-3.378069699600000035e+02
-3.377901247500000181e+02
-3.377718702099999746e+02
-3.377528440699999805e+02
-3.377761067399999888e+02
-3.377765799800000082e+02
-3.377717648899999858e+02
-3.377619004200000177e+02
-3.377473944299999857e+02
-3.377288007000000221e+02
-3.377067875999999842e+02
-3.376821062899999788e+02
-3.376555622899999776e+02
-3.376279727400000183e+02
-3.375672590799999853e+02
-3.375802162499999781e+02
-3.375936391100000264e+02
-3.376073171400000206e+02
-3.376210934200000224e+02
-3.376348758699999735e+02
-3.376486189400000058e+02
-3.376623220800000240e+02
-3.376760153000000173e+02
-3.376897484799999916e+02
-3.379233669000000191e+02
-3.379250821100000053e+02
-3.379250576900000169e+02
-3.379234415999999896e+02
-3.379204768999999828e+02
-3.379164809600000012e+02
-3.379118261699999834e+02
-3.379069191099999898e+02
-3.379021723500000007e+02
-3.378979804599999852e+02
-3.368904713900000161e+02
-3.369029087299999787e+02
-3.369178778500000249e+02
-3.369352031299999908e+02
-3.369546926300000109e+02
-3.369761397699999748e+02
-3.369993296800000167e+02
-3.370240435200000206e+02
-3.370500548699999968e+02
-3.370771478099999854e+02
-3.378735212700000261e+02
-3.378775666000000228e+02
-3.378797561299999757e+02
-3.378801534599999741e+02
-3.378789026800000102e+02
-3.378762121699999739e+02
-3.378723492099999817e+02
-3.378676144799999861e+02
-3.378623264600000198e+02
-3.378568003799999815e+02
-3.376222973199999728e+02
-3.376365068599999972e+02
-3.376491382099999896e+02
-3.376600299799999902e+02
-3.376690886399999840e+02
-3.376762953100000004e+02
-3.376816989399999898e+02
-3.376854195500000060e+02
-3.376876406900000234e+02
-3.376885977000000025e+02
-3.376511127399999737e+02
-3.376441940700000259e+02
-3.376387143300000275e+02
-3.376348774100000014e+02
-3.376328840200000059e+02
-3.376329344700000092e+02
-3.376352159099999994e+02
-3.376399059199999897e+02
-3.376471490000000131e+02
-3.376570672099999797e+02
-3.380331313400000113e+02
-3.380397162300000105e+02
-3.380425966299999914e+02
-3.380418682100000183e+02
-3.380377737399999774e+02
-3.380306748099999936e+02
-3.380210371200000168e+02
-3.380094021699999871e+02
-3.379963564199999837e+02
-3.379825065599999903e+02
-3.376028540699999780e+02
-3.376051284900000269e+02
-3.376058970999999929e+02
-3.376053700100000015e+02
-3.376038757499999861e+02
-3.376018396299999722e+02
-3.375997520399999985e+02
-3.375981472199999871e+02
-3.375975607799999807e+02
-3.375984966500000155e+02
-3.376865322799999944e+02
-3.376885360599999899e+02
-3.376877075599999785e+02
-3.376841604300000199e+02
-3.376781184299999836e+02
-3.376699166199999809e+02
-3.376599813500000096e+02
-3.376488194799999860e+02
-3.376370011199999794e+02
-3.376251374899999860e+02
-3.378681933099999810e+02
-3.378664649300000065e+02
-3.378632641699999795e+02
-3.378587317800000278e+02
-3.378530981999999767e+02
-3.378466789299999959e+02
-3.378398533000000157e+02
-3.378330331399999977e+02
-3.378266526799999951e+02
-3.378211358199999950e+02
-3.369995116100000132e+02
-3.370046143899999720e+02
-3.370098884700000212e+02
-3.370153402700000242e+02
-3.370210232100000098e+02
-3.370270395000000008e+02
-3.370335337999999865e+02
-3.370406816400000025e+02
-3.370486834199999748e+02
-3.370577553400000284e+02
-3.377469917299999906e+02
-3.377537007500000072e+02
-3.377574662600000011e+02
-3.377582026800000108e+02
-3.377559489199999803e+02
-3.377508706500000244e+02
-3.377432409499999721e+02
-3.377334263600000099e+02
-3.377218616999999767e+02
-3.377090218499999992e+02
-3.375651662399999964e+02
-3.375636190499999998e+02
-3.375592402799999832e+02
-3.375521255799999949e+02
-3.375424498900000003e+02
-3.375304552100000137e+02
-3.375164451699999972e+02
-3.375007767299999841e+02
-3.374838422899999841e+02
-3.374660663099999738e+02
-3.380116596899999877e+02
-3.380055614099999843e+02
-3.379953932999999893e+02