0.000000000000000000e+00 2.032270000000000021e+00 9.490240000000000009e+00 -1.760000000000000009e+00 5.080680000000000085e+00 9.490240000000000009e+00 -3.520000000000000018e+00 8.129089999999999705e+00 9.490240000000000009e+00 3.520000000000000018e+00 2.032270000000000021e+00 9.490240000000000009e+00 1.760000000000000009e+00 5.080680000000000085e+00 9.490240000000000009e+00 0.000000000000000000e+00 8.129089999999999705e+00 9.490240000000000009e+00 7.040000000000000036e+00 2.032270000000000021e+00 9.490240000000000009e+00 5.280000000000000249e+00 5.080680000000000085e+00 9.490240000000000009e+00 3.520000000000000018e+00 8.129089999999999705e+00 9.490240000000000009e+00 1.407999999999999918e+00 2.032270000000000021e+00 1.688917999999999964e+01 -3.519999999999999796e-01 5.080680000000000085e+00 1.688917999999999964e+01 -2.112000000000000099e+00 8.129089999999999705e+00 1.688917999999999964e+01 4.927999999999999936e+00 2.032270000000000021e+00 1.688917999999999964e+01 3.168000000000000149e+00 5.080680000000000085e+00 1.688917999999999964e+01 1.407999999999999918e+00 8.129089999999999705e+00 1.688917999999999964e+01 8.448000000000000398e+00 2.032270000000000021e+00 1.688917999999999964e+01 6.687999999999999723e+00 5.080680000000000085e+00 1.688917999999999964e+01 4.927999999999999936e+00 8.129089999999999705e+00 1.688917999999999964e+01 0.000000000000000000e+00 2.032270000000000021e+00 1.311082000000000036e+01 -1.760000000000000009e+00 5.080680000000000085e+00 1.311082000000000036e+01 -3.520000000000000018e+00 8.129089999999999705e+00 1.311082000000000036e+01 3.520000000000000018e+00 2.032270000000000021e+00 1.311082000000000036e+01 1.760000000000000009e+00 5.080680000000000085e+00 1.311082000000000036e+01 0.000000000000000000e+00 8.129089999999999705e+00 1.311082000000000036e+01 7.040000000000000036e+00 2.032270000000000021e+00 1.311082000000000036e+01 5.280000000000000249e+00 5.080680000000000085e+00 1.311082000000000036e+01 3.520000000000000018e+00 8.129089999999999705e+00 1.311082000000000036e+01 1.407999999999999918e+00 2.032270000000000021e+00 2.050978999999999886e+01 -3.519999999999999796e-01 5.080680000000000085e+00 2.050978999999999886e+01 -2.112000000000000099e+00 8.129089999999999705e+00 2.050978999999999886e+01 4.927999999999999936e+00 2.032270000000000021e+00 2.050978999999999886e+01 3.168000000000000149e+00 5.080680000000000085e+00 2.050978999999999886e+01 1.407999999999999918e+00 8.129089999999999705e+00 2.050978999999999886e+01 8.448000000000000398e+00 2.032270000000000021e+00 2.050978999999999886e+01 6.687999999999999723e+00 5.080680000000000085e+00 2.050978999999999886e+01 4.927999999999999936e+00 8.129089999999999705e+00 2.050978999999999886e+01 0.000000000000000000e+00 0.000000000000000000e+00 1.130020000000000024e+01 -1.760000000000000009e+00 3.048410000000000064e+00 1.130020000000000024e+01 -3.520000000000000018e+00 6.096820000000000128e+00 1.130020000000000024e+01 3.520000000000000018e+00 0.000000000000000000e+00 1.130020000000000024e+01 1.760000000000000009e+00 3.048410000000000064e+00 1.130020000000000024e+01 0.000000000000000000e+00 6.096820000000000128e+00 1.130020000000000024e+01 7.040000000000000036e+00 0.000000000000000000e+00 1.130020000000000024e+01 5.280000000000000249e+00 3.048410000000000064e+00 1.130020000000000024e+01 3.520000000000000018e+00 6.096820000000000128e+00 1.130020000000000024e+01 1.407999999999999918e+00 0.000000000000000000e+00 1.869981999999999900e+01 -3.519999999999999796e-01 3.048410000000000064e+00 1.869981999999999900e+01 -2.112000000000000099e+00 6.096820000000000128e+00 1.869981999999999900e+01 4.927999999999999936e+00 0.000000000000000000e+00 1.869981999999999900e+01 3.168000000000000149e+00 3.048410000000000064e+00 1.869981999999999900e+01 1.407999999999999918e+00 6.096820000000000128e+00 1.869981999999999900e+01 8.448000000000000398e+00 0.000000000000000000e+00 1.869981999999999900e+01 6.687999999999999723e+00 3.048410000000000064e+00 1.869981999999999900e+01 4.927999999999999936e+00 6.096820000000000128e+00 1.869981999999999900e+01
6.499999999999999702e-04 2.030759999999999899e+00 9.489069999999999894e+00 -1.760089999999999932e+00 5.081479999999999997e+00 9.490259999999999252e+00 -3.517040000000000166e+00 8.127509999999999124e+00 9.491239999999999455e+00 3.518510000000000026e+00 2.033840000000000092e+00 9.488319999999999865e+00 1.760480000000000045e+00 5.079240000000000421e+00 9.490729999999999222e+00 -1.469999999999999953e-03 8.127449999999999619e+00 9.491329999999999600e+00 7.041409999999999947e+00 2.032290000000000152e+00 9.489520000000000621e+00 5.280770000000000408e+00 5.081089999999999662e+00 9.490190000000000126e+00 3.518740000000000201e+00 8.126699999999999591e+00 9.489290000000000447e+00 1.409629999999999939e+00 2.034190000000000165e+00 1.688639999999999830e+01 -3.533899999999999819e-01 5.078960000000000363e+00 1.688854999999999862e+01 -2.111330000000000151e+00 8.128259999999999152e+00 1.688891999999999882e+01 4.929820000000000313e+00 2.032329999999999970e+00 1.689016000000000162e+01 3.167429999999999968e+00 5.081220000000000070e+00 1.688712999999999909e+01 1.408740000000000103e+00 8.130549999999999500e+00 1.688926999999999978e+01 8.448729999999999407e+00 2.032049999999999912e+00 1.689209999999999923e+01 6.687420000000000364e+00 5.079819999999999780e+00 1.688999000000000095e+01 4.926409999999999734e+00 8.127909999999999968e+00 1.688900999999999897e+01 1.600000000000000131e-04 2.032109999999999861e+00 1.311368000000000045e+01 -1.762210000000000054e+00 5.080409999999999648e+00 1.310950000000000060e+01 -3.520939999999999959e+00 8.132419999999999760e+00 1.311253999999999920e+01 3.522219999999999906e+00 2.032529999999999948e+00 1.310928000000000004e+01 1.757449999999999957e+00 5.085340000000000416e+00 1.311041999999999952e+01 -1.760000000000000063e-03 8.127810000000000201e+00 1.311027999999999949e+01 7.038879999999999804e+00 2.031709999999999905e+00 1.311062000000000083e+01 5.282409999999999606e+00 5.081579999999999764e+00 1.311163999999999952e+01 3.521609999999999907e+00 8.130900000000000460e+00 1.310838999999999999e+01 1.406870000000000065e+00 2.032630000000000159e+00 2.051159000000000177e+01 -3.516299999999999981e-01 5.081319999999999837e+00 2.050609000000000037e+01 -2.109970000000000123e+00 8.131850000000000023e+00 2.050882000000000005e+01 4.928880000000000372e+00 2.028540000000000010e+00 2.050907000000000124e+01 3.165369999999999795e+00 5.080899999999999750e+00 2.050863000000000014e+01 1.409399999999999986e+00 8.129149999999999210e+00 2.051060999999999979e+01 8.448370000000000601e+00 2.035079999999999778e+00 2.050769000000000020e+01 6.687500000000000000e+00 5.082629999999999981e+00 2.051329000000000136e+01 4.927800000000000402e+00 8.128909999999999414e+00 2.051125000000000043e+01 5.279899999999999594e+00 9.141719999999999402e+00 1.130265999999999948e+01 8.799670000000000769e+00 3.047210000000000196e+00 1.130058999999999969e+01 7.039970000000000283e+00 6.096560000000000201e+00 1.129870000000000019e+01 -1.756669999999999954e+00 9.145089999999999719e+00 1.130267000000000088e+01 1.758969999999999922e+00 3.047590000000000021e+00 1.130064999999999920e+01 -2.230000000000000211e-03 6.095390000000000086e+00 1.130012999999999934e+01 1.759730000000000016e+00 9.143560000000000798e+00 1.130380000000000074e+01 5.281509999999999927e+00 3.051130000000000120e+00 1.129959000000000024e+01 3.519159999999999844e+00 6.093040000000000234e+00 1.130053999999999981e+01 1.410430000000000073e+00 1.119999999999999902e-03 1.870416000000000167e+01 -3.497500000000000053e-01 3.048770000000000202e+00 1.869924999999999926e+01 -2.112029999999999852e+00 6.095460000000000100e+00 1.870129999999999981e+01 -3.517100000000000226e-01 9.144970000000000709e+00 1.869714000000000098e+01 3.169340000000000046e+00 3.048150000000000137e+00 1.870048999999999850e+01 1.403890000000000082e+00 6.097789999999999822e+00 1.869967000000000112e+01 8.444739999999999469e+00 8.800000000000000313e-04 1.869745999999999952e+01 6.688139999999999752e+00 3.045459999999999834e+00 1.869828000000000046e+01 4.926540000000000141e+00 6.099230000000000373e+00 1.870023000000000124e+01
1.289999999999999914e-03 2.029240000000000155e+00 9.487909999999999400e+00 -1.760180000000000078e+00 5.082259999999999778e+00 9.490280000000000271e+00 -3.514069999999999805e+00 8.125930000000000319e+00 9.492250000000000298e+00 3.517020000000000035e+00 2.035400000000000098e+00 9.486409999999999343e+00 1.760960000000000081e+00 5.077799999999999869e+00 9.491220000000000212e+00 -2.939999999999999905e-03 8.125809999999999533e+00 9.492419999999999192e+00 7.042810000000000237e+00 2.032300000000000217e+00 9.488799999999999457e+00 5.281539999999999679e+00 5.081509999999999749e+00 9.490130000000000621e+00 3.517479999999999940e+00 8.124320000000000874e+00 9.488360000000000127e+00 1.411280000000000090e+00 2.036090000000000177e+00 1.688363000000000014e+01 -3.547799999999999843e-01 5.077239999999999753e+00 1.688791000000000153e+01 -2.110660000000000203e+00 8.127430000000000376e+00 1.688866000000000156e+01 4.931639999999999802e+00 2.032389999999999919e+00 1.689112000000000080e+01 3.166869999999999852e+00 5.081760000000000055e+00 1.688509000000000171e+01 1.409480000000000066e+00 8.131990000000000052e+00 1.688934000000000069e+01 8.449469999999999814e+00 2.031839999999999868e+00 1.689499999999999957e+01 6.686840000000000117e+00 5.078949999999999854e+00 1.689079999999999870e+01 4.924830000000000041e+00 8.126730000000000231e+00 1.688883999999999830e+01 3.099999999999999999e-04 2.031950000000000145e+00 1.311655000000000015e+01 -1.764429999999999943e+00 5.080140000000000100e+00 1.310819000000000045e+01 -3.521879999999999900e+00 8.135730000000000572e+00 1.311425999999999981e+01 3.524430000000000174e+00 2.032789999999999875e+00 1.310773999999999972e+01 1.754899999999999904e+00 5.089979999999999727e+00 1.311003999999999969e+01 -3.520000000000000125e-03 8.126530000000000697e+00 1.310975000000000001e+01 7.037749999999999950e+00 2.031140000000000168e+00 1.311042999999999914e+01 5.284810000000000230e+00 5.082489999999999952e+00 1.311247000000000007e+01 3.523200000000000109e+00 8.132699999999999818e+00 1.310598000000000063e+01 1.405739999999999990e+00 2.032989999999999853e+00 2.051340000000000074e+01 -3.512700000000000267e-01 5.081959999999999589e+00 2.050242000000000075e+01 -2.107950000000000212e+00 8.134600000000000719e+00 2.050786000000000087e+01 4.929750000000000298e+00 2.024809999999999999e+00 2.050835000000000008e+01 3.162739999999999885e+00 5.081109999999999793e+00 2.050747000000000142e+01 1.410800000000000054e+00 8.129200000000000870e+00 2.051142000000000110e+01 8.448729999999999407e+00 2.037879999999999914e+00 2.050560000000000116e+01 6.686989999999999768e+00 5.084559999999999746e+00 2.051678000000000068e+01 4.927590000000000359e+00 8.128729999999999123e+00 2.051270999999999844e+01 5.279799999999999827e+00 9.138230000000000075e+00 1.130509999999999948e+01 8.799340000000000828e+00 3.046009999999999884e+00 1.130096999999999952e+01 7.039939999999999642e+00 6.096320000000000405e+00 1.129723000000000077e+01 -1.753360000000000030e+00 9.144970000000000709e+00 1.130511000000000088e+01 1.757949999999999902e+00 3.046769999999999978e+00 1.130109999999999992e+01 -4.449999999999999963e-03 6.093969999999999665e+00 1.130006000000000022e+01 1.759449999999999958e+00 9.141890000000000072e+00 1.130735999999999919e+01 5.283009999999999984e+00 3.053830000000000044e+00 1.129897000000000062e+01 3.518320000000000114e+00 6.089279999999999582e+00 1.130087999999999937e+01 1.412849999999999939e+00 2.239999999999999804e-03 1.870845999999999876e+01 -3.474999999999999756e-01 3.049129999999999896e+00 1.869868999999999915e+01 -2.112060000000000048e+00 6.094109999999999694e+00 1.870278000000000063e+01 -3.514100000000000001e-01 9.144700000000000273e+00 1.869447999999999865e+01 3.170679999999999943e+00 3.047890000000000210e+00 1.870117000000000118e+01 1.399809999999999999e+00 6.098770000000000024e+00 1.869950000000000045e+01 8.441509999999999181e+00 1.760000000000000063e-03 1.869512999999999892e+01 6.688290000000000290e+00 3.042549999999999866e+00 1.869676000000000116e+01 4.925089999999999968e+00 6.101630000000000109e+00 1.870063999999999993e+01
1.930000000000000075e-03 2.027719999999999967e+00 9.486769999999999925e+00 -1.760280000000000067e+00 5.083029999999999937e+00 9.490289999999999893e+00 -3.511120000000000019e+00 8.124370000000000758e+00 9.493249999999999744e+00 3.515550000000000175e+00 2.036960000000000104e+00 9.484519999999999840e+00 1.761430000000000051e+00 5.076360000000000205e+00 9.491699999999999804e+00 -4.389999999999999805e-03 8.124180000000000845e+00 9.493499999999999162e+00 7.044200000000000017e+00 2.032309999999999839e+00 9.488089999999999691e+00 5.282309999999999839e+00 5.081920000000000215e+00 9.490050000000000097e+00 3.516230000000000189e+00 8.121930000000000760e+00 9.487439999999999429e+00 1.412940000000000085e+00 2.037980000000000125e+00 1.688088000000000122e+01 -3.561500000000000221e-01 5.075520000000000032e+00 1.688727000000000089e+01 -2.109989999999999810e+00 8.126599999999999824e+00 1.688840000000000074e+01 4.933469999999999800e+00 2.032449999999999868e+00 1.689206000000000074e+01 3.166319999999999801e+00 5.082290000000000418e+00 1.688306000000000040e+01 1.410220000000000029e+00 8.133430000000000604e+00 1.688937999999999917e+01 8.450219999999999843e+00 2.031620000000000203e+00 1.689787000000000106e+01 6.686270000000000380e+00 5.078090000000000437e+00 1.689161000000000001e+01 4.923289999999999722e+00 8.125569999999999737e+00 1.688869000000000042e+01 4.499999999999999877e-04 2.031789999999999985e+00 1.311938999999999922e+01 -1.766659999999999897e+00 5.079860000000000042e+00 1.310688999999999993e+01 -3.522819999999999840e+00 8.139020000000000366e+00 1.311598000000000042e+01 3.526619999999999866e+00 2.033059999999999867e+00 1.310622000000000043e+01 1.752340000000000009e+00 5.094579999999999664e+00 1.310965999999999987e+01 -5.279999999999999971e-03 8.125239999999999796e+00 1.310923999999999978e+01 7.036609999999999587e+00 2.030580000000000052e+00 1.311025000000000063e+01 5.287189999999999834e+00 5.083389999999999631e+00 1.311331000000000024e+01 3.524770000000000181e+00 8.134460000000000690e+00 1.310360000000000014e+01 1.404619999999999980e+00 2.033360000000000056e+00 2.051520999999999972e+01 -3.509099999999999997e-01 5.082589999999999719e+00 2.049877000000000038e+01 -2.105919999999999792e+00 8.137330000000000396e+00 2.050692000000000093e+01 4.930620000000000225e+00 2.021090000000000053e+00 2.050762999999999892e+01 3.160109999999999975e+00 5.081330000000000346e+00 2.050630999999999915e+01 1.412179999999999991e+00 8.129260000000000375e+00 2.051222999999999885e+01 8.449099999999999611e+00 2.040659999999999918e+00 2.050352000000000174e+01 6.686480000000000423e+00 5.086479999999999890e+00 2.052025000000000077e+01 4.927369999999999806e+00 8.128560000000000230e+00 2.051416000000000039e+01 5.279700000000000060e+00 9.134790000000000632e+00 1.130747000000000035e+01 8.799020000000000508e+00 3.044820000000000082e+00 1.130133999999999972e+01 7.039900000000000269e+00 6.096090000000000231e+00 1.129578000000000060e+01 -1.750099999999999989e+00 9.144849999999999923e+00 1.130752000000000024e+01 1.756909999999999972e+00 3.045960000000000001e+00 1.130156000000000027e+01 -6.669999999999999714e-03 6.092550000000000132e+00 1.129997999999999969e+01 1.759160000000000057e+00 9.140240000000000364e+00 1.131085000000000029e+01 5.284489999999999910e+00 3.056509999999999838e+00 1.129833999999999961e+01 3.517500000000000071e+00 6.085560000000000080e+00 1.130120999999999931e+01 1.415240000000000054e+00 3.370000000000000166e-03 1.871268999999999849e+01 -3.452500000000000013e-01 3.049479999999999968e+00 1.869811999999999941e+01 -2.112099999999999866e+00 6.092780000000000307e+00 1.870422999999999902e+01 -3.511000000000000232e-01 9.144429999999999836e+00 1.869184999999999874e+01 3.172010000000000218e+00 3.047629999999999839e+00 1.870183000000000106e+01 1.395769999999999955e+00 6.099750000000000227e+00 1.869931000000000054e+01 8.438330000000000553e+00 2.619999999999999933e-03 1.869285999999999959e+01 6.688430000000000319e+00 3.039689999999999781e+00 1.869528999999999996e+01 4.923659999999999926e+00 6.103989999999999583e+00 1.870105999999999824e+01
2.560000000000000209e-03 2.026180000000000092e+00 9.485649999999999693e+00 -1.760369999999999990e+00 5.083779999999999966e+00 9.490280000000000271e+00 -3.508179999999999854e+00 8.122830000000000439e+00 9.494260000000000588e+00 3.514089999999999936e+00 2.038499999999999979e+00 9.482659999999999201e+00 1.761879999999999891e+00 5.074910000000000032e+00 9.492179999999999396e+00 -5.819999999999999653e-03 8.122560000000000002e+00 9.494579999999999131e+00 7.045589999999999797e+00 2.032290000000000152e+00 9.487399999999999167e+00 5.283070000000000377e+00 5.082329999999999792e+00 9.489959999999999951e+00 3.514979999999999993e+00 8.119550000000000267e+00 9.486549999999999372e+00 1.414619999999999989e+00 2.039839999999999876e+00 1.687815000000000154e+01 -3.575200000000000045e-01 5.073820000000000441e+00 1.688661000000000101e+01 -2.109329999999999927e+00 8.125769999999999271e+00 1.688814999999999955e+01 4.935279999999999667e+00 2.032500000000000195e+00 1.689296999999999827e+01 3.165770000000000195e+00 5.082830000000000403e+00 1.688107000000000113e+01 1.410949999999999926e+00 8.134840000000000515e+00 1.688939999999999841e+01 8.450989999999999114e+00 2.031410000000000160e+00 1.690069000000000088e+01 6.685710000000000264e+00 5.077230000000000132e+00 1.689243000000000094e+01 4.921770000000000422e+00 8.124439999999999884e+00 1.688853999999999900e+01 5.699999999999999772e-04 2.031620000000000203e+00 1.312223000000000006e+01 -1.768899999999999917e+00 5.079579999999999984e+00 1.310561000000000043e+01 -3.523750000000000160e+00 8.142279999999999518e+00 1.311769999999999925e+01 3.528789999999999871e+00 2.033349999999999991e+00 1.310471000000000075e+01 1.749770000000000048e+00 5.099149999999999849e+00 1.310929999999999929e+01 -7.040000000000000251e-03 8.123939999999999273e+00 1.310877999999999943e+01 7.035470000000000113e+00 2.030030000000000001e+00 1.311008999999999958e+01 5.289539999999999687e+00 5.084279999999999688e+00 1.311414000000000080e+01 3.526320000000000121e+00 8.136189999999999145e+00 1.310125000000000028e+01 1.403520000000000101e+00 2.033739999999999881e+00 2.051701999999999870e+01 -3.505599999999999827e-01 5.083219999999999850e+00 2.049518000000000129e+01 -2.103880000000000194e+00 8.140040000000000830e+00 2.050599000000000061e+01 4.931499999999999773e+00 2.017399999999999860e+00 2.050693000000000055e+01 3.157490000000000130e+00 5.081559999999999633e+00 2.050516000000000005e+01 1.413550000000000084e+00 8.129329999999999501e+00 2.051303000000000054e+01 8.449479999999999436e+00 2.043419999999999792e+00 2.050144999999999840e+01 6.685959999999999681e+00 5.088379999999999903e+00 2.052367999999999881e+01 4.927130000000000010e+00 8.128410000000000579e+00 2.051558999999999955e+01 5.279620000000000424e+00 9.131429999999999936e+00 1.130976000000000070e+01 8.798719999999999430e+00 3.043620000000000214e+00 1.130170000000000030e+01 7.039860000000000007e+00 6.095880000000000187e+00 1.129438000000000031e+01 -1.746899999999999897e+00 9.144759999999999778e+00 1.130986000000000047e+01 1.755880000000000107e+00 3.045160000000000089e+00 1.130203999999999986e+01 -8.869999999999999413e-03 6.091160000000000352e+00 1.129988999999999955e+01 1.758860000000000090e+00 9.138600000000000279e+00 1.131423999999999985e+01 5.285960000000000214e+00 3.059149999999999814e+00 1.129770000000000074e+01 3.516700000000000159e+00 6.081889999999999574e+00 1.130155000000000065e+01 1.417569999999999997e+00 4.490000000000000067e-03 1.871679999999999922e+01 -3.429900000000000171e-01 3.049819999999999975e+00 1.869754000000000005e+01 -2.112159999999999815e+00 6.091479999999999784e+00 1.870564999999999856e+01 -3.507600000000000162e-01 9.144149999999999778e+00 1.868927000000000049e+01 3.173319999999999919e+00 3.047369999999999912e+00 1.870247000000000170e+01 1.391809999999999992e+00 6.100719999999999921e+00 1.869906999999999897e+01 8.435240000000000293e+00 3.459999999999999968e-03 1.869066000000000116e+01 6.688550000000000217e+00 3.036910000000000220e+00 1.869388999999999967e+01 4.922240000000000393e+00 6.106309999999999683e+00 1.870148000000000010e+01
3.180000000000000101e-03 2.024620000000000086e+00 9.484569999999999723e+00 -1.760469999999999979e+00 5.084500000000000242e+00 9.490259999999999252e+00 -3.505250000000000199e+00 8.121320000000000761e+00 9.495269999999999655e+00 3.512659999999999894e+00 2.040020000000000167e+00 9.480840000000000600e+00 1.762310000000000043e+00 5.073470000000000368e+00 9.492649999999999366e+00 -7.219999999999999855e-03 8.120950000000000557e+00 9.495660000000000878e+00 7.046969999999999956e+00 2.032259999999999955e+00 9.486739999999999284e+00 5.283820000000000405e+00 5.082749999999999879e+00 9.489850000000000563e+00 3.513729999999999798e+00 8.117169999999999774e+00 9.485689999999999955e+00 1.416309999999999958e+00 2.041669999999999874e+00 1.687546999999999997e+01 -3.588799999999999768e-01 5.072140000000000093e+00 1.688594000000000150e+01 -2.108670000000000044e+00 8.124930000000000874e+00 1.688791000000000153e+01 4.937090000000000423e+00 2.032560000000000144e+00 1.689384000000000086e+01 3.165230000000000210e+00 5.083370000000000388e+00 1.687911000000000072e+01 1.411680000000000046e+00 8.136240000000000805e+00 1.688936999999999955e+01 8.451779999999999404e+00 2.031210000000000182e+00 1.690344999999999942e+01 6.685159999999999769e+00 5.076380000000000337e+00 1.689326000000000150e+01 4.920309999999999739e+00 8.123350000000000293e+00 1.688841999999999999e+01 6.800000000000000488e-04 2.031439999999999912e+00 1.312503000000000064e+01 -1.771139999999999937e+00 5.079279999999999795e+00 1.310434000000000054e+01 -3.524669999999999970e+00 8.145500000000000185e+00 1.311941000000000024e+01 3.530949999999999811e+00 2.033669999999999867e+00 1.310322000000000031e+01 1.747209999999999930e+00 5.103659999999999641e+00 1.310895000000000010e+01 -8.789999999999999203e-03 8.122629999999999129e+00 1.310834999999999972e+01 7.034329999999999750e+00 2.029490000000000016e+00 1.310993999999999993e+01 5.291870000000000296e+00 5.085180000000000256e+00 1.311497999999999919e+01 3.527839999999999865e+00 8.137869999999999493e+00 1.309895999999999994e+01 1.402449999999999974e+00 2.034139999999999837e+00 2.051884000000000086e+01 -3.502199999999999758e-01 5.083840000000000359e+00 2.049164999999999992e+01 -2.101840000000000153e+00 8.142709999999999226e+00 2.050509999999999877e+01 4.932369999999999699e+00 2.013729999999999798e+00 2.050622999999999863e+01 3.154879999999999907e+00 5.081789999999999807e+00 2.050400000000000134e+01 1.414889999999999981e+00 8.129410000000000025e+00 2.051381999999999906e+01 8.449849999999999639e+00 2.046159999999999979e+00 2.049940000000000140e+01 6.685419999999999696e+00 5.090239999999999654e+00 2.052706999999999837e+01 4.926879999999999704e+00 8.128289999999999793e+00 2.051700999999999908e+01 5.279560000000000031e+00 9.128159999999999386e+00 1.131193000000000026e+01 8.798450000000000770e+00 3.042429999999999968e+00 1.130204999999999949e+01 7.039799999999999613e+00 6.095710000000000406e+00 1.129303999999999952e+01 -1.743789999999999951e+00 9.144679999999999254e+00 1.131212000000000018e+01 1.754839999999999955e+00 3.044389999999999930e+00 1.130253000000000085e+01 -1.106000000000000039e-02 6.089800000000000324e+00 1.129978999999999978e+01 1.758529999999999927e+00 9.136990000000000833e+00 1.131750000000000078e+01 5.287420000000000009e+00 3.061749999999999972e+00 1.129702999999999946e+01 3.515940000000000065e+00 6.078310000000000102e+00 1.130188000000000059e+01 1.419829999999999925e+00 5.629999999999999588e-03 1.872075999999999851e+01 -3.407399999999999873e-01 3.050139999999999851e+00 1.869695000000000107e+01 -2.112229999999999830e+00 6.090220000000000411e+00 1.870703999999999922e+01 -3.503800000000000248e-01 9.143850000000000477e+00 1.868673000000000073e+01 3.174609999999999932e+00 3.047109999999999985e+00 1.870308999999999955e+01 1.387930000000000108e+00 6.101709999999999745e+00 1.869878999999999891e+01 8.432240000000000180e+00 4.270000000000000358e-03 1.868856999999999857e+01 6.688670000000000115e+00 3.034250000000000114e+00 1.869258999999999915e+01 4.920840000000000103e+00 6.108559999999999768e+00 1.870191000000000159e+01
3.789999999999999966e-03 2.023039999999999949e+00 9.483530000000000015e+00 -1.760580000000000034e+00 5.085180000000000256e+00 9.490220000000000766e+00 -3.502330000000000165e+00 8.119839999999999947e+00 9.496280000000000499e+00 3.511260000000000048e+00 2.041529999999999845e+00 9.479070000000000107e+00 1.762720000000000065e+00 5.072020000000000195e+00 9.493109999999999715e+00 -8.590000000000000413e-03 8.119360000000000355e+00 9.496729999999999450e+00 7.048329999999999984e+00 2.032200000000000006e+00 9.486100000000000421e+00 5.284570000000000434e+00 5.083169999999999966e+00 9.489710000000000534e+00 3.512490000000000112e+00 8.114779999999999660e+00 9.484880000000000422e+00 1.418029999999999902e+00 2.043460000000000054e+00 1.687284000000000006e+01 -3.602299999999999947e-01 5.070479999999999876e+00 1.688524999999999920e+01 -2.108029999999999848e+00 8.124090000000000700e+00 1.688767999999999958e+01 4.938880000000000159e+00 2.032620000000000093e+00 1.689467000000000141e+01 3.164689999999999781e+00 5.083910000000000373e+00 1.687718999999999880e+01 1.412390000000000034e+00 8.137600000000000833e+00 1.688929999999999865e+01 8.452600000000000335e+00 2.031010000000000204e+00 1.690614000000000061e+01 6.684599999999999653e+00 5.075529999999999653e+00 1.689410000000000167e+01 4.918890000000000207e+00 8.122299999999999187e+00 1.688832999999999984e+01 7.699999999999999597e-04 2.031260000000000066e+00 1.312781000000000020e+01 -1.773400000000000087e+00 5.078979999999999606e+00 1.310310999999999915e+01 -3.525560000000000027e+00 8.148669999999999192e+00 1.312110999999999983e+01 3.533079999999999998e+00 2.034009999999999874e+00 1.310174999999999912e+01 1.744650000000000034e+00 5.108100000000000307e+00 1.310862999999999978e+01 -1.052999999999999943e-02 8.121309999999999363e+00 1.310798999999999914e+01 7.033179999999999765e+00 2.028950000000000031e+00 1.310980999999999952e+01 5.294159999999999755e+00 5.086070000000000313e+00 1.311581999999999937e+01 3.529319999999999791e+00 8.139480000000000715e+00 1.309674000000000049e+01 1.401399999999999979e+00 2.034539999999999793e+00 2.052064999999999984e+01 -3.498999999999999888e-01 5.084439999999999849e+00 2.048819999999999908e+01 -2.099790000000000045e+00 8.145350000000000534e+00 2.050422999999999973e+01 4.933239999999999625e+00 2.010089999999999932e+00 2.050553999999999988e+01 3.152280000000000193e+00 5.082019999999999982e+00 2.050284999999999869e+01 1.416199999999999903e+00 8.129490000000000549e+00 2.051460000000000150e+01 8.450229999999999464e+00 2.048869999999999969e+00 2.049737000000000009e+01 6.684870000000000090e+00 5.092080000000000162e+00 2.053039000000000058e+01 4.926610000000000156e+00 8.128199999999999648e+00 2.051840999999999937e+01 5.279519999999999769e+00 9.125000000000000000e+00 1.131396999999999942e+01 8.798199999999999577e+00 3.041230000000000100e+00 1.130236999999999981e+01 7.039729999999999599e+00 6.095570000000000377e+00 1.129177999999999926e+01 -1.740779999999999994e+00 9.144640000000000768e+00 1.131428000000000011e+01 1.753789999999999960e+00 3.043629999999999836e+00 1.130305000000000071e+01 -1.322000000000000085e-02 6.088460000000000427e+00 1.129965999999999937e+01 1.758180000000000076e+00 9.135410000000000252e+00 1.132061000000000028e+01 5.288840000000000430e+00 3.064290000000000180e+00 1.129634000000000071e+01 3.515219999999999789e+00 6.074810000000000265e+00 1.130221000000000053e+01 1.422009999999999996e+00 6.760000000000000384e-03 1.872455000000000069e+01 -3.384800000000000031e-01 3.050440000000000040e+00 1.869634999999999891e+01 -2.112330000000000041e+00 6.089000000000000412e+00 1.870836999999999861e+01 -3.499700000000000033e-01 9.143530000000000157e+00 1.868425999999999831e+01 3.175870000000000193e+00 3.046839999999999993e+00 1.870369000000000170e+01 1.384149999999999991e+00 6.102699999999999569e+00 1.869842999999999833e+01 8.429360000000000852e+00 5.049999999999999802e-03 1.868661000000000172e+01 6.688760000000000261e+00 3.031719999999999970e+00 1.869138999999999839e+01 4.919459999999999944e+00 6.110719999999999708e+00 1.870234999999999914e+01