1.016999999999999892e-03 1.765999999999999992e-03 -9.808000000000000745e-03 1.012000000000000096e-03 1.763000000000000027e-03 -9.809999999999999276e-03 1.016999999999999892e-03 1.758000000000000014e-03 -9.809999999999999276e-03 1.000999999999999937e-03 1.755999999999999965e-03 -9.790000000000000091e-03 1.008999999999999914e-03 1.753999999999999917e-03 -9.787999999999999826e-03 1.002999999999999985e-03 1.757000000000000098e-03 -9.794000000000000622e-03 9.909999999999999105e-04 1.747999999999999988e-03 -9.804999999999999480e-03 9.870000000000000301e-04 1.752000000000000085e-03 -9.804000000000000214e-03 9.879999999999999460e-04 1.740999999999999926e-03 -9.804000000000000214e-03 3.499599999999999933e-02 -2.327000000000000075e-03 -1.131799999999999994e-02 3.499399999999999733e-02 -2.331999999999999872e-03 -1.131700000000000067e-02 3.499900000000000233e-02 -2.333000000000000004e-03 -1.131799999999999994e-02 3.499499999999999833e-02 -2.331000000000000173e-03 -1.132000000000000020e-02 3.499800000000000133e-02 -2.331000000000000173e-03 -1.131799999999999994e-02 3.499599999999999933e-02 -2.328999999999999907e-03 -1.132099999999999947e-02 3.499800000000000133e-02 -2.330000000000000040e-03 -1.131700000000000067e-02 3.499599999999999933e-02 -2.328000000000000208e-03 -1.131599999999999967e-02 3.499399999999999733e-02 -2.334000000000000137e-03 -1.131599999999999967e-02 -3.495600000000000096e-02 -2.285000000000000139e-03 1.141799999999999933e-02 -3.496300000000000102e-02 -2.288000000000000103e-03 1.141900000000000033e-02 -3.495600000000000096e-02 -2.291000000000000068e-03 1.141799999999999933e-02 -3.497000000000000108e-02 -2.294000000000000032e-03 1.139899999999999941e-02 -3.496300000000000102e-02 -2.295999999999999864e-03 1.139699999999999915e-02 -3.497000000000000108e-02 -2.292000000000000200e-03 1.140200000000000068e-02 -3.498500000000000221e-02 -2.301999999999999793e-03 1.141600000000000080e-02 -3.498600000000000321e-02 -2.301000000000000094e-03 1.141299999999999953e-02 -3.498400000000000121e-02 -2.309999999999999987e-03 1.141299999999999953e-02 -9.799999999999999684e-04 1.719000000000000042e-03 9.728999999999999801e-03 -9.810000000000001011e-04 1.714999999999999945e-03 9.730000000000000801e-03 -9.770000000000000039e-04 1.714999999999999945e-03 9.731000000000000066e-03 -9.790000000000000525e-04 1.716000000000000077e-03 9.730000000000000801e-03 -9.749999999999999552e-04 1.716999999999999993e-03 9.728999999999999801e-03 -9.770000000000000039e-04 1.719000000000000042e-03 9.731999999999999332e-03 -9.730000000000000151e-04 1.716999999999999993e-03 9.730000000000000801e-03 -9.770000000000000039e-04 1.719999999999999958e-03 9.728999999999999801e-03 -9.790000000000000525e-04 1.716000000000000077e-03 9.728000000000000536e-03 -1.098400000000000071e-02 5.490000000000000088e-04 -9.120000000000000502e-04 -1.098200000000000044e-02 5.469999999999999602e-04 -9.120000000000000502e-04 -1.098400000000000071e-02 5.479999999999999845e-04 -9.150000000000000147e-04 -1.097300000000000011e-02 5.559999999999999621e-04 -9.200000000000000278e-04 -1.097200000000000085e-02 5.550000000000000462e-04 -9.250000000000000409e-04 -1.097099999999999985e-02 5.519999999999999733e-04 -9.190000000000000035e-04 -1.099299999999999930e-02 5.419999999999999471e-04 -9.210000000000000521e-04 -1.099600000000000057e-02 5.410000000000000312e-04 -9.160000000000000390e-04 -1.099600000000000057e-02 5.410000000000000312e-04 -9.210000000000000521e-04 1.096899999999999958e-02 5.569999999999999864e-04 8.760000000000000425e-04 1.097200000000000085e-02 5.550000000000000462e-04 8.750000000000000182e-04 1.097000000000000058e-02 5.559999999999999621e-04 8.729999999999999696e-04 1.097099999999999985e-02 5.580000000000000107e-04 8.750000000000000182e-04 1.097099999999999985e-02 5.569999999999999864e-04 8.729999999999999696e-04 1.097399999999999938e-02 5.550000000000000462e-04 8.739999999999999939e-04 1.097599999999999965e-02 5.580000000000000107e-04 8.760000000000000425e-04 1.097300000000000011e-02 5.580000000000000107e-04 8.720000000000000537e-04 1.097300000000000011e-02 5.580000000000000107e-04 8.739999999999999939e-04
-8.252999999999999919e-03 -1.231800000000000082e-02 2.375199999999999881e-02 -2.294000000000000032e-03 -2.443599999999999939e-02 -1.968699999999999964e-02 -1.250599999999999976e-02 2.556500000000000092e-02 -3.818000000000000213e-03 2.263499999999999887e-02 -1.325699999999999969e-02 2.868400000000000116e-02 -1.704500000000000112e-02 5.619999999999999996e-04 -1.276399999999999930e-02 2.495299999999999949e-02 1.441199999999999946e-02 -1.043999999999999963e-02 -1.059299999999999999e-02 -1.612799999999999997e-02 1.271399999999999961e-02 -5.615000000000000199e-03 2.249000000000000131e-03 -2.586899999999999963e-02 5.458000000000000178e-03 4.576000000000000206e-03 2.389700000000000157e-02 4.147800000000000098e-02 -3.175900000000000251e-02 2.939599999999999852e-02 3.334499999999999964e-02 1.350100000000000085e-02 -1.857599999999999876e-02 1.696599999999999844e-02 -3.824999999999999841e-03 1.083999999999999894e-03 1.502299999999999990e-02 -2.533999999999999794e-03 -4.136000000000000093e-02 2.905200000000000143e-02 -4.629999999999999784e-04 2.563800000000000107e-02 1.617100000000000135e-02 -2.267200000000000118e-02 -4.270299999999999790e-02 4.103799999999999809e-02 3.655999999999999962e-03 -6.001999999999999696e-02 3.067200000000000135e-02 4.061999999999999639e-03 -3.150000000000000131e-04 6.421399999999999331e-02 2.945599999999999954e-02 1.110300000000000002e-02 -3.953500000000000070e-02 -6.467999999999999791e-03 -1.501000000000000077e-02 -3.063099999999999851e-02 -8.689999999999999808e-03 2.683800000000000074e-02 -1.189100000000000053e-02 -4.018800000000000150e-02 1.193000000000000050e-03 -4.338800000000000295e-02 1.715699999999999864e-02 2.487100000000000075e-02 -2.489099999999999993e-02 -5.283399999999999902e-02 2.289899999999999922e-02 -1.759200000000000000e-02 -1.024599999999999990e-02 4.700900000000000217e-02 -2.807099999999999873e-02 5.841999999999999971e-03 2.230800000000000144e-02 -5.237800000000000095e-02 -4.122999999999999929e-03 1.053499999999999923e-02 -5.222299999999999859e-02 -4.702400000000000330e-02 5.294200000000000295e-02 2.006399999999999850e-02 1.204200000000000062e-02 8.085000000000000173e-03 -1.123599999999999946e-02 -6.922000000000000201e-03 6.347899999999999376e-02 3.795000000000000196e-03 -2.769500000000000087e-02 2.943499999999999936e-02 -1.784999999999999911e-03 2.508099999999999913e-02 1.452999999999999951e-02 9.424999999999999351e-03 6.317999999999999831e-03 8.876000000000000209e-03 -2.322499999999999912e-02 7.757000000000000006e-03 -3.383000000000000156e-03 2.139999999999999975e-03 -2.261000000000000162e-02 2.272300000000000014e-02 -1.192200000000000031e-02 -2.696799999999999892e-02 -3.715799999999999659e-02 -1.660899999999999876e-02 2.295600000000000071e-02 -9.405999999999999431e-03 3.099999999999999891e-03 6.245900000000000063e-02 -7.425800000000000456e-02 7.250000000000000368e-03 1.681999999999999901e-03 -1.136000000000000031e-02 -1.408000000000000050e-02 2.063900000000000109e-02 3.993800000000000128e-02 -6.362500000000000100e-02 1.597099999999999909e-02 -5.424099999999999755e-02 -9.964999999999999900e-03 1.243200000000000034e-02 1.084000000000000068e-02 5.415999999999999807e-03 1.648399999999999865e-02 -1.130699999999999934e-02 -2.078100000000000086e-02 1.650199999999999931e-02 -8.727899999999999547e-02 -2.196899999999999895e-02 -3.123000000000000081e-02 -1.345299999999999968e-02 1.405200000000000025e-02 5.133800000000000169e-02 -3.177999999999999835e-03 -3.818699999999999872e-02 3.013000000000000053e-03 -9.818899999999999850e-02 6.773000000000000374e-03 -1.081999999999999976e-02 -5.216000000000000150e-03 -3.289999999999999956e-03 2.536400000000000113e-02 -2.586499999999999910e-02 2.766899999999999915e-02 -9.870000000000000301e-03 3.710399999999999809e-02 -7.893000000000000710e-03 -6.769999999999999759e-04 -1.406800000000000064e-02 6.651899999999999480e-02 1.497999999999999983e-03 -3.344400000000000150e-02 7.458900000000000252e-02 -1.863300000000000026e-02 6.788600000000000190e-02 -1.763000000000000027e-03 7.248799999999999688e-02 5.992299999999999710e-02 2.188299999999999967e-02 -4.277199999999999752e-02 4.432000000000000176e-03
-1.727499999999999869e-02 -2.603799999999999865e-02 5.674900000000000083e-02 -5.762999999999999894e-03 -5.042699999999999960e-02 -2.957299999999999859e-02 -2.593399999999999872e-02 4.929399999999999754e-02 1.925000000000000062e-03 4.389799999999999952e-02 -2.790300000000000072e-02 6.635599999999999832e-02 -3.500400000000000039e-02 -6.920000000000000153e-04 -1.571099999999999927e-02 4.856499999999999706e-02 2.690700000000000036e-02 -1.137699999999999996e-02 -2.220499999999999904e-02 -3.352999999999999731e-02 3.447000000000000064e-02 -1.212599999999999963e-02 2.812999999999999962e-03 -4.183699999999999919e-02 9.912000000000000671e-03 7.394999999999999664e-03 5.688000000000000000e-02 4.786599999999999883e-02 -6.029799999999999743e-02 6.901500000000000690e-02 3.167899999999999883e-02 2.941399999999999917e-02 -2.573200000000000140e-02 -8.859999999999999603e-04 -5.407000000000000348e-03 1.316400000000000035e-02 -5.139999999999999604e-03 -2.758000000000000035e-03 -7.144200000000000550e-02 2.313099999999999878e-02 1.361999999999999929e-03 6.196200000000000319e-02 -2.615999999999999836e-03 -4.311999999999999861e-02 -7.403200000000000058e-02 4.717999999999999972e-02 9.761000000000000579e-03 -1.088490000000000013e-01 2.645600000000000035e-02 1.041000000000000085e-02 1.045800000000000028e-02 9.231300000000000616e-02 6.074800000000000338e-02 3.237099999999999700e-02 -4.389300000000000146e-02 -1.056999999999999953e-02 -4.116800000000000320e-02 -2.622800000000000131e-02 -1.502099999999999963e-02 4.222800000000000165e-02 1.121899999999999981e-02 -7.742799999999999683e-02 -8.550999999999999573e-03 -5.173200000000000021e-02 3.659599999999999659e-02 3.808600000000000180e-02 -1.475199999999999949e-02 -1.029319999999999957e-01 3.474100000000000105e-02 -6.200000000000000270e-05 -1.834099999999999966e-02 8.276200000000000223e-02 -2.122200000000000128e-02 1.391799999999999982e-02 3.311999999999999666e-02 -6.960700000000000220e-02 -5.978999999999999940e-03 9.558999999999999789e-03 -6.970099999999999907e-02 -9.184499999999999609e-02 9.512600000000000222e-02 4.091999999999999804e-02 2.235200000000000034e-02 6.696999999999999828e-03 -2.143400000000000166e-02 -1.564899999999999972e-02 1.173990000000000034e-01 8.800999999999999795e-03 -5.718399999999999872e-02 4.916100000000000331e-02 -2.615000000000000137e-03 4.836000000000000021e-02 1.933599999999999902e-02 1.954600000000000087e-02 1.093500000000000028e-02 7.870000000000000259e-03 -4.501100000000000240e-02 1.343699999999999929e-02 -1.644400000000000028e-02 5.366000000000000110e-03 -4.682200000000000251e-02 3.592100000000000154e-02 -2.237600000000000006e-02 -5.451199999999999796e-02 -8.261699999999999600e-02 -3.169299999999999895e-02 4.389200000000000046e-02 -2.792400000000000090e-02 1.764399999999999996e-02 1.237930000000000003e-01 -1.472849999999999993e-01 2.518899999999999958e-02 2.667999999999999799e-03 -2.148999999999999869e-02 -1.729299999999999934e-02 4.008199999999999957e-02 8.017599999999999727e-02 -1.160650000000000015e-01 3.119099999999999998e-02 -1.069760000000000016e-01 -9.041999999999999690e-03 2.390000000000000110e-02 2.241200000000000137e-02 2.147100000000000050e-02 3.228600000000000220e-02 -2.154899999999999871e-02 -3.064700000000000063e-02 3.223299999999999776e-02 -1.724179999999999879e-01 -3.264199999999999741e-02 -6.267000000000000348e-02 -2.551000000000000142e-02 3.894500000000000045e-02 1.013330000000000064e-01 -5.322999999999999607e-03 -8.634600000000000608e-02 5.381999999999999632e-03 -1.950770000000000004e-01 2.916000000000000189e-03 -2.206800000000000081e-02 -1.130899999999999961e-02 -1.765999999999999862e-02 4.993800000000000322e-02 -5.247500000000000081e-02 4.417800000000000199e-02 -2.036200000000000163e-02 7.278800000000000547e-02 -2.644099999999999923e-02 -1.928000000000000026e-03 -2.871500000000000094e-02 1.215090000000000059e-01 3.073000000000000211e-03 -6.771499999999999742e-02 1.371529999999999971e-01 -3.785999999999999782e-02 1.342859999999999887e-01 -1.444499999999999951e-02 1.430839999999999890e-01 1.178150000000000031e-01 3.238100000000000006e-02 -8.550800000000000067e-02 8.014000000000000290e-03
-2.616299999999999876e-02 -3.895099999999999951e-02 8.879499999999999893e-02 -9.360999999999999530e-03 -7.627200000000000646e-02 -3.946299999999999808e-02 -3.917999999999999955e-02 7.281300000000000272e-02 6.888000000000000025e-03 6.466199999999999726e-02 -4.218299999999999828e-02 1.029790000000000011e-01 -5.267000000000000154e-02 -1.842000000000000104e-03 -1.865500000000000144e-02 7.174800000000000622e-02 3.925599999999999923e-02 -1.273499999999999979e-02 -3.359899999999999692e-02 -5.032400000000000068e-02 5.548499999999999960e-02 -1.865800000000000097e-02 3.543999999999999841e-03 -5.774499999999999772e-02 1.422999999999999959e-02 1.010199999999999987e-02 8.894199999999999329e-02 5.394499999999999990e-02 -8.786399999999999766e-02 1.076669999999999988e-01 3.001600000000000101e-02 4.512000000000000038e-02 -3.286000000000000032e-02 -1.846899999999999931e-02 -6.813999999999999745e-03 2.486400000000000068e-02 -2.530599999999999863e-02 -3.037000000000000203e-03 -1.013259999999999994e-01 1.758200000000000041e-02 3.098000000000000059e-03 9.742199999999999471e-02 -2.133900000000000033e-02 -6.339300000000000490e-02 -1.054599999999999982e-01 5.331500000000000128e-02 1.614300000000000110e-02 -1.574369999999999936e-01 2.214400000000000049e-02 1.667599999999999985e-02 2.101700000000000096e-02 1.193260000000000015e-01 9.118199999999999916e-02 5.253900000000000237e-02 -4.819899999999999879e-02 -1.439200000000000028e-02 -6.694200000000000150e-02 -2.159000000000000155e-02 -2.146800000000000097e-02 5.747000000000000025e-02 3.439600000000000296e-02 -1.138279999999999986e-01 -1.759200000000000000e-02 -6.009599999999999664e-02 5.576300000000000007e-02 5.130799999999999944e-02 -4.401999999999999663e-03 -1.524220000000000019e-01 4.682499999999999857e-02 1.757999999999999841e-02 -2.634299999999999836e-02 1.182700000000000001e-01 -1.417000000000000030e-02 2.182399999999999965e-02 4.360599999999999893e-02 -8.683000000000000440e-02 -7.820000000000000562e-03 8.547000000000000777e-03 -8.755899999999999794e-02 -1.365959999999999952e-01 1.377180000000000071e-01 6.144899999999999668e-02 3.241000000000000131e-02 5.183000000000000107e-03 -3.160899999999999821e-02 -2.465900000000000036e-02 1.714430000000000121e-01 1.367699999999999992e-02 -8.653399999999999981e-02 6.880300000000000304e-02 -3.467000000000000030e-03 7.158699999999999786e-02 2.415000000000000133e-02 2.971999999999999989e-02 1.554900000000000032e-02 6.908000000000000078e-03 -6.639899999999999969e-02 1.882800000000000099e-02 -2.905100000000000043e-02 8.741000000000000505e-03 -7.065799999999999859e-02 4.938300000000000328e-02 -3.247499999999999692e-02 -8.079600000000000670e-02 -1.266230000000000133e-01 -4.581400000000000056e-02 6.420299999999999618e-02 -4.590299999999999936e-02 3.233599999999999669e-02 1.844480000000000008e-01 -2.193849999999999967e-01 4.267399999999999666e-02 3.703999999999999827e-03 -3.124100000000000141e-02 -2.047699999999999868e-02 5.864199999999999968e-02 1.194869999999999960e-01 -1.680129999999999957e-01 4.596700000000000091e-02 -1.587780000000000025e-01 -8.181000000000000771e-03 3.524599999999999955e-02 3.357999999999999874e-02 3.740199999999999775e-02 4.800999999999999712e-02 -3.149400000000000116e-02 -4.049400000000000222e-02 4.769199999999999828e-02 -2.557249999999999801e-01 -4.298699999999999743e-02 -9.378999999999999837e-02 -3.687100000000000100e-02 6.336600000000000565e-02 1.506250000000000089e-01 -7.394000000000000399e-03 -1.334239999999999871e-01 7.505999999999999651e-03 -2.892250000000000099e-01 -9.899999999999999946e-04 -3.320200000000000234e-02 -1.721599999999999867e-02 -3.223199999999999676e-02 7.412399999999999545e-02 -7.883600000000000330e-02 6.023599999999999788e-02 -3.051699999999999899e-02 1.078749999999999987e-01 -4.458399999999999863e-02 -3.295000000000000186e-03 -4.301800000000000068e-02 1.760029999999999928e-01 4.956000000000000336e-03 -1.015179999999999971e-01 1.986819999999999975e-01 -5.683300000000000157e-02 1.995220000000000049e-01 -2.694500000000000020e-02 2.121629999999999905e-01 1.740240000000000120e-01 4.279600000000000071e-02 -1.276279999999999915e-01 1.153000000000000032e-02
-3.469499999999999668e-02 -5.113600000000000090e-02 1.197040000000000048e-01 -1.306399999999999922e-02 -1.016299999999999981e-01 -4.927399999999999836e-02 -5.249600000000000100e-02 9.600999999999999812e-02 1.106200000000000065e-02 8.491799999999999349e-02 -5.583199999999999968e-02 1.384579999999999977e-01 -7.012999999999999790e-02 -2.890000000000000208e-03 -2.159399999999999861e-02 9.441599999999999993e-02 5.127299999999999913e-02 -1.464099999999999950e-02 -4.498599999999999821e-02 -6.640699999999999381e-02 7.559699999999999753e-02 -2.498200000000000073e-02 4.237000000000000315e-03 -7.341100000000000403e-02 1.861399999999999860e-02 1.298500000000000001e-02 1.198810000000000014e-01 5.978200000000000180e-02 -1.142880000000000007e-01 1.450130000000000030e-01 2.834899999999999920e-02 6.073300000000000226e-02 -3.985199999999999854e-02 -3.564799999999999913e-02 -8.125999999999999543e-03 3.606499999999999984e-02 -4.543699999999999822e-02 -3.314999999999999804e-03 -1.307510000000000061e-01 1.237500000000000058e-02 4.584999999999999666e-03 1.318360000000000087e-01 -3.963599999999999762e-02 -8.330999999999999517e-02 -1.365770000000000040e-01 5.927000000000000324e-02 2.257500000000000132e-02 -2.053840000000000110e-01 1.789900000000000171e-02 2.291400000000000034e-02 3.114799999999999860e-02 1.449830000000000008e-01 1.206779999999999936e-01 7.144599999999999562e-02 -5.228399999999999714e-02 -1.819099999999999884e-02 -9.235200000000000353e-02 -1.661800000000000083e-02 -2.778399999999999967e-02 7.250099999999999600e-02 5.723000000000000309e-02 -1.491590000000000138e-01 -2.617900000000000088e-02 -6.837200000000000222e-02 7.474699999999999400e-02 6.433899999999999342e-02 6.000000000000000125e-03 -2.011390000000000122e-01 5.906700000000000145e-02 3.530799999999999911e-02 -3.424499999999999766e-02 1.531480000000000063e-01 -7.190000000000000210e-03 2.947500000000000120e-02 5.356600000000000250e-02 -1.038720000000000060e-01 -9.912999999999999937e-03 7.420000000000000380e-03 -1.055230000000000057e-01 -1.806639999999999913e-01 1.802330000000000043e-01 8.170399999999999885e-02 4.218399999999999928e-02 3.501999999999999905e-03 -4.170000000000000095e-02 -3.373199999999999810e-02 2.251610000000000000e-01 1.825399999999999939e-02 -1.157119999999999954e-01 8.809899999999999676e-02 -4.514999999999999916e-03 9.480299999999999838e-02 2.902100000000000166e-02 3.979800000000000004e-02 1.998499999999999929e-02 6.007000000000000187e-03 -8.712999999999999912e-02 2.383599999999999955e-02 -4.125999999999999807e-02 1.226099999999999933e-02 -9.418500000000000483e-02 6.312500000000000056e-02 -4.199800000000000061e-02 -1.056460000000000038e-01 -1.688749999999999973e-01 -5.896900000000000058e-02 8.386100000000000498e-02 -6.321499999999999342e-02 4.707900000000000279e-02 2.439010000000000067e-01 -2.897739999999999760e-01 5.952799999999999758e-02 4.691999999999999990e-03 -4.046899999999999803e-02 -2.364000000000000129e-02 7.620599999999999596e-02 1.575340000000000074e-01 -2.190630000000000077e-01 6.025900000000000006e-02 -2.090720000000000078e-01 -7.339000000000000037e-03 4.623700000000000032e-02 4.429799999999999710e-02 5.300400000000000250e-02 6.351700000000000401e-02 -4.099900000000000072e-02 -5.020600000000000063e-02 6.282300000000000384e-02 -3.363169999999999771e-01 -5.292600000000000082e-02 -1.243159999999999960e-01 -4.740199999999999969e-02 8.719499999999999473e-02 1.987180000000000057e-01 -9.308000000000000301e-03 -1.789769999999999972e-01 9.424000000000000085e-03 -3.797780000000000045e-01 -4.786000000000000323e-03 -4.408000000000000113e-02 -2.289199999999999915e-02 -4.679900000000000032e-02 9.776100000000000068e-02 -1.046590000000000020e-01 7.580599999999999838e-02 -4.031200000000000061e-02 1.420099999999999973e-01 -6.224400000000000072e-02 -4.767000000000000404e-03 -5.681900000000000145e-02 2.294760000000000133e-01 7.206999999999999865e-03 -1.345320000000000127e-01 2.585180000000000256e-01 -7.546700000000000630e-02 2.629600000000000271e-01 -3.914600000000000024e-02 2.791150000000000020e-01 2.280260000000000065e-01 5.294200000000000295e-02 -1.687059999999999949e-01 1.496100000000000034e-02
-4.295600000000000113e-02 -6.225399999999999684e-02 1.492159999999999875e-01 -1.695999999999999938e-02 -1.265759999999999941e-01 -5.886299999999999866e-02 -6.566600000000000215e-02 1.188089999999999979e-01 1.429300000000000015e-02 1.044770000000000004e-01 -6.901000000000000190e-02 1.726129999999999887e-01 -8.704900000000000138e-02 -3.733000000000000207e-03 -2.445200000000000151e-02 1.162819999999999965e-01 6.310799999999999743e-02 -1.719000000000000042e-02 -5.609399999999999803e-02 -8.166400000000000048e-02 9.463100000000000678e-02 -3.119399999999999951e-02 5.111000000000000092e-03 -8.867700000000000582e-02 2.301299999999999873e-02 1.587500000000000022e-02 1.494570000000000065e-01 6.511000000000000121e-02 -1.395430000000000004e-01 1.808240000000000125e-01 2.681599999999999956e-02 7.608099999999999585e-02 -4.663199999999999984e-02 -5.230400000000000327e-02 -9.154000000000000678e-03 4.667999999999999927e-02 -6.522699999999999332e-02 -3.683000000000000076e-03 -1.594629999999999936e-01 7.588000000000000127e-03 5.976999999999999674e-03 1.650040000000000118e-01 -5.741299999999999876e-02 -1.027529999999999971e-01 -1.671640000000000070e-01 6.494500000000000273e-02 2.916799999999999948e-02 -2.522639999999999882e-01 1.360800000000000030e-02 2.907099999999999962e-02 4.075399999999999856e-02 1.692970000000000030e-01 1.489729999999999943e-01 8.902100000000000291e-02 -5.628899999999999876e-02 -2.178400000000000128e-02 -1.173170000000000046e-01 -1.131700000000000067e-02 -3.415100000000000080e-02 8.721600000000000186e-02 7.980199999999999794e-02 -1.832129999999999870e-01 -3.441799999999999721e-02 -7.665399999999999991e-02 9.317899999999999794e-02 7.710100000000000287e-02 1.670100000000000057e-02 -2.488509999999999889e-01 7.129900000000000126e-02 5.286099999999999827e-02 -4.171199999999999908e-02 1.869719999999999993e-01 -3.800000000000000209e-05 3.679999999999999938e-02 6.283700000000000396e-02 -1.208729999999999943e-01 -1.209299999999999958e-02 6.112000000000000245e-03 -1.235870000000000024e-01 -2.239160000000000039e-01 2.222590000000000121e-01 1.014309999999999934e-01 5.148699999999999805e-02 1.531000000000000026e-03 -5.150199999999999917e-02 -4.290100000000000163e-02 2.781290000000000151e-01 2.231999999999999956e-02 -1.444320000000000048e-01 1.068709999999999938e-01 -5.668000000000000295e-03 1.178710000000000035e-01 3.398500000000000132e-02 4.976599999999999774e-02 2.437900000000000136e-02 5.231999999999999672e-03 -1.072329999999999950e-01 2.831200000000000036e-02 -5.302099999999999869e-02 1.598499999999999921e-02 -1.171370000000000050e-01 7.713599999999999624e-02 -5.100400000000000073e-02 -1.290050000000000086e-01 -2.092310000000000003e-01 -7.089299999999999768e-02 1.026409999999999961e-01 -7.982100000000000306e-02 6.172099999999999809e-02 3.016490000000000005e-01 -3.577159999999999784e-01 7.561800000000000466e-02 5.684999999999999949e-03 -4.907700000000000257e-02 -2.675200000000000147e-02 9.267499999999999349e-02 1.940199999999999980e-01 -2.687820000000000209e-01 7.390099999999999447e-02 -2.573550000000000004e-01 -6.500999999999999834e-03 5.686599999999999988e-02 5.451799999999999702e-02 6.818299999999999361e-02 7.870000000000000606e-02 -4.990900000000000197e-02 -5.972600000000000131e-02 7.746999999999999720e-02 -4.134200000000000097e-01 -6.239499999999999907e-02 -1.540030000000000010e-01 -5.695499999999999868e-02 1.102039999999999964e-01 2.452650000000000108e-01 -1.102599999999999934e-02 -2.227119999999999933e-01 1.108400000000000010e-02 -4.660190000000000166e-01 -8.524000000000000327e-03 -5.455200000000000327e-02 -2.823300000000000115e-02 -6.127300000000000108e-02 1.206129999999999980e-01 -1.297059999999999880e-01 9.079199999999999771e-02 -4.966999999999999887e-02 1.749310000000000032e-01 -7.935000000000000386e-02 -6.334000000000000220e-03 -7.002899999999999403e-02 2.815469999999999917e-01 9.740999999999999659e-03 -1.664360000000000006e-01 3.162099999999999911e-01 -9.361200000000000077e-02 3.239909999999999735e-01 -5.086399999999999949e-02 3.435259999999999980e-01 2.793260000000000187e-01 6.282100000000000184e-02 -2.084179999999999922e-01 1.827700000000000158e-02
-5.072600000000000026e-02 -7.230300000000000615e-02 1.771610000000000129e-01 -2.103999999999999967e-02 -1.507960000000000134e-01 -6.815300000000000524e-02 -7.889899999999999691e-02 1.410349999999999937e-01 1.647600000000000106e-02 1.232739999999999947e-01 -8.145299999999999763e-02 2.053260000000000085e-01 -1.035080000000000028e-01 -4.405000000000000061e-03 -2.718599999999999836e-02 1.373790000000000011e-01 7.460500000000000465e-02 -2.050099999999999839e-02 -6.707399999999999474e-02 -9.610399999999999499e-02 1.124219999999999942e-01 -3.708899999999999697e-02 6.035000000000000434e-03 -1.034360000000000002e-01 2.749800000000000161e-02 1.901900000000000118e-02 1.774709999999999899e-01 7.003600000000000103e-02 -1.634990000000000054e-01 2.149310000000000109e-01 2.533200000000000035e-02 9.123900000000000066e-02 -5.314900000000000180e-02 -6.837300000000000322e-02 -9.997999999999999943e-03 5.665300000000000197e-02 -8.468499999999999639e-02 -4.028000000000000330e-03 -1.871750000000000080e-01 3.265999999999999806e-03 7.054000000000000374e-03 1.967919999999999947e-01 -7.430200000000000693e-02 -1.214879999999999988e-01 -1.969640000000000002e-01 7.016799999999999427e-02 3.568899999999999850e-02 -2.976889999999999814e-01 9.410999999999999227e-03 3.522100000000000231e-02 4.972700000000000037e-02 1.920870000000000077e-01 1.760089999999999988e-01 1.052379999999999982e-01 -6.003200000000000203e-02 -2.532399999999999929e-02 -1.418139999999999956e-01 -5.588000000000000085e-03 -4.033599999999999686e-02 1.015660000000000035e-01 1.017529999999999962e-01 -2.158750000000000113e-01 -4.243899999999999756e-02 -8.493100000000000649e-02 1.111580000000000068e-01 8.952100000000000335e-02 2.755000000000000157e-02 -2.954860000000000264e-01 8.341099999999999903e-02 7.028600000000000125e-02 -4.871600000000000236e-02 2.193680000000000074e-01 7.093000000000000346e-03 4.363600000000000118e-02 7.127799999999999414e-02 -1.376719999999999888e-01 -1.454000000000000084e-02 4.615000000000000178e-03 -1.415869999999999906e-01 -2.658030000000000115e-01 2.633289999999999798e-01 1.207420000000000021e-01 6.026600000000000013e-02 -8.469999999999999881e-04 -6.105300000000000310e-02 -5.196699999999999930e-02 3.299420000000000130e-01 2.561599999999999988e-02 -1.727090000000000014e-01 1.248790000000000039e-01 -7.127999999999999788e-03 1.408999999999999975e-01 3.905900000000000344e-02 5.960499999999999826e-02 2.850000000000000103e-02 4.577000000000000339e-03 -1.264659999999999951e-01 3.225000000000000089e-02 -6.431099999999999317e-02 1.990499999999999908e-02 -1.396020000000000039e-01 9.144299999999999651e-02 -5.932899999999999979e-02 -1.507370000000000099e-01 -2.475779999999999925e-01 -8.157899999999999874e-02 1.205279999999999963e-01 -9.570399999999999741e-02 7.609499999999999598e-02 3.573009999999999797e-01 -4.224820000000000242e-01 9.083900000000000308e-02 6.651999999999999927e-03 -5.694500000000000256e-02 -2.978700000000000098e-02 1.079579999999999984e-01 2.286370000000000069e-01 -3.168190000000000173e-01 8.680699999999999528e-02 -3.031369999999999898e-01 -5.616999999999999597e-03 6.705999999999999461e-02 6.415600000000000469e-02 8.287500000000000422e-02 9.347800000000000553e-02 -5.810200000000000087e-02 -6.893199999999999328e-02 9.155399999999999650e-02 -4.862870000000000248e-01 -7.138700000000000601e-02 -1.826629999999999920e-01 -6.543200000000000405e-02 1.322230000000000072e-01 2.899539999999999895e-01 -1.249600000000000016e-02 -2.643190000000000262e-01 1.247400000000000071e-02 -5.472939999999999472e-01 -1.218100000000000085e-02 -6.452099999999999502e-02 -3.316299999999999804e-02 -7.551399999999999779e-02 1.425470000000000070e-01 -1.537169999999999925e-01 1.051190000000000041e-01 -5.848400000000000126e-02 2.063409999999999966e-01 -9.581000000000000627e-02 -8.012000000000000025e-03 -8.250200000000000589e-02 3.318470000000000031e-01 1.249399999999999990e-02 -1.968969999999999887e-01 3.713210000000000122e-01 -1.111290000000000056e-01 3.820399999999999907e-01 -6.201700000000000268e-02 4.049730000000000274e-01 3.274679999999999813e-01 7.240900000000000114e-02 -2.465019999999999989e-01 2.145899999999999891e-02