0.000000000000000000e+00 2.032270000000000021e+00 9.547679999999999723e+00 -1.760000000000000009e+00 5.080680000000000085e+00 9.547679999999999723e+00 -3.520000000000000018e+00 8.129089999999999705e+00 9.547679999999999723e+00 3.520000000000000018e+00 2.032270000000000021e+00 9.547679999999999723e+00 1.760000000000000009e+00 5.080680000000000085e+00 9.547679999999999723e+00 0.000000000000000000e+00 8.129089999999999705e+00 9.547679999999999723e+00 7.040000000000000036e+00 2.032270000000000021e+00 9.547679999999999723e+00 5.280000000000000249e+00 5.080680000000000085e+00 9.547679999999999723e+00 3.520000000000000018e+00 8.129089999999999705e+00 9.547679999999999723e+00 1.407999999999999918e+00 2.032270000000000021e+00 1.683167999999999864e+01 -3.519999999999999796e-01 5.080680000000000085e+00 1.683167999999999864e+01 -2.112000000000000099e+00 8.129089999999999705e+00 1.683167999999999864e+01 4.927999999999999936e+00 2.032270000000000021e+00 1.683167999999999864e+01 3.168000000000000149e+00 5.080680000000000085e+00 1.683167999999999864e+01 1.407999999999999918e+00 8.129089999999999705e+00 1.683167999999999864e+01 8.448000000000000398e+00 2.032270000000000021e+00 1.683167999999999864e+01 6.687999999999999723e+00 5.080680000000000085e+00 1.683167999999999864e+01 4.927999999999999936e+00 8.129089999999999705e+00 1.683167999999999864e+01 0.000000000000000000e+00 2.032270000000000021e+00 1.316831999999999958e+01 -1.760000000000000009e+00 5.080680000000000085e+00 1.316831999999999958e+01 -3.520000000000000018e+00 8.129089999999999705e+00 1.316831999999999958e+01 3.520000000000000018e+00 2.032270000000000021e+00 1.316831999999999958e+01 1.760000000000000009e+00 5.080680000000000085e+00 1.316831999999999958e+01 0.000000000000000000e+00 8.129089999999999705e+00 1.316831999999999958e+01 7.040000000000000036e+00 2.032270000000000021e+00 1.316831999999999958e+01 5.280000000000000249e+00 5.080680000000000085e+00 1.316831999999999958e+01 3.520000000000000018e+00 8.129089999999999705e+00 1.316831999999999958e+01 1.407999999999999918e+00 2.032270000000000021e+00 2.045232000000000028e+01 -3.519999999999999796e-01 5.080680000000000085e+00 2.045232000000000028e+01 -2.112000000000000099e+00 8.129089999999999705e+00 2.045232000000000028e+01 4.927999999999999936e+00 2.032270000000000021e+00 2.045232000000000028e+01 3.168000000000000149e+00 5.080680000000000085e+00 2.045232000000000028e+01 1.407999999999999918e+00 8.129089999999999705e+00 2.045232000000000028e+01 8.448000000000000398e+00 2.032270000000000021e+00 2.045232000000000028e+01 6.687999999999999723e+00 5.080680000000000085e+00 2.045232000000000028e+01 4.927999999999999936e+00 8.129089999999999705e+00 2.045232000000000028e+01 0.000000000000000000e+00 0.000000000000000000e+00 1.135848999999999975e+01 -1.760000000000000009e+00 3.048410000000000064e+00 1.135848999999999975e+01 -3.520000000000000018e+00 6.096820000000000128e+00 1.135848999999999975e+01 3.520000000000000018e+00 0.000000000000000000e+00 1.135848999999999975e+01 1.760000000000000009e+00 3.048410000000000064e+00 1.135848999999999975e+01 0.000000000000000000e+00 6.096820000000000128e+00 1.135848999999999975e+01 7.040000000000000036e+00 0.000000000000000000e+00 1.135848999999999975e+01 5.280000000000000249e+00 3.048410000000000064e+00 1.135848999999999975e+01 3.520000000000000018e+00 6.096820000000000128e+00 1.135848999999999975e+01 1.407999999999999918e+00 0.000000000000000000e+00 1.864154999999999873e+01 -3.519999999999999796e-01 3.048410000000000064e+00 1.864154999999999873e+01 -2.112000000000000099e+00 6.096820000000000128e+00 1.864154999999999873e+01 4.927999999999999936e+00 0.000000000000000000e+00 1.864154999999999873e+01 3.168000000000000149e+00 3.048410000000000064e+00 1.864154999999999873e+01 1.407999999999999918e+00 6.096820000000000128e+00 1.864154999999999873e+01 8.448000000000000398e+00 0.000000000000000000e+00 1.864154999999999873e+01 6.687999999999999723e+00 3.048410000000000064e+00 1.864154999999999873e+01 4.927999999999999936e+00 6.096820000000000128e+00 1.864154999999999873e+01
6.000000000000000152e-05 2.033830000000000027e+00 9.546839999999999549e+00 -1.758960000000000079e+00 5.081520000000000259e+00 9.547929999999999140e+00 -3.520980000000000221e+00 8.129200000000000870e+00 9.548529999999999518e+00 3.519820000000000171e+00 2.030569999999999986e+00 9.547599999999999199e+00 1.757630000000000026e+00 5.082770000000000010e+00 9.548009999999999664e+00 -4.499999999999999877e-04 8.128840000000000288e+00 9.546459999999999724e+00 7.040219999999999700e+00 2.034609999999999808e+00 9.545920000000000627e+00 5.277269999999999683e+00 5.081940000000000346e+00 9.546599999999999753e+00 3.521900000000000031e+00 8.130160000000000053e+00 9.548970000000000624e+00 1.408700000000000063e+00 2.034040000000000070e+00 1.683248999999999995e+01 -3.505900000000000127e-01 5.078909999999999592e+00 1.683264000000000138e+01 -2.111180000000000057e+00 8.127679999999999794e+00 1.683123000000000147e+01 4.928689999999999571e+00 2.032950000000000035e+00 1.683135000000000048e+01 3.164960000000000218e+00 5.081789999999999807e+00 1.683373999999999882e+01 1.409089999999999954e+00 8.129799999999999471e+00 1.683161000000000129e+01 8.445980000000000487e+00 2.032960000000000100e+00 1.682903999999999911e+01 6.688649999999999984e+00 5.079930000000000057e+00 1.683128999999999920e+01 4.928869999999999862e+00 8.130850000000000577e+00 1.683095000000000141e+01 -1.800000000000000113e-04 2.031750000000000167e+00 1.317059000000000069e+01 -1.759970000000000034e+00 5.082499999999999574e+00 1.316539000000000037e+01 -3.519280000000000186e+00 8.125619999999999621e+00 1.316801000000000066e+01 3.520220000000000127e+00 2.033129999999999882e+00 1.317093000000000025e+01 1.759929999999999994e+00 5.079720000000000013e+00 1.316957999999999984e+01 -8.899999999999999491e-04 8.129120000000000346e+00 1.317057999999999929e+01 7.040420000000000122e+00 2.031120000000000037e+00 1.316928000000000054e+01 5.280809999999999782e+00 5.081129999999999924e+00 1.316948999999999970e+01 3.515629999999999811e+00 8.128880000000000550e+00 1.316763000000000083e+01 1.407750000000000057e+00 2.030419999999999892e+00 2.045386999999999844e+01 -3.526799999999999935e-01 5.080470000000000041e+00 2.045408000000000115e+01 -2.111340000000000217e+00 8.131460000000000576e+00 2.045313000000000159e+01 4.924710000000000143e+00 2.029959999999999987e+00 2.045091000000000037e+01 3.169570000000000221e+00 5.082830000000000403e+00 2.045313000000000159e+01 1.410009999999999986e+00 8.129490000000000549e+00 2.045429000000000030e+01 8.447010000000000574e+00 2.031039999999999957e+00 2.045062000000000069e+01 6.687319999999999709e+00 5.078730000000000189e+00 2.045221000000000089e+01 4.923309999999999853e+00 8.126889999999999503e+00 2.045205999999999946e+01 1.055889999999999951e+01 9.000000000000000567e-05 1.135688999999999993e+01 -1.757919999999999927e+00 3.051480000000000192e+00 1.135640000000000072e+01 7.041179999999999772e+00 6.092500000000000249e+00 1.135655999999999999e+01 -1.760890000000000066e+00 9.144199999999999662e+00 1.135511999999999944e+01 1.761079999999999979e+00 3.050749999999999851e+00 1.135754000000000019e+01 -5.999999999999999474e-04 6.096350000000000158e+00 1.135768000000000022e+01 7.041129999999999889e+00 1.299999999999999940e-03 1.135656999999999961e+01 5.278170000000000250e+00 3.046129999999999782e+00 1.136031000000000013e+01 3.520329999999999959e+00 6.094479999999999897e+00 1.136029000000000089e+01 -3.871039999999999814e+00 9.141890000000000072e+00 1.864391000000000176e+01 -3.514700000000000046e-01 3.048610000000000042e+00 1.864178000000000068e+01 -2.111930000000000085e+00 6.097710000000000186e+00 1.864048000000000016e+01 4.931300000000000239e+00 1.949999999999999910e-03 1.864260000000000161e+01 3.169280000000000097e+00 3.046940000000000204e+00 1.864132000000000033e+01 1.407030000000000003e+00 6.094289999999999985e+00 1.864517999999999986e+01 8.451230000000000686e+00 3.310000000000000008e-03 1.863914000000000115e+01 6.692899999999999849e+00 3.049809999999999910e+00 1.864012999999999920e+01 4.929170000000000051e+00 6.097360000000000113e+00 1.863926999999999978e+01
1.299999999999999886e-04 2.035390000000000033e+00 9.546010000000000773e+00 -1.757919999999999927e+00 5.082349999999999923e+00 9.548159999999999314e+00 -3.521949999999999914e+00 8.129300000000000637e+00 9.549379999999999313e+00 3.519639999999999880e+00 2.028880000000000017e+00 9.547520000000000451e+00 1.755270000000000108e+00 5.084850000000000314e+00 9.548339999999999606e+00 -8.899999999999999491e-04 8.128579999999999472e+00 9.545239999999999725e+00 7.040440000000000254e+00 2.036939999999999973e+00 9.544169999999999376e+00 5.274549999999999628e+00 5.083179999999999588e+00 9.545519999999999783e+00 3.523800000000000043e+00 8.131220000000000780e+00 9.550259999999999749e+00 1.409419999999999895e+00 2.035789999999999988e+00 1.683331000000000088e+01 -3.491699999999999804e-01 5.077139999999999986e+00 1.683361000000000018e+01 -2.110339999999999883e+00 8.126269999999999882e+00 1.683078000000000074e+01 4.929400000000000226e+00 2.033619999999999983e+00 1.683102999999999838e+01 3.161950000000000038e+00 5.082900000000000418e+00 1.683579999999999899e+01 1.410190000000000055e+00 8.130489999999999995e+00 1.683154000000000039e+01 8.444000000000000838e+00 2.033659999999999801e+00 1.682639999999999958e+01 6.689320000000000377e+00 5.079189999999999650e+00 1.683089999999999975e+01 4.929759999999999920e+00 8.132600000000000051e+00 1.683022000000000062e+01 -3.600000000000000227e-04 2.031219999999999803e+00 1.317284000000000077e+01 -1.759940000000000060e+00 5.084310000000000329e+00 1.316247000000000078e+01 -3.518569999999999975e+00 8.122149999999999537e+00 1.316769000000000034e+01 3.520410000000000039e+00 2.033990000000000187e+00 1.317352999999999952e+01 1.759840000000000071e+00 5.078750000000000320e+00 1.317084000000000010e+01 -1.799999999999999951e-03 8.129139999999999588e+00 1.317282999999999937e+01 7.040840000000000209e+00 2.029970000000000052e+00 1.317023000000000010e+01 5.281600000000000072e+00 5.081559999999999633e+00 1.317065999999999981e+01 3.511249999999999982e+00 8.128659999999999997e+00 1.316693000000000069e+01 1.407489999999999908e+00 2.028570000000000206e+00 2.045541000000000054e+01 -3.533600000000000074e-01 5.080250000000000377e+00 2.045582999999999885e+01 -2.110679999999999890e+00 8.133820000000000050e+00 2.045393999999999934e+01 4.921439999999999593e+00 2.027660000000000018e+00 2.044950000000000045e+01 3.171149999999999913e+00 5.084970000000000212e+00 2.045392000000000010e+01 1.412020000000000053e+00 8.129899999999999238e+00 2.045624000000000109e+01 8.446030000000000371e+00 2.029819999999999958e+00 2.044891000000000147e+01 6.686650000000000205e+00 5.076789999999999914e+00 2.045210000000000150e+01 4.918630000000000280e+00 8.124679999999999680e+00 2.045178999999999903e+01 1.055780000000000030e+01 1.800000000000000113e-04 1.135532000000000075e+01 -1.755859999999999976e+00 3.054530000000000189e+00 1.135431999999999952e+01 7.042349999999999888e+00 6.088199999999999612e+00 1.135463000000000022e+01 -1.761770000000000058e+00 9.143179999999999197e+00 1.135178999999999938e+01 1.762140000000000040e+00 3.053069999999999951e+00 1.135660000000000025e+01 -1.190000000000000085e-03 6.095889999999999809e+00 1.135687000000000069e+01 7.042229999999999990e+00 2.599999999999999881e-03 1.135466000000000086e+01 5.276349999999999874e+00 3.043870000000000076e+00 1.136212000000000089e+01 3.520649999999999835e+00 6.092170000000000307e+00 1.136206999999999923e+01 -3.870080000000000187e+00 9.138560000000000016e+00 1.864624999999999844e+01 -3.509499999999999842e-01 3.048799999999999955e+00 1.864200999999999908e+01 -2.111839999999999939e+00 6.098600000000000243e+00 1.863941000000000159e+01 4.934599999999999653e+00 3.889999999999999795e-03 1.864363000000000170e+01 3.170560000000000045e+00 3.045490000000000030e+00 1.864108999999999838e+01 1.406069999999999931e+00 6.091789999999999594e+00 1.864880000000000138e+01 8.454439999999999955e+00 6.610000000000000424e-03 1.863673000000000002e+01 6.697779999999999845e+00 3.051200000000000134e+00 1.863870999999999967e+01 4.930349999999999788e+00 6.097900000000000098e+00 1.863700000000000045e+01
2.100000000000000087e-04 2.036939999999999973e+00 9.545170000000000599e+00 -1.756879999999999997e+00 5.083179999999999588e+00 9.548370000000000246e+00 -3.522930000000000117e+00 8.129400000000000404e+00 9.550209999999999866e+00 3.519449999999999967e+00 2.027200000000000113e+00 9.547439999999999927e+00 1.752930000000000099e+00 5.086929999999999730e+00 9.548659999999999926e+00 -1.319999999999999993e-03 8.128330000000000055e+00 9.544019999999999726e+00 7.040659999999999918e+00 2.039270000000000138e+00 9.542429999999999524e+00 5.271840000000000082e+00 5.084399999999999586e+00 9.544460000000000832e+00 3.525689999999999991e+00 8.132270000000000110e+00 9.551539999999999253e+00 1.410150000000000015e+00 2.037520000000000220e+00 1.683414000000000144e+01 -3.477399999999999936e-01 5.075380000000000003e+00 1.683456999999999937e+01 -2.109480000000000022e+00 8.124879999999999214e+00 1.683034999999999926e+01 4.930130000000000123e+00 2.034299999999999997e+00 1.683070999999999984e+01 3.158959999999999990e+00 5.083999999999999631e+00 1.683785999999999916e+01 1.411310000000000064e+00 8.131180000000000518e+00 1.683149999999999835e+01 8.442050000000000054e+00 2.034359999999999946e+00 1.682376000000000005e+01 6.690000000000000391e+00 5.078450000000000131e+00 1.683050000000000068e+01 4.930659999999999599e+00 8.134339999999999904e+00 1.682948000000000022e+01 -5.599999999999999509e-04 2.030699999999999950e+00 1.317506999999999984e+01 -1.759929999999999994e+00 5.086100000000000065e+00 1.315957000000000043e+01 -3.517889999999999961e+00 8.118679999999999453e+00 1.316735000000000078e+01 3.520579999999999821e+00 2.034819999999999851e+00 1.317609999999999992e+01 1.759740000000000082e+00 5.077790000000000248e+00 1.317209000000000074e+01 -2.710000000000000169e-03 8.129170000000000229e+00 1.317503999999999920e+01 7.041240000000000165e+00 2.028830000000000133e+00 1.317116000000000042e+01 5.282379999999999853e+00 5.081979999999999720e+00 1.317182000000000031e+01 3.506870000000000154e+00 8.128439999999999444e+00 1.316623000000000054e+01 1.407240000000000046e+00 2.026720000000000077e+00 2.045693999999999946e+01 -3.540599999999999858e-01 5.080029999999999824e+00 2.045758000000000010e+01 -2.110009999999999941e+00 8.136160000000000281e+00 2.045474000000000103e+01 4.918199999999999683e+00 2.025389999999999802e+00 2.044809000000000054e+01 3.172719999999999985e+00 5.087089999999999890e+00 2.045470999999999862e+01 1.414029999999999898e+00 8.130300000000000082e+00 2.045816999999999908e+01 8.445059999999999789e+00 2.028599999999999959e+00 2.044722000000000151e+01 6.685979999999999812e+00 5.074860000000000149e+00 2.045197999999999894e+01 4.913979999999999571e+00 8.122490000000000876e+00 2.045153000000000176e+01 1.055671000000000070e+01 2.799999999999999755e-04 1.135380999999999929e+01 -1.753819999999999935e+00 3.057549999999999990e+00 1.135228000000000037e+01 7.043479999999999741e+00 6.083940000000000126e+00 1.135271999999999970e+01 -1.762659999999999894e+00 9.142170000000000130e+00 1.134853000000000023e+01 1.763190000000000035e+00 3.055349999999999788e+00 1.135568999999999917e+01 -1.779999999999999898e-03 6.095449999999999591e+00 1.135609999999999964e+01 7.043300000000000338e+00 3.889999999999999795e-03 1.135275999999999996e+01 5.274540000000000006e+00 3.041630000000000056e+00 1.136391000000000062e+01 3.520950000000000024e+00 6.089879999999999960e+00 1.136384999999999934e+01 -3.869130000000000180e+00 9.135270000000000223e+00 1.864855999999999980e+01 -3.504300000000000193e-01 3.048979999999999801e+00 1.864224000000000103e+01 -2.111740000000000173e+00 6.099479999999999791e+00 1.863838000000000150e+01 4.937859999999999694e+00 5.780000000000000415e-03 1.864463999999999899e+01 3.171829999999999927e+00 3.044059999999999988e+00 1.864086999999999961e+01 1.405110000000000081e+00 6.089330000000000354e+00 1.865239000000000047e+01 8.457629999999999981e+00 9.870000000000000301e-03 1.863434000000000168e+01 6.702589999999999826e+00 3.052560000000000162e+00 1.863730999999999938e+01 4.931510000000000282e+00 6.098429999999999573e+00 1.863475000000000037e+01
2.900000000000000017e-04 2.038499999999999979e+00 9.544340000000000046e+00 -1.755840000000000067e+00 5.084010000000000140e+00 9.548539999999999139e+00 -3.523909999999999876e+00 8.129469999999999530e+00 9.551030000000000797e+00 3.519270000000000120e+00 2.025539999999999896e+00 9.547349999999999781e+00 1.750609999999999999e+00 5.089010000000000034e+00 9.548970000000000624e+00 -1.750000000000000036e-03 8.128080000000000638e+00 9.542799999999999727e+00 7.040869999999999962e+00 2.041609999999999925e+00 9.540710000000000690e+00 5.269129999999999647e+00 5.085589999999999833e+00 9.543409999999999727e+00 3.527559999999999807e+00 8.133300000000000196e+00 9.552809999999999135e+00 1.410900000000000043e+00 2.039219999999999811e+00 1.683498000000000161e+01 -3.463100000000000067e-01 5.073629999999999640e+00 1.683552999999999855e+01 -2.108600000000000030e+00 8.123499999999999943e+00 1.682993000000000094e+01 4.930880000000000152e+00 2.034969999999999946e+00 1.683039000000000129e+01 3.156010000000000204e+00 5.085079999999999600e+00 1.683990999999999971e+01 1.412439999999999918e+00 8.131840000000000401e+00 1.683147999999999911e+01 8.440160000000000551e+00 2.035070000000000157e+00 1.682112000000000052e+01 6.690710000000000157e+00 5.077729999999999855e+00 1.683008999999999844e+01 4.931600000000000428e+00 8.136079999999999757e+00 1.682873999999999981e+01 -7.699999999999999597e-04 2.030190000000000161e+00 1.317725000000000080e+01 -1.759929999999999994e+00 5.087880000000000180e+00 1.315670000000000073e+01 -3.517230000000000079e+00 8.115230000000000388e+00 1.316696999999999917e+01 3.520719999999999850e+00 2.035629999999999828e+00 1.317863999999999969e+01 1.759609999999999896e+00 5.076839999999999797e+00 1.317332999999999998e+01 -3.640000000000000006e-03 8.129200000000000870e+00 1.317719999999999914e+01 7.041640000000000121e+00 2.027709999999999901e+00 1.317206000000000010e+01 5.283140000000000391e+00 5.082390000000000185e+00 1.317296999999999940e+01 3.502520000000000078e+00 8.128220000000000667e+00 1.316553000000000040e+01 1.406989999999999963e+00 2.024880000000000013e+00 2.045845999999999876e+01 -3.547600000000000198e-01 5.079810000000000159e+00 2.045933000000000135e+01 -2.109329999999999927e+00 8.138469999999999871e+00 2.045552999999999955e+01 4.915009999999999657e+00 2.023149999999999782e+00 2.044669999999999987e+01 3.174300000000000122e+00 5.089179999999999815e+00 2.045549000000000106e+01 1.416050000000000031e+00 8.130720000000000169e+00 2.046008000000000138e+01 8.444110000000000227e+00 2.027400000000000091e+00 2.044555000000000078e+01 6.685319999999999929e+00 5.072949999999999626e+00 2.045185000000000031e+01 4.909349999999999881e+00 8.120309999999999917e+00 2.045126000000000133e+01 1.055563000000000073e+01 3.800000000000000209e-04 1.135235999999999912e+01 -1.751819999999999933e+00 3.060519999999999907e+00 1.135030000000000072e+01 7.044570000000000221e+00 6.079740000000000144e+00 1.135082000000000058e+01 -1.763530000000000042e+00 9.141189999999999927e+00 1.134537000000000084e+01 1.764210000000000056e+00 3.057589999999999808e+00 1.135481000000000051e+01 -2.360000000000000119e-03 6.095049999999999635e+00 1.135535999999999923e+01 7.044319999999999915e+00 5.159999999999999656e-03 1.135088999999999970e+01 5.272750000000000270e+00 3.039439999999999920e+00 1.136566999999999972e+01 3.521220000000000017e+00 6.087640000000000384e+00 1.136558999999999919e+01 -3.868199999999999861e+00 9.132039999999999935e+00 1.865081999999999951e+01 -3.499300000000000188e-01 3.049139999999999961e+00 1.864246999999999943e+01 -2.111619999999999830e+00 6.100340000000000096e+00 1.863738000000000028e+01 4.941089999999999982e+00 7.629999999999999630e-03 1.864561000000000135e+01 3.173080000000000123e+00 3.042679999999999829e+00 1.864067000000000007e+01 1.404169999999999918e+00 6.086929999999999730e+00 1.865594000000000108e+01 8.460770000000000124e+00 1.308999999999999921e-02 1.863195999999999941e+01 6.707300000000000040e+00 3.053879999999999928e+00 1.863594000000000150e+01 4.932649999999999757e+00 6.098950000000000315e+00 1.863251999999999953e+01
4.000000000000000192e-04 2.040049999999999919e+00 9.543509999999999494e+00 -1.754799999999999915e+00 5.084839999999999804e+00 9.548659999999999926e+00 -3.524900000000000144e+00 8.129530000000000811e+00 9.551819999999999311e+00 3.519080000000000208e+00 2.023899999999999810e+00 9.547250000000000014e+00 1.748320000000000096e+00 5.091070000000000206e+00 9.549279999999999546e+00 -2.160000000000000028e-03 8.127840000000000842e+00 9.541589999999999350e+00 7.041080000000000005e+00 2.043940000000000090e+00 9.539009999999999323e+00 5.266440000000000232e+00 5.086730000000000196e+00 9.542370000000000019e+00 3.529420000000000002e+00 8.134309999999999263e+00 9.554050000000000153e+00 1.411659999999999915e+00 2.040869999999999962e+00 1.683583000000000141e+01 -3.448700000000000099e-01 5.071909999999999918e+00 1.683649000000000129e+01 -2.107680000000000220e+00 8.122159999999999158e+00 1.682952999999999832e+01 4.931670000000000442e+00 2.035649999999999959e+00 1.683007999999999882e+01 3.153090000000000170e+00 5.086159999999999570e+00 1.684195000000000064e+01 1.413589999999999902e+00 8.132479999999999265e+00 1.683148999999999873e+01 8.438330000000000553e+00 2.035789999999999988e+00 1.681847000000000136e+01 6.691440000000000055e+00 5.077020000000000088e+00 1.682967000000000013e+01 4.932570000000000121e+00 8.137809999999999988e+00 1.682798000000000016e+01 -9.799999999999999684e-04 2.029679999999999929e+00 1.317938000000000009e+01 -1.759929999999999994e+00 5.089629999999999654e+00 1.315386999999999951e+01 -3.516599999999999948e+00 8.111800000000000566e+00 1.316656000000000049e+01 3.520830000000000126e+00 2.036410000000000053e+00 1.318115000000000059e+01 1.759460000000000024e+00 5.075890000000000235e+00 1.317456999999999923e+01 -4.570000000000000277e-03 8.129250000000000753e+00 1.317930999999999919e+01 7.042040000000000077e+00 2.026600000000000179e+00 1.317291999999999952e+01 5.283900000000000041e+00 5.082770000000000010e+00 1.317411000000000065e+01 3.498190000000000133e+00 8.128000000000000114e+00 1.316482000000000063e+01 1.406740000000000101e+00 2.023050000000000015e+00 2.045994999999999919e+01 -3.554800000000000182e-01 5.079589999999999606e+00 2.046107999999999905e+01 -2.108629999999999782e+00 8.140760000000000218e+00 2.045633000000000123e+01 4.911880000000000024e+00 2.020950000000000024e+00 2.044530999999999921e+01 3.175889999999999880e+00 5.091239999999999988e+00 2.045626000000000033e+01 1.418080000000000007e+00 8.131149999999999878e+00 2.046195000000000164e+01 8.443179999999999907e+00 2.026219999999999910e+00 2.044389999999999930e+01 6.684680000000000177e+00 5.071069999999999744e+00 2.045169999999999888e+01 4.904770000000000074e+00 8.118130000000000734e+00 2.045099000000000089e+01 1.055457000000000001e+01 5.000000000000000104e-04 1.135102000000000011e+01 -1.749880000000000102e+00 3.063419999999999810e+00 1.134839000000000020e+01 7.045589999999999797e+00 6.075610000000000177e+00 1.134894000000000069e+01 -1.764380000000000059e+00 9.140230000000000743e+00 1.134234999999999971e+01 1.765209999999999946e+00 3.059750000000000192e+00 1.135398999999999958e+01 -2.909999999999999826e-03 6.094689999999999941e+00 1.135466000000000086e+01 7.045270000000000366e+00 6.420000000000000359e-03 1.134905000000000008e+01 5.270999999999999908e+00 3.037300000000000111e+00 1.136738000000000071e+01 3.521450000000000191e+00 6.085460000000000313e+00 1.136730999999999980e+01 -3.867290000000000116e+00 9.128869999999999152e+00 1.865303000000000111e+01 -3.494499999999999829e-01 3.049269999999999925e+00 1.864272000000000062e+01 -2.111470000000000180e+00 6.101189999999999891e+00 1.863644999999999996e+01 4.944259999999999877e+00 9.409999999999999962e-03 1.864652999999999849e+01 3.174300000000000122e+00 3.041349999999999998e+00 1.864049999999999940e+01 1.403229999999999977e+00 6.084609999999999630e+00 1.865944000000000003e+01 8.463839999999999364e+00 1.624000000000000096e-02 1.862961999999999918e+01 6.711879999999999846e+00 3.055149999999999810e+00 1.863459999999999894e+01 4.933769999999999989e+00 6.099450000000000038e+00 1.863033000000000072e+01
5.199999999999999544e-04 2.041599999999999859e+00 9.542680000000000717e+00 -1.753770000000000051e+00 5.085670000000000357e+00 9.548719999999999430e+00 -3.525889999999999969e+00 8.129559999999999675e+00 9.552599999999999980e+00 3.518889999999999851e+00 2.022289999999999921e+00 9.547140000000000626e+00 1.746070000000000011e+00 5.093130000000000379e+00 9.549559999999999604e+00 -2.550000000000000183e-03 8.127610000000000667e+00 9.540369999999999351e+00 7.041280000000000427e+00 2.046279999999999877e+00 9.537330000000000751e+00 5.263760000000000439e+00 5.087830000000000297e+00 9.541359999999999175e+00 3.531250000000000000e+00 8.135279999999999845e+00 9.555279999999999774e+00 1.412430000000000074e+00 2.042469999999999786e+00 1.683670000000000044e+01 -3.434300000000000130e-01 5.070199999999999818e+00 1.683744000000000085e+01 -2.106739999999999835e+00 8.120839999999999392e+00 1.682914999999999850e+01 4.932479999999999976e+00 2.036329999999999973e+00 1.682977999999999952e+01 3.150209999999999955e+00 5.087220000000000297e+00 1.684396999999999878e+01 1.414760000000000018e+00 8.133089999999999264e+00 1.683153000000000077e+01 8.436579999999999302e+00 2.036529999999999951e+00 1.681581999999999866e+01 6.692190000000000083e+00 5.076329999999999565e+00 1.682920999999999978e+01 4.933569999999999567e+00 8.139530000000000598e+00 1.682721000000000089e+01 -1.190000000000000085e-03 2.029189999999999827e+00 1.318144999999999989e+01 -1.759940000000000060e+00 5.091359999999999886e+00 1.315108999999999995e+01 -3.516000000000000014e+00 8.108380000000000365e+00 1.316610000000000014e+01 3.520890000000000075e+00 2.037139999999999951e+00 1.318360999999999983e+01 1.759279999999999955e+00 5.074959999999999916e+00 1.317580000000000062e+01 -5.510000000000000141e-03 8.129300000000000637e+00 1.318134000000000050e+01 7.042449999999999655e+00 2.025520000000000209e+00 1.317374000000000045e+01 5.284639999999999560e+00 5.083129999999999704e+00 1.317524000000000051e+01 3.493879999999999875e+00 8.127789999999999182e+00 1.316411000000000087e+01 1.406490000000000018e+00 2.021220000000000017e+00 2.046142000000000039e+01 -3.562299999999999911e-01 5.079349999999999810e+00 2.046282000000000068e+01 -2.107920000000000016e+00 8.143010000000000304e+00 2.045711999999999975e+01 4.908830000000000027e+00 2.018810000000000215e+00 2.044394000000000133e+01 3.177490000000000148e+00 5.093250000000000277e+00 2.045701000000000036e+01 1.420120000000000049e+00 8.131579999999999586e+00 2.046378999999999948e+01 8.442289999999999850e+00 2.025059999999999860e+00 2.044228999999999985e+01 6.684050000000000047e+00 5.069219999999999615e+00 2.045154000000000138e+01 4.900240000000000151e+00 8.115980000000000416e+00 2.045072000000000045e+01 1.055353999999999992e+01 6.400000000000000524e-04 1.134980000000000011e+01 -1.747980000000000089e+00 3.066230000000000011e+00 1.134656000000000020e+01 7.046549999999999869e+00 6.071570000000000356e+00 1.134708000000000006e+01 -1.765220000000000011e+00 9.139300000000000423e+00 1.133948999999999963e+01 1.766170000000000018e+00 3.061840000000000117e+00 1.135321000000000069e+01 -3.439999999999999915e-03 6.094400000000000261e+00 1.135402000000000022e+01 7.046129999999999782e+00 7.660000000000000142e-03 1.134723999999999933e+01 5.269289999999999807e+00 3.035219999999999807e+00 1.136904999999999966e+01 3.521640000000000104e+00 6.083339999999999748e+00 1.136899999999999977e+01 -3.866410000000000124e+00 9.125769999999999271e+00 1.865516999999999825e+01 -3.489900000000000224e-01 3.049370000000000136e+00 1.864298000000000144e+01 -2.111289999999999889e+00 6.102000000000000313e+00 1.863558000000000092e+01 4.947370000000000267e+00 1.111000000000000008e-02 1.864739000000000146e+01 3.175489999999999924e+00 3.040080000000000116e+00 1.864036000000000115e+01 1.402309999999999945e+00 6.082379999999999676e+00 1.866288000000000125e+01 8.466829999999999856e+00 1.932000000000000037e-02 1.862730000000000175e+01 6.716310000000000002e+00 3.056360000000000188e+00 1.863329999999999842e+01 4.934859999999999580e+00 6.099940000000000140e+00 1.862817000000000078e+01