1.325999999999999922e-03 2.464000000000000044e-03 3.971999999999999836e-03 1.325000000000000006e-03 2.461000000000000080e-03 3.969999999999999571e-03 1.325000000000000006e-03 2.465000000000000177e-03 3.969999999999999571e-03 1.322999999999999957e-03 2.461000000000000080e-03 3.970999999999999704e-03 1.327999999999999970e-03 2.462000000000000213e-03 3.974000000000000102e-03 1.325999999999999922e-03 2.465000000000000177e-03 3.969000000000000306e-03 1.329000000000000103e-03 2.465000000000000177e-03 3.970999999999999704e-03 1.327999999999999970e-03 2.467000000000000009e-03 3.974000000000000102e-03 1.325999999999999922e-03 2.464000000000000044e-03 3.969000000000000306e-03 4.912799999999999806e-02 -2.785000000000000149e-03 4.014000000000000207e-03 4.912699999999999706e-02 -2.782000000000000185e-03 4.015999999999999605e-03 4.912899999999999906e-02 -2.784000000000000016e-03 4.014000000000000207e-03 4.912799999999999806e-02 -2.785000000000000149e-03 4.016999999999999738e-03 4.912699999999999706e-02 -2.782999999999999884e-03 4.015000000000000339e-03 4.912799999999999806e-02 -2.782000000000000185e-03 4.016999999999999738e-03 4.912600000000000300e-02 -2.782999999999999884e-03 4.016999999999999738e-03 4.913000000000000006e-02 -2.784000000000000016e-03 4.014000000000000207e-03 4.913100000000000106e-02 -2.782000000000000185e-03 4.015999999999999605e-03 -4.911700000000000094e-02 -2.748000000000000009e-03 -3.521999999999999957e-03 -4.911900000000000294e-02 -2.749000000000000141e-03 -3.520999999999999824e-03 -4.911599999999999994e-02 -2.746999999999999876e-03 -3.523999999999999789e-03 -4.911999999999999700e-02 -2.746999999999999876e-03 -3.523999999999999789e-03 -4.911200000000000288e-02 -2.749000000000000141e-03 -3.520000000000000125e-03 -4.911399999999999794e-02 -2.745000000000000044e-03 -3.523999999999999789e-03 -4.911299999999999694e-02 -2.749999999999999840e-03 -3.523999999999999789e-03 -4.911900000000000294e-02 -2.746999999999999876e-03 -3.527000000000000187e-03 -4.911900000000000294e-02 -2.746999999999999876e-03 -3.523999999999999789e-03 -1.312999999999999931e-03 2.426000000000000205e-03 -3.566999999999999858e-03 -1.314999999999999980e-03 2.432999999999999833e-03 -3.567999999999999991e-03 -1.315999999999999896e-03 2.429000000000000169e-03 -3.569999999999999823e-03 -1.314999999999999980e-03 2.426999999999999904e-03 -3.570999999999999956e-03 -1.312999999999999931e-03 2.429999999999999868e-03 -3.566000000000000159e-03 -1.315999999999999896e-03 2.426000000000000205e-03 -3.573999999999999920e-03 -1.319000000000000077e-03 2.428000000000000037e-03 -3.567999999999999991e-03 -1.317000000000000028e-03 2.428000000000000037e-03 -3.569000000000000124e-03 -1.317000000000000028e-03 2.426999999999999904e-03 -3.566999999999999858e-03 -1.443799999999999945e-02 3.220000000000000206e-04 4.096999999999999947e-03 -1.443900000000000045e-02 3.150000000000000131e-04 4.093000000000000284e-03 -1.444100000000000071e-02 3.200000000000000262e-04 4.096999999999999947e-03 -1.444100000000000071e-02 3.200000000000000262e-04 4.095999999999999815e-03 -1.443999999999999971e-02 3.190000000000000019e-04 4.094999999999999682e-03 -1.443700000000000018e-02 3.179999999999999776e-04 4.092000000000000151e-03 -1.443499999999999991e-02 3.229999999999999907e-04 4.096999999999999947e-03 -1.443700000000000018e-02 3.200000000000000262e-04 4.096999999999999947e-03 -1.443400000000000065e-02 3.190000000000000019e-04 4.094999999999999682e-03 1.445399999999999983e-02 3.240000000000000150e-04 -5.032000000000000015e-03 1.445500000000000083e-02 3.289999999999999739e-04 -5.033000000000000147e-03 1.445500000000000083e-02 3.299999999999999982e-04 -5.030999999999999882e-03 1.445300000000000057e-02 3.240000000000000150e-04 -5.026000000000000086e-03 1.445800000000000037e-02 3.269999999999999795e-04 -5.032000000000000015e-03 1.445300000000000057e-02 3.299999999999999982e-04 -5.028000000000000351e-03 1.444800000000000077e-02 3.280000000000000038e-04 -5.032000000000000015e-03 1.444900000000000004e-02 3.269999999999999795e-04 -5.030999999999999882e-03 1.445699999999999937e-02 3.280000000000000038e-04 -5.028999999999999616e-03
1.373699999999999921e-02 -1.190000000000000085e-03 5.191999999999999567e-03 -6.579999999999999478e-04 -1.051999999999999984e-03 -3.852200000000000069e-02 -2.171999999999999886e-03 -1.530199999999999963e-02 -1.554200000000000026e-02 -9.619999999999999645e-04 2.169799999999999854e-02 -4.495999999999999996e-03 2.839699999999999863e-02 -5.963999999999999684e-03 -6.821999999999999939e-03 1.353599999999999942e-02 6.071000000000000008e-03 5.668000000000000295e-03 -2.680999999999999790e-03 1.389999999999999960e-03 2.304300000000000098e-02 1.324000000000000003e-02 -3.497200000000000308e-02 1.901299999999999865e-02 -1.649300000000000072e-02 -2.103299999999999961e-02 -1.206300000000000081e-02 4.828699999999999659e-02 -4.194200000000000012e-02 1.614700000000000163e-02 3.799500000000000099e-02 1.378899999999999917e-02 -1.307000000000000002e-03 6.103900000000000298e-02 2.157600000000000143e-02 1.922099999999999850e-02 6.061500000000000221e-02 -9.020000000000000240e-04 8.524000000000000327e-03 6.934099999999999986e-02 -1.373899999999999948e-02 -6.474999999999999853e-03 5.011999999999999789e-02 -2.360399999999999998e-02 2.922500000000000098e-02 9.343799999999999328e-02 9.187000000000000721e-03 1.582000000000000073e-03 5.479799999999999949e-02 1.231200000000000003e-02 -1.201900000000000017e-02 6.144100000000000256e-02 -1.072099999999999963e-02 -5.846999999999999767e-03 -4.121600000000000263e-02 6.037999999999999964e-03 -4.958200000000000107e-02 -4.163000000000000034e-02 -2.364899999999999988e-02 3.269699999999999690e-02 -6.201899999999999774e-02 1.367400000000000039e-02 -3.579500000000000043e-02 -6.691800000000000526e-02 -3.075800000000000062e-02 -3.830800000000000177e-02 -5.715699999999999947e-02 5.859999999999999758e-03 -9.613000000000000017e-03 -4.331600000000000034e-02 5.505999999999999610e-03 -5.663100000000000078e-02 -3.664400000000000296e-02 1.519900000000000070e-02 -3.472200000000000286e-02 -4.745900000000000118e-02 -2.218499999999999986e-02 -1.208599999999999952e-02 -1.268000000000000030e-02 -1.794999999999999938e-03 -6.530000000000000214e-03 1.575000000000000011e-03 9.195999999999999314e-03 -2.122299999999999881e-02 -1.475899999999999955e-02 -1.809999999999999977e-03 -6.395999999999999776e-03 1.202600000000000023e-02 -2.608200000000000102e-02 -6.749999999999999924e-03 5.422899999999999943e-02 4.036200000000000204e-02 6.145000000000000288e-03 3.191999999999999959e-03 -3.054799999999999877e-02 -1.494299999999999969e-02 5.164000000000000187e-03 9.700999999999999554e-03 -3.338599999999999901e-02 2.079100000000000045e-02 1.911900000000000058e-02 1.928500000000000006e-02 1.064200000000000042e-02 2.556699999999999945e-02 -1.359299999999999918e-02 3.771900000000000253e-02 1.427999999999999929e-02 -3.784000000000000037e-03 1.183999999999999940e-03 7.945999999999999938e-03 6.783100000000000240e-02 -4.307799999999999824e-02 -4.434899999999999953e-02 5.012899999999999995e-02 -4.846000000000000307e-02 4.925999999999999823e-02 1.619100000000000053e-02 -4.090000000000000211e-04 1.835300000000000126e-02 9.164400000000000324e-02 -2.960000000000000131e-02 -4.355500000000000344e-02 3.422599999999999948e-02 2.135000000000000179e-03 2.995400000000000146e-02 3.339099999999999707e-02 -5.468200000000000144e-02 -1.160199999999999947e-02 2.363200000000000023e-02 1.115799999999999952e-02 3.657500000000000334e-02 -2.450400000000000147e-02 -3.474800000000000111e-02 3.959599999999999925e-02 -1.740399999999999933e-02 -5.421999999999999736e-03 4.453800000000000120e-02 -4.171199999999999908e-02 -3.389999999999999784e-03 -1.688600000000000170e-02 1.539000000000000003e-03 2.723799999999999832e-02 -1.346999999999999933e-02 3.240799999999999931e-02 -2.601600000000000093e-02 -4.334500000000000158e-02 -3.573199999999999987e-02 -7.726000000000000228e-03 3.451100000000000001e-02 1.400700000000000035e-02 1.862099999999999866e-02 5.340799999999999714e-02 -3.858700000000000324e-02 -3.252300000000000330e-02 -4.164500000000000146e-02 1.506700000000000053e-02 -7.402799999999999658e-02 -3.337600000000000289e-02 1.935200000000000115e-02 -5.074999999999999650e-03 -8.982999999999999666e-03 1.908699999999999980e-02
2.610000000000000167e-02 -4.904000000000000373e-03 6.427999999999999686e-03 -2.570999999999999935e-03 -4.473999999999999679e-03 -8.124900000000000178e-02 -5.768999999999999823e-03 -3.305000000000000299e-02 -3.512500000000000344e-02 -3.278000000000000098e-03 4.093100000000000210e-02 -1.292699999999999926e-02 5.542600000000000304e-02 -1.455599999999999949e-02 -1.769899999999999946e-02 2.556999999999999898e-02 9.757999999999999313e-03 7.237999999999999642e-03 -6.643999999999999732e-03 1.550000000000000000e-04 4.199599999999999861e-02 2.504400000000000029e-02 -7.172399999999999609e-02 3.348799999999999694e-02 -3.452700000000000213e-02 -4.431299999999999822e-02 -2.852400000000000074e-02 4.735799999999999732e-02 -8.036000000000000087e-02 2.768500000000000127e-02 2.678099999999999925e-02 3.034399999999999945e-02 -6.651999999999999927e-03 7.249400000000000288e-02 4.555399999999999727e-02 3.393600000000000089e-02 7.181200000000000083e-02 9.359999999999999831e-04 1.281000000000000021e-02 8.942700000000000649e-02 -2.460599999999999940e-02 -1.704500000000000112e-02 5.113399999999999890e-02 -4.373900000000000010e-02 5.356600000000000250e-02 1.373099999999999876e-01 2.087699999999999972e-02 -1.348000000000000023e-03 6.046800000000000092e-02 2.755700000000000163e-02 -2.800800000000000164e-02 7.368500000000000050e-02 -1.869900000000000034e-02 -1.586600000000000163e-02 -3.342799999999999938e-02 1.472700000000000051e-02 -9.461600000000000565e-02 -3.412199999999999955e-02 -4.455400000000000332e-02 6.931199999999999861e-02 -7.462399999999999589e-02 2.988800000000000137e-02 -6.722799999999999609e-02 -8.440899999999999792e-02 -5.789199999999999902e-02 -7.213799999999999379e-02 -6.494800000000000573e-02 1.430599999999999927e-02 -1.546699999999999985e-02 -3.758199999999999735e-02 1.355499999999999934e-02 -1.083469999999999989e-01 -2.467799999999999855e-02 3.278999999999999970e-02 -6.526800000000000657e-02 -4.582499999999999768e-02 -4.149800000000000016e-02 -2.050799999999999845e-02 2.333700000000000011e-02 -9.700000000000000505e-04 -9.126000000000000431e-03 4.379000000000000080e-03 1.583899999999999891e-02 -3.865600000000000286e-02 -2.807700000000000126e-02 -6.087999999999999662e-03 -9.107000000000000511e-03 2.547500000000000112e-02 -5.448599999999999971e-02 -9.587999999999999301e-03 1.088090000000000029e-01 7.796599999999999364e-02 1.737299999999999955e-02 7.721999999999999698e-03 -6.313699999999999868e-02 -2.588700000000000029e-02 1.112199999999999994e-02 1.672299999999999828e-02 -6.246999999999999775e-02 4.291299999999999976e-02 3.566400000000000126e-02 4.239300000000000013e-02 2.248800000000000104e-02 4.858900000000000025e-02 -2.336600000000000135e-02 7.657999999999999530e-02 2.611799999999999886e-02 -3.853999999999999787e-03 1.679900000000000143e-02 1.592999999999999972e-02 1.306190000000000129e-01 -7.119599999999999540e-02 -8.871600000000000319e-02 9.525400000000000533e-02 -8.269300000000000261e-02 9.773700000000000443e-02 2.802699999999999983e-02 1.347600000000000013e-02 3.582400000000000168e-02 1.776099999999999901e-01 -4.445799999999999752e-02 -8.688500000000000389e-02 6.354200000000000126e-02 1.855400000000000105e-02 5.942499999999999866e-02 6.220500000000000335e-02 -9.430499999999999994e-02 -2.300599999999999867e-02 4.244699999999999862e-02 3.647600000000000148e-02 7.220699999999999341e-02 -5.256600000000000161e-02 -5.478199999999999736e-02 7.829800000000000648e-02 -3.848300000000000332e-02 -2.510899999999999938e-02 8.797699999999999965e-02 -7.779999999999999416e-02 -2.092799999999999869e-02 -3.379000000000000059e-02 8.295999999999999555e-03 3.996399999999999952e-02 -2.731300000000000047e-02 6.928900000000000337e-02 -6.589100000000000512e-02 -8.682299999999999740e-02 -6.622799999999999521e-02 -2.978899999999999951e-02 6.832799999999999985e-02 3.231599999999999751e-02 2.262399999999999828e-02 1.053779999999999994e-01 -7.131800000000000639e-02 -7.857400000000000495e-02 -8.302199999999999858e-02 3.465399999999999731e-02 -1.611470000000000125e-01 -6.629799999999999582e-02 4.288200000000000345e-02 -2.439200000000000049e-02 -1.824100000000000027e-02 4.294200000000000100e-02
3.824099999999999722e-02 -8.807000000000000592e-03 7.804000000000000173e-03 -4.381999999999999611e-03 -7.815000000000000765e-03 -1.236059999999999937e-01 -9.395000000000000573e-03 -5.057199999999999890e-02 -5.447400000000000159e-02 -5.562000000000000104e-03 6.004700000000000315e-02 -2.125000000000000153e-02 8.232399999999999440e-02 -2.329200000000000020e-02 -2.846600000000000172e-02 3.726200000000000345e-02 1.349299999999999979e-02 8.885999999999999802e-03 -1.051900000000000057e-02 -1.314000000000000064e-03 6.074100000000000332e-02 3.670799999999999758e-02 -1.076059999999999933e-01 4.734300000000000314e-02 -5.270199999999999885e-02 -6.724099999999999522e-02 -4.522000000000000325e-02 4.630999999999999700e-02 -1.178970000000000018e-01 3.845200000000000007e-02 1.557799999999999983e-02 4.687899999999999706e-02 -1.201200000000000011e-02 8.340699999999999503e-02 6.911599999999999688e-02 4.804599999999999843e-02 8.255899999999999350e-02 2.641999999999999817e-03 1.691700000000000148e-02 1.093930000000000041e-01 -3.531499999999999917e-02 -2.765600000000000003e-02 5.206700000000000217e-02 -6.315500000000000280e-02 7.693200000000000038e-02 1.805140000000000078e-01 3.218200000000000227e-02 -4.464000000000000086e-03 6.600999999999999923e-02 4.286000000000000226e-02 -4.373699999999999810e-02 8.572699999999999765e-02 -2.680799999999999850e-02 -2.586000000000000104e-02 -2.586799999999999863e-02 2.326299999999999896e-02 -1.382980000000000043e-01 -2.659299999999999858e-02 -6.539699999999999680e-02 1.061060000000000059e-01 -8.691799999999999526e-02 4.597400000000000098e-02 -9.755400000000000182e-02 -1.014319999999999944e-01 -8.408599999999999408e-02 -1.047730000000000050e-01 -7.248599999999999488e-02 2.268699999999999883e-02 -2.109499999999999917e-02 -3.196199999999999736e-02 2.129800000000000096e-02 -1.584079999999999933e-01 -1.328900000000000046e-02 5.003699999999999815e-02 -9.489300000000000512e-02 -4.435100000000000153e-02 -6.054400000000000059e-02 -2.876899999999999943e-02 5.896099999999999952e-02 -2.889999999999999774e-04 -1.123399999999999919e-02 7.050999999999999976e-03 2.239199999999999871e-02 -5.574699999999999794e-02 -4.104399999999999715e-02 -1.039799999999999926e-02 -1.171699999999999998e-02 3.888599999999999696e-02 -8.266800000000000537e-02 -1.206400000000000007e-02 1.623020000000000018e-01 1.150520000000000015e-01 3.003400000000000167e-02 1.211300000000000050e-02 -9.515500000000000347e-02 -3.640899999999999692e-02 1.639499999999999985e-02 2.343699999999999950e-02 -9.084699999999999720e-02 6.485599999999999699e-02 5.202899999999999886e-02 6.564000000000000390e-02 3.410799999999999943e-02 7.137799999999999701e-02 -3.280600000000000183e-02 1.152870000000000006e-01 3.797099999999999781e-02 -3.887999999999999963e-03 3.231699999999999851e-02 2.415899999999999992e-02 1.919119999999999993e-01 -9.858699999999999408e-02 -1.325119999999999909e-01 1.390750000000000042e-01 -1.168239999999999973e-01 1.456369999999999887e-01 3.953099999999999670e-02 2.713600000000000040e-02 5.250400000000000206e-02 2.613059999999999827e-01 -5.904800000000000326e-02 -1.293880000000000030e-01 9.178300000000000347e-02 3.462900000000000006e-02 8.853800000000000558e-02 9.023699999999999777e-02 -1.330520000000000036e-01 -3.389999999999999958e-02 6.039900000000000130e-02 6.137999999999999706e-02 1.070620000000000044e-01 -8.002299999999999691e-02 -7.442799999999999416e-02 1.162720000000000004e-01 -5.908599999999999963e-02 -4.450199999999999989e-02 1.304319999999999924e-01 -1.131100000000000022e-01 -3.801999999999999824e-02 -5.028200000000000031e-02 1.517600000000000025e-02 5.248699999999999893e-02 -4.111299999999999677e-02 1.053449999999999942e-01 -1.049179999999999974e-01 -1.297750000000000015e-01 -9.631599999999999884e-02 -5.162900000000000128e-02 1.015920000000000017e-01 4.976900000000000074e-02 2.653099999999999903e-02 1.559959999999999958e-01 -1.031119999999999953e-01 -1.235549999999999982e-01 -1.236410000000000009e-01 5.363600000000000312e-02 -2.464699999999999946e-01 -9.838500000000000023e-02 6.540600000000000580e-02 -4.345600000000000157e-02 -2.731899999999999953e-02 6.637999999999999456e-02
5.007999999999999952e-02 -1.293599999999999958e-02 9.438999999999999474e-03 -6.120999999999999705e-03 -1.107799999999999931e-02 -1.651710000000000123e-01 -1.296899999999999963e-02 -6.769400000000000417e-02 -7.337399999999999478e-02 -7.822000000000000827e-03 7.894500000000000128e-02 -2.928000000000000047e-02 1.089610000000000023e-01 -3.224400000000000183e-02 -3.896999999999999770e-02 4.848500000000000032e-02 1.732099999999999959e-02 1.067099999999999993e-02 -1.427699999999999976e-02 -3.088000000000000033e-03 7.924000000000000488e-02 4.819199999999999873e-02 -1.424100000000000088e-01 6.053700000000000053e-02 -7.096600000000000130e-02 -8.961900000000000421e-02 -6.198700000000000043e-02 4.513799999999999757e-02 -1.543670000000000042e-01 4.841800000000000270e-02 4.381999999999999611e-03 6.332699999999999441e-02 -1.730599999999999847e-02 9.365600000000000314e-02 9.209900000000000031e-02 6.152799999999999936e-02 9.269299999999999762e-02 4.176000000000000024e-03 2.083199999999999982e-02 1.291779999999999873e-01 -4.581299999999999956e-02 -3.832699999999999996e-02 5.290199999999999764e-02 -8.176700000000000634e-02 9.908999999999999753e-02 2.227649999999999908e-01 4.299800000000000150e-02 -7.584999999999999729e-03 7.140199999999999325e-02 5.812599999999999711e-02 -5.899100000000000177e-02 9.742399999999999671e-02 -3.505099999999999882e-02 -3.572999999999999787e-02 -1.856199999999999864e-02 3.164100000000000246e-02 -1.803230000000000111e-01 -1.915199999999999889e-02 -8.605500000000000649e-02 1.429090000000000082e-01 -9.886799999999999755e-02 6.188400000000000151e-02 -1.264570000000000138e-01 -1.178519999999999984e-01 -1.091749999999999943e-01 -1.361110000000000098e-01 -7.970399999999999707e-02 3.095300000000000135e-02 -2.650399999999999978e-02 -2.641599999999999851e-02 2.874399999999999872e-02 -2.064670000000000116e-01 -2.592999999999999819e-03 6.685099999999999376e-02 -1.234539999999999943e-01 -4.311600000000000155e-02 -7.918400000000000438e-02 -3.687800000000000106e-02 9.403499999999999359e-02 2.849999999999999886e-04 -1.278199999999999996e-02 9.579000000000000709e-03 2.886700000000000030e-02 -7.244200000000000639e-02 -5.351999999999999813e-02 -1.472599999999999951e-02 -1.424899999999999951e-02 5.210599999999999954e-02 -1.105059999999999931e-01 -1.426000000000000011e-02 2.144459999999999977e-01 1.513839999999999908e-01 4.402799999999999769e-02 1.624400000000000149e-02 -1.264429999999999998e-01 -4.640600000000000280e-02 2.089399999999999938e-02 2.985300000000000106e-02 -1.183529999999999999e-01 8.643499999999999794e-02 6.809600000000000375e-02 8.890000000000000679e-02 4.544800000000000229e-02 9.383500000000000174e-02 -4.186200000000000337e-02 1.537429999999999908e-01 4.984100000000000336e-02 -3.928000000000000068e-03 4.761900000000000160e-02 3.256499999999999673e-02 2.510809999999999986e-01 -1.250630000000000075e-01 -1.754519999999999968e-01 1.811659999999999937e-01 -1.505859999999999976e-01 1.926219999999999877e-01 5.056399999999999784e-02 4.050000000000000128e-02 6.829899999999999860e-02 3.419409999999999950e-01 -7.328199999999999992e-02 -1.707089999999999996e-01 1.186659999999999937e-01 5.023099999999999787e-02 1.170370000000000021e-01 1.171569999999999973e-01 -1.706759999999999944e-01 -4.420700000000000324e-02 7.733199999999999796e-02 8.567400000000000015e-02 1.409499999999999920e-01 -1.067199999999999954e-01 -9.351900000000000490e-02 1.531770000000000076e-01 -7.911200000000000176e-02 -6.344299999999999939e-02 1.716350000000000098e-01 -1.473810000000000120e-01 -5.456300000000000039e-02 -6.622999999999999721e-02 2.208999999999999853e-02 6.463599999999999901e-02 -5.480000000000000149e-02 1.402690000000000048e-01 -1.428800000000000070e-01 -1.718600000000000128e-01 -1.256940000000000002e-01 -7.313500000000000556e-02 1.340300000000000102e-01 6.622999999999999721e-02 3.032800000000000079e-02 2.049169999999999880e-01 -1.337869999999999893e-01 -1.671829999999999983e-01 -1.632270000000000110e-01 7.191400000000000570e-02 -3.293630000000000169e-01 -1.293999999999999873e-01 8.673400000000000554e-02 -6.204899999999999999e-02 -3.613100000000000339e-02 8.922099999999999476e-02
6.150800000000000017e-02 -1.736400000000000096e-02 1.146900000000000003e-02 -7.799000000000000377e-03 -1.426700000000000017e-02 -2.054930000000000090e-01 -1.642499999999999863e-02 -8.422200000000000519e-02 -9.158299999999999774e-02 -1.003899999999999931e-02 9.750300000000000633e-02 -3.686699999999999700e-02 1.352160000000000029e-01 -4.143800000000000261e-02 -4.905899999999999844e-02 5.909400000000000069e-02 2.126600000000000018e-02 1.266899999999999971e-02 -1.789200000000000165e-02 -5.218000000000000416e-03 9.744600000000000484e-02 5.944800000000000084e-02 -1.759640000000000093e-01 7.303300000000000070e-02 -8.922299999999999676e-02 -1.112569999999999948e-01 -7.863900000000000057e-02 4.383000000000000090e-02 -1.895880000000000065e-01 5.753799999999999887e-02 -6.786000000000000365e-03 7.962800000000000433e-02 -2.246000000000000080e-02 1.031569999999999987e-01 1.143679999999999974e-01 7.433099999999999430e-02 1.020410000000000067e-01 5.498000000000000283e-03 2.457799999999999915e-02 1.487390000000000101e-01 -5.604800000000000060e-02 -4.906200000000000144e-02 5.359300000000000175e-02 -9.953199999999999548e-02 1.198430000000000051e-01 2.638110000000000177e-01 5.325400000000000272e-02 -1.048600000000000053e-02 7.660699999999999454e-02 7.326100000000000667e-02 -7.354600000000000026e-02 1.086410000000000015e-01 -4.345600000000000157e-02 -4.539599999999999885e-02 -1.154699999999999997e-02 3.983300000000000035e-02 -2.204250000000000098e-01 -1.187700000000000040e-02 -1.064240000000000047e-01 1.795430000000000081e-01 -1.104600000000000026e-01 7.760200000000000431e-02 -1.536700000000000010e-01 -1.335169999999999968e-01 -1.330280000000000074e-01 -1.660230000000000039e-01 -8.654799999999999993e-02 3.908799999999999775e-02 -3.169000000000000289e-02 -2.092499999999999916e-02 3.588999999999999829e-02 -2.522119999999999918e-01 7.307000000000000127e-03 8.317299999999999693e-02 -1.508039999999999936e-01 -4.221199999999999952e-02 -9.730500000000000260e-02 -4.485600000000000004e-02 1.284500000000000086e-01 7.900000000000000121e-04 -1.370500000000000017e-02 1.194800000000000029e-02 3.529600000000000098e-02 -8.867800000000000682e-02 -6.535199999999999343e-02 -1.906199999999999908e-02 -1.673699999999999841e-02 6.499800000000000022e-02 -1.378820000000000046e-01 -1.621399999999999925e-02 2.650159999999999738e-01 1.867260000000000031e-01 5.920199999999999768e-02 1.998600000000000029e-02 -1.568529999999999924e-01 -5.583799999999999875e-02 2.451700000000000060e-02 3.596799999999999997e-02 -1.448850000000000138e-01 1.074709999999999971e-01 8.377199999999999924e-02 1.120430000000000037e-01 5.643499999999999905e-02 1.158720000000000028e-01 -5.048199999999999910e-02 1.918650000000000078e-01 6.173100000000000115e-02 -3.983000000000000429e-03 6.258600000000000274e-02 4.104800000000000115e-02 3.075109999999999788e-01 -1.504359999999999864e-01 -2.172469999999999957e-01 2.211210000000000120e-01 -1.837060000000000082e-01 2.383820000000000106e-01 6.101600000000000079e-02 5.347600000000000270e-02 8.309199999999999919e-02 4.187640000000000251e-01 -8.709899999999999587e-02 -2.105430000000000079e-01 1.439280000000000004e-01 6.522999999999999632e-02 1.446959999999999913e-01 1.426540000000000030e-01 -2.069130000000000136e-01 -5.387399999999999828e-02 9.309699999999999920e-02 1.091799999999999993e-01 1.736820000000000030e-01 -1.324889999999999957e-01 -1.118839999999999973e-01 1.887379999999999891e-01 -9.844500000000000473e-02 -8.176100000000000034e-02 2.113379999999999981e-01 -1.803609999999999935e-01 -7.042900000000000549e-02 -8.148800000000000487e-02 2.894499999999999851e-02 7.629199999999999871e-02 -6.830899999999999472e-02 1.737499999999999878e-01 -1.795450000000000101e-01 -2.127130000000000132e-01 -1.540789999999999937e-01 -9.416499999999999870e-02 1.653949999999999865e-01 8.158899999999999486e-02 3.401699999999999863e-02 2.517980000000000218e-01 -1.631450000000000122e-01 -2.091860000000000108e-01 -2.015309999999999879e-01 8.938599999999999324e-02 -4.092459999999999987e-01 -1.591519999999999879e-01 1.066830000000000001e-01 -8.001199999999999979e-02 -4.460800000000000182e-02 1.112699999999999939e-01
7.243600000000000039e-02 -2.214100000000000096e-02 1.400500000000000009e-02 -9.443000000000000005e-03 -1.738999999999999921e-02 -2.441300000000000137e-01 -1.968299999999999911e-02 -9.997399999999999343e-02 -1.088530000000000053e-01 -1.220599999999999984e-02 1.156090000000000034e-01 -4.385499999999999815e-02 1.609760000000000080e-01 -5.091600000000000292e-02 -5.859299999999999925e-02 6.895999999999999353e-02 2.536400000000000113e-02 1.497099999999999993e-02 -2.134600000000000039e-02 -7.771000000000000130e-03 1.153210000000000068e-01 7.043800000000000061e-02 -2.081119999999999914e-01 8.482800000000000062e-02 -1.073999999999999955e-01 -1.319809999999999872e-01 -9.498199999999999699e-02 4.237699999999999800e-02 -2.234180000000000055e-01 6.577700000000000213e-02 -1.789500000000000118e-02 9.572500000000000453e-02 -2.741199999999999887e-02 1.118259999999999948e-01 1.357909999999999950e-01 8.641999999999999682e-02 1.104529999999999956e-01 6.572999999999999850e-03 2.816700000000000106e-02 1.680240000000000067e-01 -6.596699999999999786e-02 -5.985599999999999948e-02 5.410199999999999732e-02 -1.164250000000000007e-01 1.390409999999999979e-01 3.034080000000000110e-01 6.287099999999999633e-02 -1.295299999999999924e-02 8.158200000000000174e-02 8.817999999999999450e-02 -8.719499999999999473e-02 1.192509999999999959e-01 -5.204000000000000292e-02 -5.476299999999999918e-02 -4.862000000000000002e-03 4.781900000000000039e-02 -2.583520000000000261e-01 -4.862000000000000002e-03 -1.263950000000000073e-01 2.158239999999999881e-01 -1.216819999999999985e-01 9.311300000000000132e-02 -1.789530000000000010e-01 -1.482980000000000131e-01 -1.555400000000000116e-01 -1.944230000000000125e-01 -9.296599999999999309e-02 4.707299999999999679e-02 -3.665299999999999808e-02 -1.546999999999999938e-02 4.275299999999999934e-02 -2.953919999999999879e-01 1.633799999999999836e-02 9.894899999999999529e-02 -1.768099999999999949e-01 -4.172100000000000114e-02 -1.147859999999999991e-01 -5.272299999999999903e-02 1.620999999999999941e-01 1.266999999999999897e-03 -1.395300000000000012e-02 1.414600000000000059e-02 4.170200000000000295e-02 -1.044019999999999948e-01 -7.639500000000000457e-02 -2.338099999999999901e-02 -1.920099999999999932e-02 7.742699999999999583e-02 -1.646730000000000138e-01 -1.798699999999999952e-02 3.138290000000000246e-01 2.208660000000000068e-01 7.538000000000000256e-02 2.322199999999999959e-02 -1.862469999999999959e-01 -6.467699999999999838e-02 2.718699999999999936e-02 4.178300000000000070e-02 -1.703679999999999917e-01 1.277880000000000127e-01 9.896900000000000142e-02 1.349589999999999956e-01 6.700799999999999812e-02 1.373949999999999894e-01 -5.862200000000000050e-02 2.295889999999999875e-01 7.364900000000000613e-02 -4.095999999999999815e-03 7.710500000000000687e-02 4.949800000000000033e-02 3.606449999999999934e-01 -1.745470000000000077e-01 -2.576220000000000176e-01 2.585830000000000073e-01 -2.159050000000000136e-01 2.826339999999999963e-01 7.079299999999999482e-02 6.598199999999999898e-02 9.678799999999999903e-02 4.910990000000000077e-01 -1.004459999999999936e-01 -2.486039999999999917e-01 1.673479999999999968e-01 7.949199999999999322e-02 1.713079999999999881e-01 1.664370000000000016e-01 -2.415329999999999977e-01 -6.287199999999999733e-02 1.075760000000000050e-01 1.317240000000000077e-01 2.050990000000000035e-01 -1.571970000000000034e-01 -1.293620000000000048e-01 2.227020000000000111e-01 -1.169879999999999948e-01 -9.929100000000000426e-02 2.493190000000000128e-01 -2.118180000000000063e-01 -8.549900000000000555e-02 -9.592799999999999938e-02 3.565299999999999719e-02 8.732900000000000384e-02 -8.155700000000000449e-02 2.055120000000000002e-01 -2.147159999999999902e-01 -2.520049999999999790e-01 -1.811959999999999960e-01 -1.145919999999999994e-01 1.954670000000000019e-01 9.576700000000000490e-02 3.762299999999999672e-02 2.963569999999999816e-01 -1.910260000000000014e-01 -2.493410000000000071e-01 -2.383440000000000003e-01 1.059770000000000018e-01 -4.856099999999999861e-01 -1.874760000000000038e-01 1.251089999999999980e-01 -9.719999999999999474e-02 -5.267800000000000260e-02 1.323600000000000054e-01