0.000000000000000000e+00 2.032270000000000021e+00 9.365579999999999572e+00 -1.760000000000000009e+00 5.080680000000000085e+00 9.365579999999999572e+00 -3.520000000000000018e+00 8.129089999999999705e+00 9.365579999999999572e+00 3.520000000000000018e+00 2.032270000000000021e+00 9.365579999999999572e+00 1.760000000000000009e+00 5.080680000000000085e+00 9.365579999999999572e+00 0.000000000000000000e+00 8.129089999999999705e+00 9.365579999999999572e+00 7.040000000000000036e+00 2.032270000000000021e+00 9.365579999999999572e+00 5.280000000000000249e+00 5.080680000000000085e+00 9.365579999999999572e+00 3.520000000000000018e+00 8.129089999999999705e+00 9.365579999999999572e+00 5.280000000000000249e-01 2.032270000000000021e+00 1.701310000000000144e+01 -1.231999999999999984e+00 5.080680000000000085e+00 1.701310000000000144e+01 -2.991999999999999993e+00 8.129089999999999705e+00 1.701310000000000144e+01 4.048000000000000043e+00 2.032270000000000021e+00 1.701310000000000144e+01 2.287999999999999812e+00 5.080680000000000085e+00 1.701310000000000144e+01 5.280000000000000249e-01 8.129089999999999705e+00 1.701310000000000144e+01 7.567999999999999616e+00 2.032270000000000021e+00 1.701310000000000144e+01 5.807999999999999829e+00 5.080680000000000085e+00 1.701310000000000144e+01 4.048000000000000043e+00 8.129089999999999705e+00 1.701310000000000144e+01 0.000000000000000000e+00 2.032270000000000021e+00 1.298692999999999920e+01 -1.760000000000000009e+00 5.080680000000000085e+00 1.298692999999999920e+01 -3.520000000000000018e+00 8.129089999999999705e+00 1.298692999999999920e+01 3.520000000000000018e+00 2.032270000000000021e+00 1.298692999999999920e+01 1.760000000000000009e+00 5.080680000000000085e+00 1.298692999999999920e+01 0.000000000000000000e+00 8.129089999999999705e+00 1.298692999999999920e+01 7.040000000000000036e+00 2.032270000000000021e+00 1.298692999999999920e+01 5.280000000000000249e+00 5.080680000000000085e+00 1.298692999999999920e+01 3.520000000000000018e+00 8.129089999999999705e+00 1.298692999999999920e+01 5.280000000000000249e-01 2.032270000000000021e+00 2.063444000000000145e+01 -1.231999999999999984e+00 5.080680000000000085e+00 2.063444000000000145e+01 -2.991999999999999993e+00 8.129089999999999705e+00 2.063444000000000145e+01 4.048000000000000043e+00 2.032270000000000021e+00 2.063444000000000145e+01 2.287999999999999812e+00 5.080680000000000085e+00 2.063444000000000145e+01 5.280000000000000249e-01 8.129089999999999705e+00 2.063444000000000145e+01 7.567999999999999616e+00 2.032270000000000021e+00 2.063444000000000145e+01 5.807999999999999829e+00 5.080680000000000085e+00 2.063444000000000145e+01 4.048000000000000043e+00 8.129089999999999705e+00 2.063444000000000145e+01 0.000000000000000000e+00 0.000000000000000000e+00 1.117684999999999995e+01 -1.760000000000000009e+00 3.048410000000000064e+00 1.117684999999999995e+01 -3.520000000000000018e+00 6.096820000000000128e+00 1.117684999999999995e+01 3.520000000000000018e+00 0.000000000000000000e+00 1.117684999999999995e+01 1.760000000000000009e+00 3.048410000000000064e+00 1.117684999999999995e+01 0.000000000000000000e+00 6.096820000000000128e+00 1.117684999999999995e+01 7.040000000000000036e+00 0.000000000000000000e+00 1.117684999999999995e+01 5.280000000000000249e+00 3.048410000000000064e+00 1.117684999999999995e+01 3.520000000000000018e+00 6.096820000000000128e+00 1.117684999999999995e+01 5.280000000000000249e-01 0.000000000000000000e+00 1.882316000000000145e+01 -1.231999999999999984e+00 3.048410000000000064e+00 1.882316000000000145e+01 -2.991999999999999993e+00 6.096820000000000128e+00 1.882316000000000145e+01 4.048000000000000043e+00 0.000000000000000000e+00 1.882316000000000145e+01 2.287999999999999812e+00 3.048410000000000064e+00 1.882316000000000145e+01 5.280000000000000249e-01 6.096820000000000128e+00 1.882316000000000145e+01 7.567999999999999616e+00 0.000000000000000000e+00 1.882316000000000145e+01 5.807999999999999829e+00 3.048410000000000064e+00 1.882316000000000145e+01 4.048000000000000043e+00 6.096820000000000128e+00 1.882316000000000145e+01
5.199999999999999544e-04 2.030050000000000132e+00 9.362980000000000302e+00 -1.758790000000000076e+00 5.077880000000000393e+00 9.365460000000000562e+00 -3.520570000000000199e+00 8.128519999999999968e+00 9.363080000000000069e+00 3.516399999999999970e+00 2.031089999999999840e+00 9.365579999999999572e+00 1.761149999999999993e+00 5.080779999999999852e+00 9.366749999999999687e+00 -2.409999999999999816e-03 8.129609999999999559e+00 9.366170000000000329e+00 7.040280000000000094e+00 2.033360000000000056e+00 9.364940000000000708e+00 5.280269999999999797e+00 5.080910000000000259e+00 9.365850000000000009e+00 3.520179999999999865e+00 8.126219999999999999e+00 9.364890000000000825e+00 5.295600000000000307e-01 2.029830000000000023e+00 1.701660000000000039e+01 -1.230499999999999927e+00 5.083490000000000286e+00 1.701477999999999824e+01 -2.991999999999999993e+00 8.127409999999999357e+00 1.701339000000000112e+01 4.048250000000000348e+00 2.030580000000000052e+00 1.701334999999999908e+01 2.291230000000000100e+00 5.078570000000000029e+00 1.701172000000000040e+01 5.250599999999999712e-01 8.129030000000000200e+00 1.701216000000000150e+01 7.568529999999999980e+00 2.033220000000000027e+00 1.701350000000000051e+01 5.809260000000000090e+00 5.080390000000000406e+00 1.701441000000000159e+01 4.049319999999999808e+00 8.131520000000000081e+00 1.701401999999999859e+01 -3.499999999999999964e-04 2.031620000000000203e+00 1.298310000000000031e+01 -1.762629999999999919e+00 5.081479999999999997e+00 1.298731000000000080e+01 -3.517999999999999794e+00 8.129609999999999559e+00 1.298620000000000019e+01 3.519709999999999894e+00 2.033339999999999925e+00 1.298736000000000068e+01 1.756559999999999899e+00 5.081389999999999851e+00 1.298842999999999925e+01 3.099999999999999999e-04 8.129770000000000607e+00 1.298615999999999993e+01 7.041059999999999874e+00 2.032680000000000042e+00 1.298639999999999972e+01 5.280949999999999811e+00 5.081279999999999575e+00 1.298630999999999958e+01 3.518949999999999800e+00 8.128410000000000579e+00 1.299088000000000065e+01 5.263999999999999790e-01 2.031080000000000219e+00 2.063551000000000002e+01 -1.232140000000000013e+00 5.084839999999999804e+00 2.063544999999999874e+01 -2.991080000000000183e+00 8.126910000000000522e+00 2.063457999999999970e+01 4.046100000000000030e+00 2.031499999999999861e+00 2.063343000000000060e+01 2.288359999999999950e+00 5.083090000000000330e+00 2.063616999999999990e+01 5.273999999999999799e-01 8.129070000000000462e+00 2.063913000000000153e+01 7.569790000000000241e+00 2.033710000000000129e+00 2.063136000000000081e+01 5.808600000000000207e+00 5.080530000000000435e+00 2.063365999999999900e+01 4.046630000000000393e+00 8.130599999999999383e+00 2.063402999999999921e+01 6.400000000000000524e-04 9.100000000000000016e-04 1.117761999999999922e+01 -1.761319999999999997e+00 3.052169999999999828e+00 1.117741000000000007e+01 -3.519530000000000047e+00 6.096180000000000376e+00 1.117469999999999963e+01 -1.762000000000000011e+00 9.145170000000000243e+00 1.117533000000000065e+01 1.760010000000000074e+00 3.047109999999999985e+00 1.117661999999999978e+01 4.800000000000000122e-04 6.095939999999999692e+00 1.117812999999999946e+01 1.759489999999999998e+00 9.144489999999999341e+00 1.117604000000000042e+01 5.279530000000000278e+00 3.052090000000000192e+00 1.117660000000000053e+01 3.519559999999999800e+00 6.092550000000000132e+00 1.117516999999999960e+01 -4.752609999999999779e+00 9.142139999999999489e+00 1.882301999999999964e+01 -1.229740000000000055e+00 3.049500000000000099e+00 1.882251000000000118e+01 -2.987810000000000077e+00 6.099529999999999674e+00 1.882143999999999906e+01 -1.233119999999999994e+00 9.144389999999999574e+00 1.882218999999999909e+01 2.288190000000000168e+00 3.047829999999999817e+00 1.882364000000000104e+01 5.252799999999999692e-01 6.097480000000000011e+00 1.882311999999999941e+01 2.290579999999999838e+00 9.143259999999999721e+00 1.882665000000000077e+01 5.808769999999999989e+00 3.050349999999999895e+00 1.882318000000000069e+01 4.047780000000000378e+00 6.098019999999999996e+00 1.882040999999999897e+01
1.039999999999999909e-03 2.027839999999999865e+00 9.360379999999999256e+00 -1.757589999999999986e+00 5.075079999999999814e+00 9.365349999999999397e+00 -3.521150000000000002e+00 8.127950000000000230e+00 9.360580000000000567e+00 3.512799999999999923e+00 2.029920000000000169e+00 9.365569999999999951e+00 1.762299999999999978e+00 5.080860000000000376e+00 9.367919999999999803e+00 -4.819999999999999632e-03 8.130119999999999791e+00 9.366749999999999687e+00 7.040560000000000151e+00 2.034440000000000026e+00 9.364309999999999690e+00 5.280540000000000234e+00 5.081129999999999924e+00 9.366110000000000824e+00 3.520360000000000156e+00 8.123350000000000293e+00 9.364209999999999923e+00 5.311200000000000365e-01 2.027379999999999960e+00 1.702008999999999972e+01 -1.228990000000000027e+00 5.086280000000000356e+00 1.701645999999999859e+01 -2.991999999999999993e+00 8.125719999999999388e+00 1.701368000000000080e+01 4.048499999999999766e+00 2.028900000000000148e+00 1.701360000000000028e+01 2.294459999999999944e+00 5.076450000000000351e+00 1.701033999999999935e+01 5.221400000000000485e-01 8.128970000000000695e+00 1.701123000000000118e+01 7.569069999999999965e+00 2.034170000000000034e+00 1.701391999999999882e+01 5.810529999999999973e+00 5.080110000000000348e+00 1.701570999999999856e+01 4.050650000000000084e+00 8.133940000000000836e+00 1.701492999999999967e+01 -7.100000000000000191e-04 2.030969999999999942e+00 1.297927999999999926e+01 -1.765269999999999895e+00 5.082270000000000287e+00 1.298769000000000062e+01 -3.516010000000000080e+00 8.130119999999999791e+00 1.298546999999999940e+01 3.519420000000000215e+00 2.034409999999999830e+00 1.298779000000000039e+01 1.753120000000000012e+00 5.082099999999999618e+00 1.298994000000000071e+01 5.999999999999999474e-04 8.130449999999999733e+00 1.298539000000000065e+01 7.042099999999999582e+00 2.033090000000000064e+00 1.298587000000000025e+01 5.281889999999999752e+00 5.081879999999999953e+00 1.298569999999999958e+01 3.517889999999999961e+00 8.127729999999999677e+00 1.299480999999999931e+01 5.248099999999999987e-01 2.029889999999999972e+00 2.063657999999999859e+01 -1.232280000000000042e+00 5.088989999999999903e+00 2.063644999999999996e+01 -2.990169999999999995e+00 8.124729999999999563e+00 2.063472000000000151e+01 4.044209999999999638e+00 2.030720000000000081e+00 2.063242999999999938e+01 2.288720000000000088e+00 5.085499999999999687e+00 2.063787999999999911e+01 5.268000000000000460e-01 8.129039999999999822e+00 2.064380999999999844e+01 7.571579999999999977e+00 2.035149999999999793e+00 2.062828000000000017e+01 5.809199999999999697e+00 5.080390000000000406e+00 2.063287000000000049e+01 4.045270000000000366e+00 8.132099999999999440e+00 2.063363000000000014e+01 1.270000000000000078e-03 1.789999999999999925e-03 1.117839000000000027e+01 -1.762639999999999985e+00 3.055899999999999839e+00 1.117794999999999916e+01 -3.519060000000000077e+00 6.095550000000000246e+00 1.117256000000000071e+01 -1.763989999999999947e+00 9.145120000000000360e+00 1.117381999999999920e+01 1.760000000000000009e+00 3.045830000000000037e+00 1.117637999999999998e+01 9.399999999999999719e-04 6.095069999999999766e+00 1.117941000000000074e+01 1.758979999999999988e+00 9.143750000000000711e+00 1.117524000000000051e+01 5.279060000000000308e+00 3.055750000000000188e+00 1.117634999999999934e+01 3.519120000000000026e+00 6.088309999999999889e+00 1.117352999999999952e+01 -4.753210000000000157e+00 9.139049999999999230e+00 1.882289000000000101e+01 -1.227479999999999905e+00 3.050600000000000200e+00 1.882188000000000017e+01 -2.983639999999999848e+00 6.102219999999999978e+00 1.881973999999999947e+01 -1.234229999999999938e+00 9.143549999999999400e+00 1.882122999999999990e+01 2.288380000000000081e+00 3.047260000000000080e+00 1.882413999999999987e+01 5.225999999999999535e-01 6.098150000000000404e+00 1.882309000000000054e+01 2.293130000000000113e+00 9.141299999999999315e+00 1.883012000000000086e+01 5.809529999999999639e+00 3.052270000000000039e+00 1.882319999999999993e+01 4.047559999999999825e+00 6.099230000000000373e+00 1.881767999999999930e+01
1.549999999999999946e-03 2.025640000000000107e+00 9.357810000000000628e+00 -1.756380000000000052e+00 5.072300000000000253e+00 9.365220000000000766e+00 -3.521729999999999805e+00 8.127380000000000493e+00 9.358100000000000307e+00 3.509230000000000071e+00 2.028750000000000053e+00 9.365569999999999951e+00 1.763430000000000053e+00 5.080940000000000012e+00 9.369070000000000675e+00 -7.210000000000000263e-03 8.130620000000000402e+00 9.367340000000000444e+00 7.040840000000000209e+00 2.035530000000000062e+00 9.363690000000000069e+00 5.280820000000000292e+00 5.081360000000000099e+00 9.366350000000000620e+00 3.520540000000000003e+00 8.120490000000000208e+00 9.363540000000000418e+00 5.326899999999999968e-01 2.024939999999999962e+00 1.702355999999999980e+01 -1.227470000000000061e+00 5.089059999999999917e+00 1.701811000000000007e+01 -2.991989999999999927e+00 8.124060000000000059e+00 1.701395000000000124e+01 4.048770000000000202e+00 2.027219999999999800e+00 1.701386000000000109e+01 2.297680000000000167e+00 5.074349999999999916e+00 1.700898000000000110e+01 5.192499999999999893e-01 8.128909999999999414e+00 1.701032000000000011e+01 7.569630000000000081e+00 2.035099999999999909e+00 1.701434000000000069e+01 5.811819999999999986e+00 5.079839999999999911e+00 1.701700999999999908e+01 4.051969999999999850e+00 8.136340000000000572e+00 1.701583000000000112e+01 -1.080000000000000014e-03 2.030330000000000190e+00 1.297549000000000063e+01 -1.767900000000000027e+00 5.083070000000000199e+00 1.298808000000000007e+01 -3.514050000000000118e+00 8.130630000000000024e+00 1.298474000000000039e+01 3.519120000000000026e+00 2.035470000000000113e+00 1.298820000000000086e+01 1.749679999999999902e+00 5.082790000000000141e+00 1.299142999999999937e+01 8.800000000000000313e-04 8.131130000000000635e+00 1.298460999999999999e+01 7.043129999999999669e+00 2.033500000000000085e+00 1.298532999999999937e+01 5.282820000000000071e+00 5.082480000000000331e+00 1.298508999999999958e+01 3.516830000000000123e+00 8.127039999999999154e+00 1.299869999999999948e+01 5.232299999999999729e-01 2.028690000000000104e+00 2.063764000000000109e+01 -1.232420000000000071e+00 5.093119999999999870e+00 2.063746000000000080e+01 -2.989250000000000185e+00 8.122569999999999624e+00 2.063486999999999938e+01 4.042329999999999757e+00 2.029949999999999921e+00 2.063141999999999854e+01 2.289079999999999782e+00 5.087900000000000311e+00 2.063956999999999908e+01 5.261900000000000466e-01 8.129020000000000579e+00 2.064846000000000004e+01 7.573369999999999713e+00 2.036589999999999900e+00 2.062521999999999878e+01 5.809809999999999697e+00 5.080269999999999619e+00 2.063206999999999880e+01 4.043929999999999580e+00 8.133580000000000254e+00 2.063324000000000069e+01 1.879999999999999944e-03 2.639999999999999986e-03 1.117913000000000068e+01 -1.763929999999999998e+00 3.059579999999999966e+00 1.117847000000000079e+01 -3.518600000000000172e+00 6.094940000000000246e+00 1.117042999999999964e+01 -1.765959999999999974e+00 9.145080000000000098e+00 1.117233000000000054e+01 1.759980000000000100e+00 3.044570000000000221e+00 1.117614999999999981e+01 1.379999999999999933e-03 6.094210000000000349e+00 1.118065999999999960e+01 1.758490000000000109e+00 9.143019999999999925e+00 1.117442999999999920e+01 5.278579999999999828e+00 3.059349999999999792e+00 1.117609000000000030e+01 3.518679999999999808e+00 6.084109999999999907e+00 1.117192999999999969e+01 -4.753790000000000404e+00 9.135989999999999611e+00 1.882280000000000086e+01 -1.225240000000000107e+00 3.051730000000000054e+00 1.882125999999999877e+01 -2.979509999999999881e+00 6.104879999999999640e+00 1.881807999999999836e+01 -1.235319999999999974e+00 9.142709999999999226e+00 1.882030999999999921e+01 2.288580000000000059e+00 3.046699999999999964e+00 1.882464999999999833e+01 5.199799999999999978e-01 6.098830000000000418e+00 1.882308000000000092e+01 2.295619999999999994e+00 9.139359999999999928e+00 1.883352999999999966e+01 5.810290000000000177e+00 3.054159999999999986e+00 1.882322999999999880e+01 4.047349999999999781e+00 6.100430000000000241e+00 1.881500000000000128e+01
2.050000000000000173e-03 2.023460000000000036e+00 9.355270000000000863e+00 -1.755160000000000053e+00 5.069549999999999557e+00 9.365080000000000737e+00 -3.522310000000000052e+00 8.126810000000000755e+00 9.355620000000000047e+00 3.505689999999999973e+00 2.027600000000000069e+00 9.365560000000000329e+00 1.764539999999999997e+00 5.081000000000000405e+00 9.370219999999999771e+00 -9.599999999999999159e-03 8.131119999999999237e+00 9.367919999999999803e+00 7.041100000000000136e+00 2.036610000000000031e+00 9.363089999999999691e+00 5.281089999999999840e+00 5.081579999999999764e+00 9.366569999999999396e+00 3.520719999999999850e+00 8.117649999999999366e+00 9.362899999999999778e+00 5.342700000000000227e-01 2.022510000000000030e+00 1.702700000000000102e+01 -1.225940000000000030e+00 5.091809999999999725e+00 1.701971999999999952e+01 -2.991969999999999796e+00 8.122410000000000352e+00 1.701419999999999888e+01 4.049050000000000260e+00 2.025560000000000027e+00 1.701411999999999836e+01 2.300870000000000193e+00 5.072259999999999991e+00 1.700763999999999854e+01 5.164100000000000357e-01 8.128859999999999530e+00 1.700941999999999865e+01 7.570190000000000197e+00 2.036020000000000163e+00 1.701477999999999824e+01 5.813119999999999621e+00 5.079570000000000363e+00 1.701829000000000036e+01 4.053289999999999615e+00 8.138740000000000308e+00 1.701670999999999978e+01 -1.459999999999999926e-03 2.029710000000000125e+00 1.297173000000000087e+01 -1.770529999999999937e+00 5.083870000000000111e+00 1.298846999999999952e+01 -3.512109999999999843e+00 8.131130000000000635e+00 1.298399999999999999e+01 3.518810000000000215e+00 2.036529999999999951e+00 1.298860999999999954e+01 1.746269999999999989e+00 5.083459999999999646e+00 1.299291000000000018e+01 1.139999999999999954e-03 8.131809999999999761e+00 1.298382999999999932e+01 7.044130000000000003e+00 2.033910000000000107e+00 1.298479000000000028e+01 5.283739999999999881e+00 5.083090000000000330e+00 1.298447999999999958e+01 3.515760000000000218e+00 8.126329999999999387e+00 1.300253000000000014e+01 5.216699999999999671e-01 2.027499999999999858e+00 2.063868000000000080e+01 -1.232550000000000034e+00 5.097209999999999575e+00 2.063845999999999847e+01 -2.988350000000000062e+00 8.120419999999999305e+00 2.063502000000000081e+01 4.040470000000000006e+00 2.029189999999999827e+00 2.063042000000000087e+01 2.289429999999999854e+00 5.090300000000000047e+00 2.064123000000000019e+01 5.255900000000000016e-01 8.129009999999999181e+00 2.065306999999999960e+01 7.575149999999999828e+00 2.038040000000000074e+00 2.062218000000000018e+01 5.810419999999999696e+00 5.080160000000000231e+00 2.063126000000000104e+01 4.042600000000000193e+00 8.135030000000000427e+00 2.063288000000000011e+01 2.449999999999999921e-03 3.419999999999999863e-03 1.117984000000000044e+01 -1.765190000000000037e+00 3.063180000000000014e+00 1.117895000000000039e+01 -3.518139999999999823e+00 6.094350000000000378e+00 1.116831999999999958e+01 -1.767919999999999936e+00 9.145039999999999836e+00 1.117087000000000074e+01 1.759929999999999994e+00 3.043350000000000222e+00 1.117591000000000001e+01 1.789999999999999925e-03 6.093359999999999665e+00 1.118187999999999960e+01 1.758010000000000073e+00 9.142310000000000159e+00 1.117362999999999928e+01 5.278100000000000236e+00 3.062879999999999825e+00 1.117582999999999949e+01 3.518250000000000099e+00 6.080000000000000071e+00 1.117041000000000039e+01 -4.754330000000000389e+00 9.132939999999999614e+00 1.882274999999999920e+01 -1.223000000000000087e+00 3.052880000000000038e+00 1.882066999999999979e+01 -2.975439999999999863e+00 6.107479999999999798e+00 1.881646999999999892e+01 -1.236390000000000100e+00 9.141880000000000450e+00 1.881943000000000055e+01 2.288780000000000037e+00 3.046149999999999913e+00 1.882518999999999920e+01 5.174499999999999655e-01 6.099510000000000431e+00 1.882309000000000054e+01 2.298039999999999861e+00 9.137449999999999406e+00 1.883687000000000111e+01 5.811020000000000074e+00 3.056000000000000050e+00 1.882325000000000159e+01 4.047159999999999869e+00 6.101650000000000240e+00 1.881239000000000061e+01
2.520000000000000104e-03 2.021300000000000097e+00 9.352769999999999584e+00 -1.753940000000000055e+00 5.066840000000000011e+00 9.364929999999999310e+00 -3.522909999999999986e+00 8.126239999999999242e+00 9.353160000000000807e+00 3.502190000000000136e+00 2.026470000000000216e+00 9.365550000000000708e+00 1.765630000000000033e+00 5.081039999999999779e+00 9.371340000000000003e+00 -1.196000000000000014e-02 8.131600000000000605e+00 9.368499999999999162e+00 7.041360000000000063e+00 2.037679999999999936e+00 9.362500000000000711e+00 5.281360000000000277e+00 5.081789999999999807e+00 9.366749999999999687e+00 3.520910000000000206e+00 8.114810000000000301e+00 9.362289999999999779e+00 5.358500000000000485e-01 2.020090000000000163e+00 1.703040999999999983e+01 -1.224399999999999933e+00 5.094529999999999781e+00 1.702129000000000048e+01 -2.991950000000000109e+00 8.120779999999999887e+00 1.701441000000000159e+01 4.049339999999999939e+00 2.023909999999999876e+00 1.701438999999999879e+01 2.304019999999999957e+00 5.070190000000000197e+00 1.700631999999999877e+01 5.136199999999999655e-01 8.128809999999999647e+00 1.700855999999999923e+01 7.570780000000000065e+00 2.036919999999999842e+00 1.701522999999999897e+01 5.814440000000000275e+00 5.079329999999999679e+00 1.701953999999999922e+01 4.054590000000000138e+00 8.141109999999999403e+00 1.701755999999999958e+01 -1.869999999999999917e-03 2.029110000000000191e+00 1.296800999999999959e+01 -1.773150000000000004e+00 5.084690000000000154e+00 1.298887000000000036e+01 -3.510190000000000143e+00 8.131610000000000227e+00 1.298325999999999958e+01 3.518510000000000026e+00 2.037589999999999790e+00 1.298900000000000077e+01 1.742869999999999919e+00 5.084100000000000286e+00 1.299437999999999960e+01 1.369999999999999907e-03 8.132500000000000284e+00 1.298305000000000042e+01 7.045099999999999696e+00 2.034320000000000128e+00 1.298423000000000016e+01 5.284639999999999560e+00 5.083709999999999951e+00 1.298387999999999920e+01 3.514699999999999935e+00 8.125619999999999621e+00 1.300628999999999991e+01 5.201200000000000268e-01 2.026320000000000121e+00 2.063971000000000089e+01 -1.232679999999999998e+00 5.101270000000000415e+00 2.063945999999999970e+01 -2.987460000000000004e+00 8.118299999999999628e+00 2.063516999999999868e+01 4.038640000000000008e+00 2.028420000000000112e+00 2.062941999999999965e+01 2.289769999999999861e+00 5.092670000000000030e+00 2.064283999999999963e+01 5.249800000000000022e-01 8.128999999999999559e+00 2.065763000000000105e+01 7.576929999999999943e+00 2.039480000000000182e+00 2.061916000000000082e+01 5.811029999999999696e+00 5.080090000000000217e+00 2.063042000000000087e+01 4.041310000000000180e+00 8.136430000000000717e+00 2.063254999999999839e+01 2.990000000000000036e-03 4.129999999999999991e-03 1.118050000000000033e+01 -1.766410000000000036e+00 3.066689999999999916e+00 1.117938000000000009e+01 -3.517700000000000049e+00 6.093799999999999883e+00 1.116623000000000054e+01 -1.769840000000000080e+00 9.145009999999999195e+00 1.116943000000000019e+01 1.759859999999999980e+00 3.042170000000000041e+00 1.117566000000000059e+01 2.139999999999999975e-03 6.092520000000000380e+00 1.118305999999999933e+01 1.757549999999999946e+00 9.141619999999999635e+00 1.117284000000000077e+01 5.277599999999999625e+00 3.066310000000000091e+00 1.117554999999999943e+01 3.517819999999999947e+00 6.075969999999999871e+00 1.116899000000000086e+01 -4.754839999999999733e+00 9.129929999999999879e+00 1.882275999999999883e+01 -1.220790000000000042e+00 3.054079999999999906e+00 1.882010000000000005e+01 -2.971459999999999990e+00 6.110019999999999563e+00 1.881493000000000038e+01 -1.237430000000000030e+00 9.141049999999999898e+00 1.881861999999999924e+01 2.288969999999999949e+00 3.045619999999999994e+00 1.882575999999999894e+01 5.150299999999999878e-01 6.100200000000000067e+00 1.882311999999999941e+01 2.300349999999999895e+00 9.135569999999999524e+00 1.884009000000000000e+01 5.811740000000000350e+00 3.057770000000000099e+00 1.882328000000000046e+01 4.046979999999999578e+00 6.102870000000000239e+00 1.880986000000000047e+01
2.969999999999999984e-03 2.019179999999999975e+00 9.350310000000000343e+00 -1.752709999999999990e+00 5.064169999999999838e+00 9.364760000000000417e+00 -3.523509999999999920e+00 8.125669999999999504e+00 9.350720000000000809e+00 3.498730000000000118e+00 2.025370000000000115e+00 9.365529999999999688e+00 1.766690000000000094e+00 5.081059999999999910e+00 9.372429999999999595e+00 -1.430999999999999980e-02 8.132059999999999178e+00 9.369080000000000297e+00 7.041599999999999859e+00 2.038759999999999906e+00 9.361940000000000595e+00 5.281629999999999825e+00 5.082010000000000360e+00 9.366880000000000095e+00 3.521090000000000053e+00 8.112000000000000099e+00 9.361700000000000799e+00 5.374400000000000288e-01 2.017689999999999984e+00 1.703377000000000052e+01 -1.222839999999999927e+00 5.097209999999999575e+00 1.702279000000000053e+01 -2.991919999999999913e+00 8.119189999999999685e+00 1.701457999999999871e+01 4.049649999999999750e+00 2.022289999999999921e+00 1.701465999999999923e+01 2.307129999999999903e+00 5.068139999999999645e+00 1.700501999999999825e+01 5.109000000000000208e-01 8.128769999999999385e+00 1.700773999999999830e+01 7.571380000000000443e+00 2.037790000000000212e+00 1.701570999999999856e+01 5.815780000000000172e+00 5.079100000000000392e+00 1.702077999999999847e+01 4.055869999999999642e+00 8.143459999999999255e+00 1.701837000000000089e+01 -2.289999999999999935e-03 2.028529999999999944e+00 1.296433999999999997e+01 -1.775770000000000071e+00 5.085519999999999818e+00 1.298928000000000083e+01 -3.508319999999999883e+00 8.132080000000000197e+00 1.298251999999999917e+01 3.518209999999999837e+00 2.038640000000000008e+00 1.298936999999999919e+01 1.739509999999999890e+00 5.084719999999999906e+00 1.299583999999999939e+01 1.580000000000000024e-03 8.133190000000000808e+00 1.298226000000000013e+01 7.046030000000000015e+00 2.034730000000000150e+00 1.298365000000000080e+01 5.285519999999999996e+00 5.084349999999999703e+00 1.298329999999999984e+01 3.513640000000000096e+00 8.124879999999999214e+00 1.300996999999999915e+01 5.185899999999999954e-01 2.025129999999999875e+00 2.064073000000000135e+01 -1.232790000000000052e+00 5.105279999999999596e+00 2.064045000000000130e+01 -2.986569999999999947e+00 8.116199999999999193e+00 2.063532999999999973e+01 4.036830000000000140e+00 2.027670000000000083e+00 2.062841999999999842e+01 2.290099999999999802e+00 5.095040000000000013e+00 2.064440000000000097e+01 5.243600000000000483e-01 8.128989999999999938e+00 2.066212000000000160e+01 7.578700000000000436e+00 2.040929999999999911e+00 2.061617999999999995e+01 5.811650000000000205e+00 5.080049999999999955e+00 2.062956000000000145e+01 4.040040000000000298e+00 8.137790000000000745e+00 2.063224999999999909e+01 3.480000000000000020e-03 4.740000000000000289e-03 1.118111000000000033e+01 -1.767579999999999929e+00 3.070069999999999855e+00 1.117975999999999992e+01 -3.517259999999999831e+00 6.093300000000000161e+00 1.116416000000000075e+01 -1.771730000000000027e+00 9.144999999999999574e+00 1.116803999999999952e+01 1.759749999999999925e+00 3.041040000000000187e+00 1.117542000000000080e+01 2.439999999999999895e-03 6.091700000000000337e+00 1.118420000000000059e+01 1.757130000000000081e+00 9.140950000000000131e+00 1.117205000000000048e+01 5.277090000000000281e+00 3.069620000000000015e+00 1.117526999999999937e+01 3.517399999999999860e+00 6.072070000000000078e+00 1.116769999999999996e+01 -4.755289999999999573e+00 9.126939999999999387e+00 1.882284999999999897e+01 -1.218590000000000062e+00 3.055340000000000167e+00 1.881957999999999842e+01 -2.967569999999999819e+00 6.112470000000000070e+00 1.881346999999999881e+01 -1.238429999999999920e+00 9.140219999999999345e+00 1.881787999999999883e+01 2.289169999999999927e+00 3.045110000000000205e+00 1.882637000000000072e+01 5.127500000000000391e-01 6.100900000000000212e+00 1.882318000000000069e+01 2.302540000000000031e+00 9.133729999999999905e+00 1.884318999999999988e+01 5.812420000000000364e+00 3.059460000000000068e+00 1.882330999999999932e+01 4.046809999999999796e+00 6.104099999999999859e+00 1.880743999999999971e+01