7.799999999999999859e-04 2.229999999999999994e-04 5.824000000000000184e-03 7.780000000000000457e-04 2.280000000000000126e-04 5.824000000000000184e-03 7.780000000000000457e-04 2.239999999999999966e-04 5.825000000000000316e-03 7.770000000000000214e-04 2.249999999999999938e-04 5.824000000000000184e-03 7.810000000000000102e-04 2.249999999999999938e-04 5.820999999999999786e-03 7.789999999999999616e-04 2.259999999999999910e-04 5.825000000000000316e-03 7.770000000000000214e-04 2.239999999999999966e-04 5.821999999999999918e-03 7.780000000000000457e-04 2.269999999999999882e-04 5.824000000000000184e-03 7.799999999999999859e-04 2.249999999999999938e-04 5.823000000000000051e-03 2.961400000000000143e-02 -4.429999999999999802e-04 6.307000000000000106e-03 2.960700000000000137e-02 -4.400000000000000157e-04 6.305999999999999973e-03 2.960700000000000137e-02 -4.429999999999999802e-04 6.309999999999999637e-03 2.961000000000000090e-02 -4.420000000000000101e-04 6.309000000000000372e-03 2.960899999999999990e-02 -4.440000000000000045e-04 6.305999999999999973e-03 2.961099999999999843e-02 -4.409999999999999858e-04 6.305999999999999973e-03 2.960799999999999890e-02 -4.449999999999999746e-04 6.304999999999999841e-03 2.961199999999999943e-02 -4.409999999999999858e-04 6.309000000000000372e-03 2.961000000000000090e-02 -4.389999999999999914e-04 6.305999999999999973e-03 -2.959499999999999978e-02 -4.079999999999999968e-04 -6.518999999999999621e-03 -2.959699999999999831e-02 -4.020000000000000136e-04 -6.519999999999999754e-03 -2.959900000000000031e-02 -4.049999999999999781e-04 -6.518999999999999621e-03 -2.959799999999999931e-02 -4.070000000000000267e-04 -6.520999999999999887e-03 -2.960000000000000131e-02 -4.060000000000000024e-04 -6.518000000000000356e-03 -2.959900000000000031e-02 -4.060000000000000024e-04 -6.518999999999999621e-03 -2.959699999999999831e-02 -4.060000000000000024e-04 -6.517000000000000223e-03 -2.959900000000000031e-02 -4.020000000000000136e-04 -6.518000000000000356e-03 -2.959900000000000031e-02 -4.049999999999999781e-04 -6.516000000000000091e-03 -7.659999999999999708e-04 1.879999999999999890e-04 -5.955000000000000224e-03 -7.680000000000000195e-04 1.890000000000000133e-04 -5.956000000000000356e-03 -7.680000000000000195e-04 1.849999999999999973e-04 -5.955000000000000224e-03 -7.690000000000000438e-04 1.900000000000000105e-04 -5.956000000000000356e-03 -7.669999999999999951e-04 1.840000000000000001e-04 -5.951999999999999826e-03 -7.669999999999999951e-04 1.859999999999999945e-04 -5.954000000000000091e-03 -7.680000000000000195e-04 1.869999999999999917e-04 -5.956000000000000356e-03 -7.659999999999999708e-04 1.859999999999999945e-04 -5.955000000000000224e-03 -7.669999999999999951e-04 1.879999999999999890e-04 -5.955000000000000224e-03 -8.455999999999999975e-03 2.120000000000000031e-04 -8.554000000000000839e-03 -8.462000000000000771e-03 2.149999999999999947e-04 -8.552000000000000574e-03 -8.460999999999999771e-03 2.220000000000000022e-04 -8.555999999999999370e-03 -8.467999999999999833e-03 2.149999999999999947e-04 -8.552000000000000574e-03 -8.462000000000000771e-03 2.120000000000000031e-04 -8.550000000000000308e-03 -8.465000000000000302e-03 2.159999999999999919e-04 -8.552000000000000574e-03 -8.463000000000000037e-03 2.149999999999999947e-04 -8.554000000000000839e-03 -8.460999999999999771e-03 2.159999999999999919e-04 -8.550000000000000308e-03 -8.460999999999999771e-03 2.139999999999999975e-04 -8.552999999999999839e-03 8.479999999999999691e-03 2.229999999999999994e-04 8.876999999999999474e-03 8.477999999999999425e-03 2.280000000000000126e-04 8.881999999999999271e-03 8.477000000000000160e-03 2.290000000000000098e-04 8.876999999999999474e-03 8.479000000000000425e-03 2.210000000000000050e-04 8.876999999999999474e-03 8.479999999999999691e-03 2.249999999999999938e-04 8.876000000000000209e-03 8.474999999999999895e-03 2.229999999999999994e-04 8.878999999999999740e-03 8.479000000000000425e-03 2.229999999999999994e-04 8.876999999999999474e-03 8.481000000000000691e-03 2.280000000000000126e-04 8.881000000000000005e-03 8.479000000000000425e-03 2.259999999999999910e-04 8.874999999999999209e-03
-1.710100000000000162e-02 2.409000000000000030e-02 3.897199999999999970e-02 5.205000000000000425e-03 3.259000000000000091e-02 -8.040000000000000271e-03 -5.749999999999999903e-03 1.489000000000000089e-03 1.906800000000000161e-02 3.657099999999999934e-02 1.787199999999999900e-02 1.482999999999999943e-03 -2.119100000000000150e-02 -1.704299999999999912e-02 -1.299900000000000014e-02 1.612099999999999991e-02 -1.210899999999999997e-02 8.580000000000000387e-04 -9.457000000000000128e-03 -3.831999999999999903e-03 2.125200000000000006e-02 2.799999999999999958e-05 -2.805999999999999901e-03 -2.626500000000000015e-02 1.678000000000000021e-03 1.494000000000000015e-02 2.878700000000000009e-02 2.555899999999999839e-02 1.050599999999999971e-02 -2.895400000000000057e-02 3.167799999999999783e-02 -2.980800000000000116e-02 -3.781199999999999839e-02 2.680199999999999944e-02 2.093100000000000169e-02 -2.313000000000000125e-02 3.250299999999999717e-02 1.554299999999999952e-02 7.590999999999999658e-03 -1.137499999999999969e-02 1.643299999999999969e-02 2.496100000000000055e-02 7.203199999999999881e-02 5.708999999999999665e-03 3.069600000000000106e-02 3.560399999999999676e-02 -1.799999999999999864e-02 2.073900000000000049e-02 3.697999999999999898e-02 1.376100000000000066e-02 -1.385199999999999973e-02 9.620000000000000079e-03 -1.918500000000000066e-02 -2.077199999999999880e-02 -3.571900000000000075e-02 1.659400000000000111e-02 3.300100000000000255e-02 -1.354499999999999975e-02 6.771000000000000109e-03 2.588000000000000023e-03 -4.816399999999999848e-02 -1.158700000000000008e-02 -7.675000000000000398e-03 -2.169400000000000148e-02 -5.814999999999999857e-03 -1.910500000000000045e-02 2.709999999999999735e-04 -2.350100000000000106e-02 -1.670599999999999863e-02 -4.126599999999999713e-02 2.900999999999999933e-03 -9.393999999999999573e-03 -4.767300000000000010e-02 1.041999999999999958e-03 -1.551800000000000054e-02 -3.621900000000000119e-02 7.356999999999999824e-03 2.073000000000000190e-03 -2.031700000000000172e-02 -1.352300000000000030e-02 -7.047399999999999498e-02 1.642199999999999910e-02 2.664000000000000135e-03 -1.840899999999999828e-02 4.944999999999999743e-03 -3.660599999999999965e-02 -8.042999999999999802e-03 -9.183000000000000190e-03 2.090099999999999944e-02 -6.059999999999999849e-04 2.079399999999999998e-02 5.465000000000000240e-03 -2.121000000000000055e-03 -6.836000000000000063e-03 -1.264799999999999952e-02 -4.430400000000000310e-02 -2.968000000000000152e-03 4.942000000000000212e-03 -5.313400000000000067e-02 -7.514999999999999979e-03 1.526000000000000013e-03 2.060199999999999879e-02 2.683000000000000055e-03 2.508700000000000166e-02 -2.173900000000000138e-02 2.264899999999999899e-02 -3.547100000000000253e-02 1.996799999999999964e-02 -3.190699999999999786e-02 -5.102199999999999791e-02 -3.431399999999999728e-02 2.238199999999999912e-02 -6.504699999999999371e-02 -3.851199999999999762e-02 -1.212099999999999983e-02 2.241599999999999843e-02 9.763000000000000844e-03 1.344500000000000035e-02 6.973000000000000032e-03 1.589899999999999994e-02 -2.577600000000000030e-02 2.961599999999999996e-02 -8.661000000000000296e-03 -3.607699999999999796e-02 9.490000000000000172e-03 -3.202599999999999891e-02 8.782999999999999141e-03 1.276099999999999977e-02 -2.236000000000000140e-03 -1.313500000000000084e-02 -6.408200000000000007e-02 -1.235699999999999993e-02 -2.596999999999999916e-03 6.407200000000000395e-02 5.977799999999999780e-02 3.197400000000000242e-02 2.049000000000000127e-02 4.526399999999999868e-02 -6.810000000000000081e-03 2.790099999999999872e-02 2.708199999999999844e-02 -4.906200000000000144e-02 -4.518599999999999700e-02 5.176700000000000051e-02 2.716199999999999865e-02 2.814999999999999794e-03 4.664499999999999896e-02 6.163000000000000075e-03 1.191700000000000051e-02 2.709900000000000156e-02 8.125300000000000578e-02 5.892999999999999801e-03 2.243099999999999955e-02 -6.207300000000000317e-02 2.284699999999999925e-02 -6.288100000000000633e-02 -9.738000000000000128e-03 -4.366099999999999842e-02 7.893000000000000710e-03 1.620299999999999865e-02 4.593999999999999993e-03 6.373099999999999599e-02
-3.439299999999999996e-02 4.735899999999999832e-02 7.128600000000000214e-02 9.502000000000000030e-03 6.505800000000000471e-02 -2.227200000000000013e-02 -1.216800000000000000e-02 2.690000000000000117e-03 3.205999999999999822e-02 7.189800000000000357e-02 3.527600000000000180e-02 -3.340999999999999786e-03 -4.333200000000000246e-02 -3.438100000000000184e-02 -3.207800000000000235e-02 3.144799999999999679e-02 -2.433400000000000146e-02 -4.261000000000000031e-03 -1.959800000000000084e-02 -7.898999999999999772e-03 3.641199999999999992e-02 -7.429999999999999539e-04 -5.771000000000000088e-03 -5.842200000000000171e-02 2.428000000000000037e-03 2.943499999999999936e-02 5.136000000000000287e-02 2.153700000000000059e-02 2.140500000000000042e-02 -6.399799999999999933e-02 3.371400000000000091e-02 -5.924999999999999711e-02 -8.227500000000000091e-02 2.392599999999999935e-02 4.254999999999999755e-02 -5.275799999999999934e-02 3.522200000000000331e-02 3.146000000000000185e-02 8.841999999999999166e-03 -5.156199999999999672e-02 3.284600000000000020e-02 4.297299999999999731e-02 1.134919999999999957e-01 1.139300000000000035e-02 5.414900000000000269e-02 4.152499999999999941e-02 -3.498099999999999821e-02 3.469599999999999768e-02 4.423400000000000248e-02 2.797799999999999940e-02 -3.392499999999999682e-02 -1.049899999999999965e-02 -3.786199999999999982e-02 -4.803099999999999731e-02 -4.186700000000000144e-02 3.368800000000000266e-02 7.254700000000000037e-02 2.429000000000000169e-03 1.390399999999999969e-02 1.165799999999999996e-02 -6.668100000000000416e-02 -2.263300000000000034e-02 -8.635999999999999580e-03 -1.390599999999999996e-02 -1.110399999999999929e-02 -3.150900000000000228e-02 2.992500000000000021e-02 -4.639000000000000068e-02 -2.637499999999999914e-02 -5.270699999999999691e-02 6.152999999999999615e-03 -1.219499999999999924e-02 -6.554699999999999416e-02 2.390999999999999896e-03 -2.433799999999999852e-02 -4.267499999999999766e-02 1.508999999999999925e-02 1.073099999999999922e-02 -1.122500000000000060e-02 -2.588800000000000129e-02 -1.327990000000000004e-01 3.348000000000000281e-02 5.185000000000000372e-03 -3.055700000000000083e-02 1.068999999999999985e-02 -7.292200000000000071e-02 -9.679000000000000103e-03 -1.750600000000000073e-02 4.156900000000000178e-02 5.124000000000000082e-03 4.222499999999999865e-02 1.064299999999999968e-02 1.979999999999999989e-03 -1.278699999999999976e-02 -2.528400000000000092e-02 -8.196199999999999319e-02 -4.852999999999999675e-03 9.646000000000000060e-03 -9.935399999999999787e-02 -1.419600000000000029e-02 2.867000000000000191e-03 4.713200000000000028e-02 5.957999999999999755e-03 4.960699999999999832e-02 -3.683700000000000169e-02 4.644600000000000117e-02 -7.109600000000000641e-02 4.665600000000000303e-02 -5.481099999999999861e-02 -1.017959999999999976e-01 -6.003399999999999709e-02 5.233399999999999858e-02 -1.297899999999999887e-01 -6.716999999999999360e-02 -1.569900000000000115e-02 4.442100000000000215e-02 2.796799999999999981e-02 3.505899999999999989e-02 1.369800000000000011e-02 4.009000000000000064e-02 -4.291600000000000276e-02 5.877799999999999692e-02 -8.710000000000000728e-03 -6.347200000000000064e-02 1.871600000000000000e-02 -5.522799999999999931e-02 2.572199999999999834e-02 2.521800000000000083e-02 3.967000000000000040e-03 -1.755500000000000116e-02 -1.278779999999999917e-01 -1.578099999999999989e-02 3.410999999999999970e-03 1.268940000000000068e-01 1.270789999999999975e-01 5.551999999999999991e-02 4.046500000000000097e-02 8.131499999999999839e-02 -2.186400000000000149e-02 5.506500000000000283e-02 4.473900000000000099e-02 -1.060870000000000007e-01 -9.044499999999999762e-02 9.427499999999999769e-02 4.528800000000000187e-02 5.538000000000000388e-03 8.370700000000000363e-02 3.975000000000000235e-03 2.354499999999999996e-02 4.465199999999999725e-02 1.532239999999999991e-01 1.182500000000000044e-02 3.635300000000000337e-02 -1.318269999999999997e-01 4.565700000000000314e-02 -1.338630000000000098e-01 -2.772799999999999918e-02 -8.709100000000000175e-02 6.762999999999999914e-03 2.376400000000000040e-02 8.748999999999999833e-03 1.176900000000000029e-01
-5.103200000000000097e-02 6.995500000000000329e-02 1.026240000000000069e-01 1.355600000000000034e-02 9.757899999999999907e-02 -3.676800000000000207e-02 -1.836600000000000038e-02 3.863000000000000114e-03 4.484400000000000192e-02 1.067079999999999973e-01 5.237800000000000095e-02 -8.640000000000000110e-03 -6.557000000000000328e-02 -5.158700000000000091e-02 -5.127799999999999719e-02 4.681300000000000044e-02 -3.638700000000000268e-02 -9.516999999999999418e-03 -2.960499999999999937e-02 -1.205400000000000048e-02 5.110800000000000065e-02 -1.577999999999999976e-03 -8.656000000000000499e-03 -9.030799999999999939e-02 2.935000000000000109e-03 4.372899999999999704e-02 7.334400000000000641e-02 1.744800000000000170e-02 3.231699999999999851e-02 -9.873099999999999932e-02 3.565100000000000213e-02 -8.871900000000000619e-02 -1.268150000000000110e-01 2.101899999999999949e-02 6.436899999999999566e-02 -8.214200000000000668e-02 3.773699999999999971e-02 4.726000000000000340e-02 1.003399999999999952e-02 -9.079700000000000271e-02 4.882999999999999841e-02 6.022000000000000269e-02 1.539089999999999903e-01 1.665799999999999920e-02 7.653600000000000680e-02 4.734700000000000020e-02 -5.131899999999999656e-02 4.803799999999999737e-02 5.121799999999999964e-02 4.210699999999999860e-02 -5.381400000000000072e-02 -3.068699999999999900e-02 -5.645100000000000118e-02 -7.518400000000000083e-02 -4.798700000000000188e-02 5.067100000000000076e-02 1.120789999999999981e-01 1.836199999999999985e-02 2.084700000000000095e-02 2.051199999999999898e-02 -8.519200000000000383e-02 -3.348000000000000281e-02 -9.357000000000000733e-03 -6.310999999999999770e-03 -1.628800000000000039e-02 -4.359699999999999687e-02 5.930900000000000061e-02 -6.895999999999999353e-02 -3.551300000000000290e-02 -6.387800000000000422e-02 9.291999999999999912e-03 -1.484800000000000009e-02 -8.315799999999999581e-02 3.615999999999999857e-03 -3.279200000000000170e-02 -4.895000000000000046e-02 2.266599999999999865e-02 1.944699999999999901e-02 -2.311000000000000120e-03 -3.737999999999999656e-02 -1.931960000000000066e-01 5.038600000000000023e-02 7.804000000000000173e-03 -4.225199999999999789e-02 1.648600000000000065e-02 -1.087619999999999976e-01 -1.081000000000000016e-02 -2.571299999999999975e-02 6.218900000000000122e-02 1.121199999999999974e-02 6.353399999999999326e-02 1.572899999999999993e-02 6.537000000000000276e-03 -1.851500000000000021e-02 -3.780300000000000327e-02 -1.184989999999999932e-01 -6.347000000000000211e-03 1.436699999999999956e-02 -1.445160000000000056e-01 -2.088100000000000026e-02 4.087000000000000355e-03 7.362399999999999500e-02 8.984999999999999931e-03 7.352899999999999714e-02 -5.100799999999999779e-02 7.045400000000000273e-02 -1.064449999999999980e-01 7.388300000000000423e-02 -7.694900000000000351e-02 -1.517479999999999940e-01 -8.551499999999999380e-02 8.122000000000000053e-02 -1.936390000000000056e-01 -9.438499999999999668e-02 -1.910699999999999898e-02 6.601899999999999435e-02 4.594000000000000167e-02 5.621400000000000008e-02 2.032700000000000132e-02 6.382200000000000373e-02 -5.971699999999999925e-02 8.749500000000000333e-02 -8.727000000000000382e-03 -9.046700000000000574e-02 2.791300000000000031e-02 -7.803100000000000314e-02 4.225899999999999795e-02 3.741799999999999987e-02 1.001100000000000080e-02 -2.166399999999999923e-02 -1.907860000000000111e-01 -1.885900000000000076e-02 9.442000000000000740e-03 1.884049999999999891e-01 1.927899999999999892e-01 7.892699999999999716e-02 6.015500000000000014e-02 1.166930000000000051e-01 -3.670600000000000251e-02 8.134900000000000464e-02 6.170300000000000090e-02 -1.623209999999999931e-01 -1.352299999999999891e-01 1.360490000000000033e-01 6.268500000000000461e-02 8.276999999999999635e-03 1.197570000000000023e-01 1.941999999999999933e-03 3.496799999999999908e-02 6.138199999999999906e-02 2.238890000000000047e-01 1.805100000000000107e-02 5.050000000000000322e-02 -2.002950000000000008e-01 6.864800000000000069e-02 -2.036129999999999884e-01 -4.541400000000000298e-02 -1.298090000000000077e-01 5.509000000000000008e-03 3.119600000000000151e-02 1.263399999999999940e-02 1.703639999999999877e-01
-6.693699999999999650e-02 9.174100000000000310e-02 1.328729999999999911e-01 1.725799999999999904e-02 1.300020000000000064e-01 -5.145399999999999974e-02 -2.425499999999999878e-02 5.030999999999999882e-03 5.738499999999999851e-02 1.408369999999999900e-01 6.911499999999999588e-02 -1.437800000000000016e-02 -8.773799999999999655e-02 -6.845999999999999308e-02 -7.043900000000000161e-02 6.219999999999999835e-02 -4.818900000000000267e-02 -1.489700000000000052e-02 -3.942199999999999871e-02 -1.633000000000000076e-02 6.522300000000000320e-02 -2.543999999999999821e-03 -1.144099999999999978e-02 -1.216020000000000018e-01 3.138999999999999863e-03 5.774699999999999972e-02 9.458400000000000141e-02 1.326699999999999928e-02 4.325199999999999878e-02 -1.329150000000000054e-01 3.747500000000000137e-02 -1.180029999999999968e-01 -1.710510000000000086e-01 1.814100000000000087e-02 8.622699999999999809e-02 -1.109480000000000049e-01 3.996500000000000052e-02 6.285599999999999521e-02 1.120999999999999948e-02 -1.288549999999999973e-01 6.439000000000000279e-02 7.677399999999999503e-02 1.930610000000000104e-01 2.145899999999999891e-02 9.774099999999999455e-02 5.306199999999999806e-02 -6.688199999999999701e-02 6.066200000000000064e-02 5.779999999999999721e-02 5.605399999999999966e-02 -7.334499999999999353e-02 -5.081700000000000106e-02 -7.490900000000000336e-02 -1.019790000000000002e-01 -5.403700000000000170e-02 6.735099999999999421e-02 1.513909999999999978e-01 3.420600000000000029e-02 2.745200000000000071e-02 2.898500000000000035e-02 -1.036460000000000020e-01 -4.406000000000000194e-02 -9.804000000000000214e-03 9.899999999999999946e-04 -2.135300000000000045e-02 -5.532399999999999818e-02 8.824799999999999311e-02 -9.105499999999999705e-02 -4.413000000000000256e-02 -7.469299999999999551e-02 1.227100000000000066e-02 -1.733200000000000018e-02 -1.003870000000000040e-01 4.708000000000000379e-03 -4.086900000000000255e-02 -5.497900000000000009e-02 2.994300000000000087e-02 2.815300000000000094e-02 6.368999999999999662e-03 -4.791000000000000120e-02 -2.513819999999999943e-01 6.706199999999999661e-02 1.056799999999999927e-02 -5.341599999999999820e-02 2.237000000000000099e-02 -1.439680000000000126e-01 -1.145599999999999917e-02 -3.374300000000000216e-02 8.263900000000000412e-02 1.772999999999999923e-02 8.464900000000000202e-02 2.071699999999999930e-02 1.165300000000000016e-02 -2.392400000000000082e-02 -5.019200000000000050e-02 -1.536869999999999903e-01 -7.411000000000000053e-03 1.909500000000000086e-02 -1.884250000000000091e-01 -2.756400000000000169e-02 5.114999999999999755e-03 1.000120000000000037e-01 1.169399999999999953e-02 9.664899999999999880e-02 -6.410100000000000520e-02 9.442499999999999505e-02 -1.412599999999999967e-01 1.014479999999999965e-01 -9.816600000000000326e-02 -2.004569999999999963e-01 -1.105529999999999985e-01 1.088059999999999999e-01 -2.561050000000000271e-01 -1.199349999999999999e-01 -2.230700000000000044e-02 8.698100000000000276e-02 6.352499999999999813e-02 7.673699999999999966e-02 2.684200000000000128e-02 8.687100000000000377e-02 -7.601499999999999924e-02 1.155290000000000067e-01 -8.713999999999999524e-03 -1.168290000000000023e-01 3.700300000000000117e-02 -1.002770000000000050e-01 5.827999999999999847e-02 4.926099999999999923e-02 1.583899999999999891e-02 -2.541699999999999862e-02 -2.523179999999999867e-01 -2.161300000000000027e-02 1.539699999999999923e-02 2.481869999999999910e-01 2.562749999999999750e-01 1.019850000000000062e-01 7.950000000000000122e-02 1.510029999999999983e-01 -5.122299999999999770e-02 1.064920000000000033e-01 7.783199999999999841e-02 -2.173339999999999994e-01 -1.791959999999999942e-01 1.766439999999999955e-01 7.922800000000000675e-02 1.095899999999999999e-02 1.544659999999999922e-01 7.700000000000000139e-05 4.613199999999999940e-02 7.707200000000000162e-02 2.927100000000000257e-01 2.448900000000000035e-02 6.467299999999999438e-02 -2.669139999999999846e-01 9.164700000000000624e-02 -2.715409999999999768e-01 -6.268100000000000060e-02 -1.714299999999999990e-01 4.118000000000000133e-03 3.845699999999999813e-02 1.615000000000000116e-02 2.212969999999999937e-01
-8.204500000000000681e-02 1.125889999999999946e-01 1.619359999999999966e-01 2.050899999999999945e-02 1.621799999999999908e-01 -6.623199999999999921e-02 -2.974699999999999914e-02 6.217000000000000304e-03 6.967600000000000182e-02 1.741449999999999942e-01 8.542600000000000193e-02 -2.047399999999999914e-02 -1.096720000000000056e-01 -8.479899999999999938e-02 -8.938699999999999424e-02 7.759499999999999731e-02 -5.966099999999999876e-02 -2.036400000000000016e-02 -4.900399999999999895e-02 -2.077100000000000127e-02 7.865099999999999869e-02 -3.700999999999999863e-03 -1.411699999999999934e-02 -1.519600000000000117e-01 2.981999999999999842e-03 7.143499999999999850e-02 1.149489999999999956e-01 8.975000000000000339e-03 5.421000000000000124e-02 -1.663080000000000114e-01 3.917699999999999655e-02 -1.468929999999999958e-01 -2.146119999999999972e-01 1.533600000000000067e-02 1.079709999999999975e-01 -1.388340000000000130e-01 4.184999999999999831e-02 7.818200000000000149e-02 1.241199999999999942e-02 -1.655349999999999877e-01 7.952099999999999447e-02 9.266299999999999537e-02 2.307919999999999972e-01 2.577799999999999883e-02 1.176719999999999988e-01 5.864699999999999774e-02 -8.157599999999999574e-02 7.250800000000000300e-02 6.385200000000000597e-02 6.969499999999999307e-02 -9.235899999999999666e-02 -7.076599999999999557e-02 -9.316499999999999782e-02 -1.281579999999999941e-01 -5.997000000000000247e-02 8.350799999999999890e-02 1.902989999999999959e-01 4.992100000000000010e-02 3.358499999999999680e-02 3.692899999999999655e-02 -1.220109999999999945e-01 -5.430000000000000104e-02 -9.960000000000000103e-03 7.913999999999999160e-03 -2.628499999999999934e-02 -6.664200000000000679e-02 1.165970000000000062e-01 -1.125300000000000050e-01 -5.220899999999999846e-02 -8.508100000000000385e-02 1.506000000000000047e-02 -1.962900000000000061e-02 -1.171399999999999941e-01 5.649999999999999641e-03 -4.853099999999999775e-02 -6.070099999999999801e-02 3.679099999999999732e-02 3.679299999999999932e-02 1.478499999999999953e-02 -5.740200000000000163e-02 -3.071360000000000201e-01 8.344600000000000628e-02 1.352300000000000030e-02 -6.397999999999999521e-02 2.838500000000000051e-02 -1.784179999999999933e-01 -1.163499999999999951e-02 -4.154999999999999666e-02 1.028109999999999996e-01 2.472399999999999945e-02 1.055169999999999997e-01 2.562599999999999947e-02 1.740900000000000086e-02 -2.894100000000000145e-02 -6.246600000000000069e-02 -1.872800000000000020e-01 -7.997999999999999901e-03 2.382899999999999949e-02 -2.309319999999999984e-01 -3.427600000000000091e-02 5.859999999999999758e-03 1.261829999999999896e-01 1.403199999999999933e-02 1.187529999999999974e-01 -7.598900000000000099e-02 1.180920000000000025e-01 -1.752529999999999921e-01 1.291019999999999945e-01 -1.183059999999999945e-01 -2.475130000000000108e-01 -1.348999999999999921e-01 1.348840000000000039e-01 -3.167170000000000263e-01 -1.436260000000000037e-01 -2.526099999999999873e-02 1.071040000000000048e-01 8.058300000000000185e-02 9.646200000000000607e-02 3.322499999999999759e-02 1.090369999999999950e-01 -9.164899999999999436e-02 1.426290000000000058e-01 -8.666000000000000092e-03 -1.423520000000000063e-01 4.594700000000000173e-02 -1.217919999999999975e-01 7.367200000000000137e-02 6.065299999999999858e-02 2.141399999999999901e-02 -2.878700000000000009e-02 -3.120149999999999868e-01 -2.405799999999999952e-02 2.117899999999999991e-02 3.058670000000000000e-01 3.169520000000000115e-01 1.244640000000000052e-01 9.845600000000000185e-02 1.838500000000000134e-01 -6.532000000000000306e-02 1.302379999999999927e-01 9.297400000000000109e-02 -2.707180000000000142e-01 -2.220149999999999901e-01 2.156150000000000011e-01 9.482300000000000451e-02 1.352500000000000056e-02 1.875060000000000060e-01 -1.603000000000000041e-03 5.696999999999999981e-02 9.152299999999999325e-02 3.591659999999999853e-01 3.106099999999999833e-02 7.866099999999999481e-02 -3.311399999999999899e-01 1.145199999999999968e-01 -3.370969999999999800e-01 -7.940800000000000636e-02 -2.115990000000000093e-01 2.575000000000000032e-03 4.551299999999999790e-02 1.920200000000000032e-02 2.700290000000000190e-01
-9.629999999999999671e-02 1.323940000000000117e-01 1.897399999999999920e-01 2.321799999999999906e-02 1.939859999999999918e-01 -8.100100000000000355e-02 -3.477000000000000229e-02 7.446999999999999627e-03 8.171299999999999397e-02 2.065190000000000081e-01 1.012559999999999988e-01 -2.686399999999999899e-02 -1.312069999999999903e-01 -1.004039999999999933e-01 -1.079259999999999942e-01 9.299300000000000621e-02 -7.073799999999999533e-02 -2.589599999999999888e-02 -5.831299999999999678e-02 -2.541099999999999956e-02 9.129600000000000215e-02 -5.115999999999999888e-03 -1.667400000000000132e-02 -1.810410000000000075e-01 2.416999999999999878e-03 8.474199999999999788e-02 1.343370000000000120e-01 4.547999999999999959e-03 6.518899999999999695e-02 -1.987079999999999957e-01 4.075000000000000150e-02 -1.751979999999999926e-01 -2.571289999999999965e-01 1.264900000000000052e-02 1.294470000000000065e-01 -1.654650000000000010e-01 4.333900000000000252e-02 9.316599999999999882e-02 1.367200000000000013e-02 -2.006660000000000110e-01 9.423600000000000032e-02 1.079449999999999993e-01 2.669679999999999831e-01 2.961400000000000143e-02 1.362740000000000062e-01 6.408200000000000007e-02 -9.532100000000000295e-02 8.350599999999999690e-02 6.924900000000000500e-02 8.292499999999999871e-02 -1.107039999999999969e-01 -9.041200000000000625e-02 -1.111649999999999999e-01 -1.534639999999999893e-01 -6.574099999999999389e-02 9.893499999999999517e-02 2.286209999999999909e-01 6.548400000000000054e-02 3.911400000000000293e-02 4.418799999999999811e-02 -1.402680000000000038e-01 -6.414100000000000357e-02 -9.804999999999999480e-03 1.438399999999999922e-02 -3.107000000000000040e-02 -7.749599999999999544e-02 1.442100000000000048e-01 -1.332480000000000053e-01 -5.978200000000000180e-02 -9.497500000000000386e-02 1.761300000000000018e-02 -2.170700000000000060e-02 -1.333249999999999991e-01 6.431000000000000084e-03 -5.573899999999999688e-02 -6.607200000000000573e-02 4.308300000000000324e-02 4.530300000000000299e-02 2.290700000000000028e-02 -6.580199999999999938e-02 -3.602679999999999771e-01 9.948300000000000198e-02 1.671299999999999869e-02 -7.387299999999999423e-02 3.457099999999999757e-02 -2.120060000000000000e-01 -1.137699999999999996e-02 -4.908599999999999769e-02 1.226089999999999958e-01 3.223399999999999876e-02 1.260870000000000046e-01 3.046400000000000149e-02 2.388900000000000051e-02 -3.349400000000000294e-02 -7.462900000000000089e-02 -2.190749999999999920e-01 -8.063999999999999987e-03 2.856900000000000064e-02 -2.719420000000000170e-01 -4.103600000000000303e-02 6.237999999999999622e-03 1.520459999999999867e-01 1.594599999999999837e-02 1.396499999999999964e-01 -8.655999999999999805e-02 1.411820000000000019e-01 -2.081629999999999869e-01 1.565910000000000080e-01 -1.372450000000000059e-01 -2.925490000000000035e-01 -1.583390000000000075e-01 1.592790000000000039e-01 -3.750390000000000112e-01 -1.652889999999999915e-01 -2.794699999999999962e-02 1.261859999999999926e-01 9.698700000000000376e-02 1.152330000000000021e-01 3.946000000000000202e-02 1.301380000000000037e-01 -1.064699999999999952e-01 1.685850000000000126e-01 -8.566999999999999962e-03 -1.668280000000000041e-01 5.467899999999999844e-02 -1.424209999999999920e-01 8.834999999999999798e-02 7.148699999999999499e-02 2.671799999999999869e-02 -3.175000000000000044e-02 -3.694270000000000054e-01 -2.620600000000000013e-02 2.668299999999999839e-02 3.611190000000000233e-01 3.742860000000000076e-01 1.461429999999999951e-01 1.169840000000000046e-01 2.148609999999999964e-01 -7.890999999999999404e-02 1.523470000000000102e-01 1.069969999999999949e-01 -3.220990000000000242e-01 -2.633769999999999722e-01 2.525299999999999767e-01 1.093859999999999971e-01 1.591300000000000006e-02 2.185850000000000015e-01 -3.089999999999999865e-03 6.742599999999999982e-02 1.045620000000000022e-01 4.227690000000000059e-01 3.769000000000000128e-02 9.225600000000000467e-02 -3.924690000000000123e-01 1.371219999999999939e-01 -3.997560000000000002e-01 -9.548800000000000343e-02 -2.499969999999999970e-01 8.679999999999999565e-04 5.232900000000000051e-02 2.171899999999999872e-02 3.161450000000000093e-01