-2.032342988931903793e+00 1.627465690932212679e-04 1.560016279519133242e+00 1.627465690932212679e-04 -2.210297320759281092e+00 -3.435760903079115988e-04 1.560016279519133242e+00 -3.435760903079115988e-04 -7.781094297868122733e-02
-2.054765849562525837e+00 -1.936684172209333227e-02 1.663939005361215751e+00 -1.936684172209333227e-02 -2.203516213713730298e+00 -2.108472217363288603e-01 1.663939005361215751e+00 -2.108472217363288603e-01 -1.226024153835600233e-01
-2.064693390277212437e+00 -3.884218115691547013e-02 1.770592256973639866e+00 -3.884218115691547013e-02 -2.183516468667385357e+00 -4.182948484738215900e-01 1.770592256973639866e+00 -4.182948484738215900e-01 -1.468878200826929104e-01
-2.061637371368683969e+00 -5.817285697476586026e-02 1.879976034356406034e+00 -5.817285697476586026e-02 -2.150117256099032037e+00 -6.229396176324866197e-01 1.879976034356406034e+00 -6.229396176324866197e-01 -1.512277285918454950e-01
-2.046411525682406918e+00 -7.723228851079422252e-02 1.991837176179813484e+00 -7.723228851079422252e-02 -2.104313138375351055e+00 -8.247453633080809032e-01 1.991837176179813484e+00 -8.247453633080809032e-01 -1.368336987031561480e-01
-2.020191245106277123e+00 -9.587581214802878837e-02 2.105886355209918737e+00 -9.587581214802878837e-02 -2.047677332330909650e+00 -1.023766334356969177e+00 2.105886355209918737e+00 -1.023766334356969177e+00 -1.058214358148367590e-01
-1.984314668097282519e+00 -1.139949301737407522e-01 2.221761912404292438e+00 -1.139949301737407522e-01 -1.981728805943912208e+00 -1.220111028491879912e+00 2.221761912404292438e+00 -1.220111028491879912e+00 -6.054172370267831699e-02
-1.940517758059084663e+00 -1.314088130667154242e-01 2.339120271672626039e+00 -1.314088130667154242e-01 -1.908474766899841191e+00 -1.414050689994635235e+00 2.339120271672626039e+00 -1.414050689994635235e+00 -3.960166514601717348e-03
-1.890446063634736884e+00 -1.480451290184669477e-01 2.457690188733098857e+00 -1.480451290184669477e-01 -1.829868174027815542e+00 -1.605910812003421562e+00 2.457690188733098857e+00 -1.605910812003421562e+00 6.083105093662181939e-02
-1.835980211844871812e+00 -1.637230485077805775e-01 2.577146170447522699e+00 -1.637230485077805775e-01 -1.747934317965439410e+00 -1.796161551273397272e+00 2.577146170447522699e+00 -1.796161551273397272e+00 1.305589143170063915e-01
5.262198510415500685e+00 1.575291031097070471e+00 -1.816722713766405661e+01 1.575291031097070471e+00 1.808539197279583277e+01 -4.020242205691747728e+00 -1.816722713766405661e+01 -4.020242205691747728e+00 -2.344868203665490469e+01
5.337626843297328172e+00 1.618846720819695495e+00 -1.820085851901560048e+01 1.618846720819695495e+00 1.814019999768784075e+01 -4.305480826396899552e+00 -1.820085851901560048e+01 -4.305480826396899552e+00 -2.328118914329633071e+01
5.456144261891566316e+00 1.661666611910830094e+00 -1.820148663979857773e+01 1.661666611910830094e+00 1.823307214202841564e+01 -4.582248789685867685e+00 -1.820148663979857773e+01 -4.582248789685867685e+00 -2.301768350168228139e+01
5.617948175587152981e+00 1.703445617133026779e+00 -1.816889614431596911e+01 1.703445617133026779e+00 1.836395456689331596e+01 -4.850510202942480475e+00 -1.816889614431596911e+01 -4.850510202942480475e+00 -2.266004947416168847e+01
5.821674664969616941e+00 1.743806864016497649e+00 -1.810278194533032803e+01 1.743806864016497649e+00 1.853150129917614208e+01 -5.109906140005036512e+00 -1.810278194533032803e+01 -5.109906140005036512e+00 -2.221117641633626505e+01
6.065798293851722534e+00 1.782409372707625339e+00 -1.800282100929612028e+01 1.782409372707625339e+00 1.873406127853307623e+01 -5.360005889479491969e+00 -1.800282100929612028e+01 -5.360005889479491969e+00 -2.167447412674219009e+01
6.348255236803678869e+00 1.818894217044706663e+00 -1.786867235635973117e+01 1.818894217044706663e+00 1.896940916276155065e+01 -5.600504364128400248e+00 -1.786867235635973117e+01 -5.600504364128400248e+00 -2.105437534347648310e+01
6.667035507319948984e+00 1.852974256098380179e+00 -1.769990527512711154e+01 1.852974256098380179e+00 1.923553496535603102e+01 -5.831150315638569559e+00 -1.769990527512711154e+01 -5.831150315638569559e+00 -2.035538458986852106e+01
7.019949655814149203e+00 1.884290563706942478e+00 -1.749596343004762389e+01 1.884290563706942478e+00 1.952998004210885696e+01 -6.051764280929146089e+00 -1.749596343004762389e+01 -6.051764280929146089e+00 -1.958223969125277364e+01
7.404646715927126088e+00 1.912502160016776198e+00 -1.725616486141403882e+01 1.912502160016776198e+00 1.985035753404470427e+01 -6.262274474767791865e+00 -1.725616486141403882e+01 -6.262274474767791865e+00 -1.873987588235265989e+01
-2.507091855629027677e+01 -1.077703229677288377e+00 -1.107478296764168313e+00 -1.077703229677288377e+00 -1.547938184057209199e+01 -1.473236175423824257e+01 -1.107478296764168313e+00 -1.473236175423824257e+01 2.121190832015960126e+01
-2.482952390019133659e+01 -1.026175108029401484e+00 -1.248056264551670624e+00 -1.026175108029401484e+00 -1.534427426118896065e+01 -1.474157697228855923e+01 -1.248056264551670624e+00 -1.474157697228855923e+01 2.168630847967023101e+01
-2.460002458532069980e+01 -9.731233547118404159e-01 -1.378996803103283764e+00 -9.731233547118404159e-01 -1.523600462760177088e+01 -1.471495931058943718e+01 -1.378996803103283764e+00 -1.471495931058943718e+01 2.209647746794967205e+01
-2.438489880776758767e+01 -9.189151098859730249e-01 -1.499822630209230345e+00 -9.189151098859730249e-01 -1.515602314344792489e+01 -1.465254548315701122e+01 -1.499822630209230345e+00 -1.465254548315701122e+01 2.243707339565002457e+01
-2.418614748141145299e+01 -8.641194408019178264e-01 -1.610038106651664691e+00 -8.641194408019178264e-01 -1.510506408905015974e+01 -1.455448234605583124e+01 -1.610038106651664691e+00 -1.455448234605583124e+01 2.270506735644001850e+01
-2.400602851824470463e+01 -8.092870577017260425e-01 -1.709019094156262630e+00 -8.092870577017260425e-01 -1.508395352977154502e+01 -1.442095346936658018e+01 -1.709019094156262630e+00 -1.442095346936658018e+01 2.289768744210131857e+01
-2.384679983025974437e+01 -7.549503138193800478e-01 -1.796269953505178485e+00 -7.549503138193800478e-01 -1.509348081695902266e+01 -1.425227092222641900e+01 -1.796269953505178485e+00 -1.425227092222641900e+01 2.301206995937527111e+01
-2.371101304157808798e+01 -7.016232053807937019e-01 -1.871221617448292962e+00 -7.016232053807937019e-01 -1.513449037298373767e+01 -1.404867334574023729e+01 -1.871221617448292962e+00 -1.404867334574023729e+01 2.304514928791445882e+01
-2.360114634828894964e+01 -6.498564426280180051e-01 -1.933506945824239098e+00 -6.498564426280180051e-01 -1.520788169124104172e+01 -1.381045445203712596e+01 -1.933506945824239098e+00 -1.381045445203712596e+01 2.299426366154896328e+01
-2.351989823057838791e+01 -6.002007358031037354e-01 -1.982630299415170549e+00 -6.002007358031037354e-01 -1.531442576606980488e+01 -1.353779781119777148e+01 -1.982630299415170549e+00 -1.353779781119777148e+01 2.285605374780228161e+01
-1.583024434302666528e+01 -2.919285441963918593e-01 1.304669449371467227e+00 -2.919285441963918593e-01 -1.630880239711983393e+01 -1.037951319810304796e+01 1.304669449371467227e+00 -1.037951319810304796e+01 -2.963504383570117895e+01
-1.565961851226352586e+01 -3.115173431359484213e-01 1.346785367091513974e+00 -3.115173431359484213e-01 -1.612714400695394446e+01 -1.042698831553297367e+01 1.346785367091513974e+00 -1.042698831553297367e+01 -2.915426818172806023e+01
-1.544081532410847934e+01 -3.312724620665012942e-01 1.388088164855578954e+00 -3.312724620665012942e-01 -1.589765937937713680e+01 -1.045973487376023137e+01 1.388088164855578954e+00 -1.045973487376023137e+01 -2.855283661428667585e+01
-1.517514685849049272e+01 -3.510091009980544907e-01 1.428762642653658377e+00 -3.510091009980544907e-01 -1.562125403434039583e+01 -1.047762351279182802e+01 1.428762642653658377e+00 -1.047762351279182802e+01 -2.783533217312891495e+01
-1.486416543532553369e+01 -3.705978999376110528e-01 1.468845760483751040e+00 -3.705978999376110528e-01 -1.529935093176668026e+01 -1.048032159264576535e+01 1.468845760483751040e+00 -1.048032159264576535e+01 -2.700554325804969835e+01
-1.450955273452255945e+01 -3.898540588951752150e-01 1.508392958342855694e+00 -3.898540588951752150e-01 -1.493346543157396411e+01 -1.046745951334205671e+01 1.508392958342855694e+00 -1.046745951334205671e+01 -2.606759090882593100e+01
-1.411363723595552067e+01 -4.086297378787502321e-01 1.547552076222969530e+00 -4.086297378787502321e-01 -1.452577817364419133e+01 -1.043872311489770688e+01 1.547552076222969530e+00 -1.043872311489770688e+01 -2.502707456515448214e+01
-1.367811909953237937e+01 -4.267770968963394140e-01 1.586433994118089164e+00 -4.267770968963394140e-01 -1.407784147789333318e+01 -1.039376127733172517e+01 1.586433994118089164e+00 -1.039376127733172517e+01 -2.388942734674123614e+01
-1.320693456504004537e+01 -4.439450159669507956e-01 1.625186552020212005e+00 -4.439450159669507956e-01 -1.359314806413230237e+01 -1.033216744066612058e+01 1.625186552020212005e+00 -1.033216744066612058e+01 -2.266034109327805979e+01
-1.270202403237347433e+01 -4.600041350975872523e-01 1.663994549919333377e+00 -4.600041350975872523e-01 -1.307361985225706391e+01 -1.025357200492089937e+01 1.663994549919333377e+00 -1.025357200492089937e+01 -2.134602508442880620e+01
-9.568292395547180362e+00 -1.168825942624369674e+01 -1.835427928199779046e+01 -1.168825942624369674e+01 1.387197267152792080e+01 -5.827787763819686440e+00 -1.835427928199779046e+01 -5.827787763819686440e+00 4.829379344105540817e+00
-9.576454361405923876e+00 -1.157276670846325572e+01 -1.811275355940077958e+01 -1.157276670846325572e+01 1.376974089606984997e+01 -5.732294565030865208e+00 -1.811275355940077958e+01 -5.732294565030865208e+00 4.655095247523602708e+00
-9.572508510361631195e+00 -1.144914805999342278e+01 -1.783549896638900734e+01 -1.144914805999342278e+01 1.365552742680148413e+01 -5.625900727512376243e+00 -1.783549896638900734e+01 -5.625900727512376243e+00 4.464901623671753583e+00
-9.556238631398176864e+00 -1.131862867659224925e+01 -1.752247946779312215e+01 -1.131862867659224925e+01 1.353053944189618996e+01 -5.508732374356958950e+00 -1.752247946779312215e+01 -5.508732374356958950e+00 4.259933580384653418e+00
-9.528599656503450532e+00 -1.118237970126374492e+01 -1.717400136255263021e+01 -1.118237970126374492e+01 1.339526341614025284e+01 -5.381095804504126612e+00 -1.717400136255263021e+01 -5.381095804504126612e+00 4.040857768295354369e+00
-9.491032992451620132e+00 -1.104173443527402121e+01 -1.679033491443769321e+01 -1.104173443527402121e+01 1.324977141987237772e+01 -5.243369387232098333e+00 -1.679033491443769321e+01 -5.243369387232098333e+00 3.807872380835307435e+00
-9.445124186694277668e+00 -1.089806221505853756e+01 -1.637173236963378997e+01 -1.089806221505853756e+01 1.309415354101595419e+01 -5.095877439065061409e+00 -1.637173236963378997e+01 -5.095877439065061409e+00 3.560995435589187519e+00
-9.392783103207197115e+00 -1.075266030671404849e+01 -1.591835588640301147e+01 -1.075266030671404849e+01 1.292828365647823752e+01 -4.938962294111882478e+00 -1.591835588640301147e+01 -4.938962294111882478e+00 3.299938651202162010e+00
-9.336099781812928100e+00 -1.060678994116795515e+01 -1.543033158783810421e+01 -1.060678994116795515e+01 1.275189150248907488e+01 -4.772912233727396369e+00 -1.543033158783810421e+01 -4.772912233727396369e+00 3.024125464964562138e+00
-9.277200297503370052e+00 -1.046173036693233094e+01 -1.490755136843099748e+01 -1.046173036693233094e+01 1.256472483286298392e+01 -4.597889416173695842e+00 -1.490755136843099748e+01 -4.597889416173695842e+00 2.733015349336073374e+00
7.071196214557601278e-01 -1.235970597975441621e+01 -7.829430736338214736e+00 -1.235970597975441621e+01 -9.826640485504301026e+00 -1.937517174880910176e+01 -7.829430736338214736e+00 -1.937517174880910176e+01 1.529448680609015554e+01
5.168324588795600860e-01 -1.235898197266766196e+01 -7.700177371175402463e+00 -1.235898197266766196e+01 -9.973740625355606682e+00 -1.913460229405781732e+01 -7.700177371175402463e+00 -1.913460229405781732e+01 1.483591881751714858e+01
3.116307503162213943e-01 -1.234540683979101772e+01 -7.555231152407190898e+00 -1.234540683979101772e+01 -1.012764643182240221e+01 -1.885390474652317394e+01 -7.555231152407190898e+00 -1.885390474652317394e+01 1.432911385678913518e+01
9.310731135660352265e-02 -1.231912538254183609e+01 -7.394592080033580039e+00 -1.231912538254183609e+01 -1.028714519303437491e+01 -1.853360401134306912e+01 -7.394592080033580039e+00 -1.853360401134306912e+01 1.377700415260747313e+01
-1.381586523298900804e-01 -1.228033670286897561e+01 -7.218169653168724054e+00 -1.228033670286897561e+01 -1.045218260846001890e+01 -1.817458699719878013e+01 -7.218169653168724054e+00 -1.817458699719878013e+01 1.318196082818127834e+01
-3.820766398574151901e-01 -1.222934850378430305e+01 -7.025891471103950181e+00 -1.222934850378430305e+01 -1.062319308235138671e+01 -1.777801211542911020e+01 -7.025891471103950181e+00 -1.777801211542911020e+01 1.254557669910141371e+01
-6.389362540606734475e-01 -1.216657708936270588e+01 -6.817522231536061739e+00 -1.216657708936270588e+01 -1.080093682214956807e+01 -1.734511017808154065e+01 -6.817522231536061739e+00 -1.734511017808154065e+01 1.186922737883271317e+01
-9.091356988373796577e-01 -1.209247496403340172e+01 -6.592790431807524776e+00 -1.209247496403340172e+01 -1.098642743777602071e+01 -1.687725679862090900e+01 -6.592790431807524776e+00 -1.687725679862090900e+01 1.115405317853680955e+01
-1.193236079679768746e+00 -1.200758513311146025e+01 -6.351279767843458046e+00 -1.200758513311146025e+01 -1.118066043897503192e+01 -1.637586379086638644e+01 -6.351279767843458046e+00 -1.637586379086638644e+01 1.040095910707215232e+01
-1.491979503851763589e+00 -1.191255920297495763e+01 -6.092537735214639483e+00 -1.191255920297495763e+01 -1.138486663779408303e+01 -1.584216196686545075e+01 -6.092537735214639483e+00 -1.584216196686545075e+01 9.610687271702660794e+00
3.920178682466552544e+01 -5.831868875139840647e+00 -5.919932974850512508e+00 -5.831868875139840647e+00 1.167853251903107514e+00 8.371496608236087766e+00 -5.919932974850512508e+00 8.371496608236087766e+00 2.633093684683171887e+01
3.937795024972675151e+01 -5.851190138616361835e+00 -5.934076069264046183e+00 -5.851190138616361835e+00 1.218948042555239475e+00 8.230188953840341881e+00 -5.934076069264046183e+00 8.230188953840341881e+00 2.661763832984978251e+01
3.949935541758788560e+01 -5.860824351124708897e+00 -5.922504446562064651e+00 -5.860824351124708897e+00 1.257432054128802879e+00 8.067798753973862702e+00 -5.922504446562064651e+00 8.067798753973862702e+00 2.680729317498668607e+01
3.956436433599430558e+01 -5.860789125484825668e+00 -5.885235719564507306e+00 -5.860789125484825668e+00 1.282142840507617843e+00 7.884484524016128759e+00 -5.885235719564507306e+00 7.884484524016128759e+00 2.689627314133434766e+01
3.957169126909023049e+01 -5.851242977076188900e+00 -5.822481242110683297e+00 -5.851242977076188900e+00 1.292146922234749917e+00 7.680827487025227995e+00 -5.822481242110683297e+00 7.680827487025227995e+00 2.688257036741936901e+01
3.952033228613896654e+01 -5.832573387937525666e+00 -5.734487593679779671e+00 -5.832573387937525666e+00 1.286264240374076939e+00 7.457479317339021030e+00 -5.734487593679779671e+00 7.457479317339021030e+00 2.676419460458828325e+01
3.940924823076392158e+01 -5.805150227287622755e+00 -5.621624643490581441e+00 -5.805150227287622755e+00 1.263032930870401804e+00 7.215021238015599359e+00 -5.621624643490581441e+00 7.215021238015599359e+00 2.653919082982751831e+01
3.923745278504834744e+01 -5.769501879724741933e+00 -5.484385550501469808e+00 -5.769501879724741933e+00 1.220409906610436579e+00 6.954122536212761219e+00 -5.484385550501469808e+00 6.954122536212761219e+00 2.620551595602377759e+01
3.900431188747430866e+01 -5.726209568306975584e+00 -5.323333924950592433e+00 -5.726209568306975584e+00 1.156528208680315029e+00 6.675399660628484888e+00 -5.323333924950592433e+00 6.675399660628484888e+00 2.576135586272303613e+01
3.870913863806408273e+01 -5.675977805832008727e+00 -5.138945312976388458e+00 -5.675977805832008727e+00 1.069327137146807383e+00 6.379380995861031245e+00 -5.138945312976388458e+00 6.379380995861031245e+00 2.520479075255158463e+01
5.541565527756020515e+00 1.234355081795105136e+01 3.640970493723199031e-01 1.234355081795105136e+01 3.840599935501806073e+01 1.903359682896804017e+01 3.640970493723199031e-01 1.903359682896804017e+01 3.198006255238675166e+01
5.411083943736898938e+00 1.233228482989120955e+01 3.399129626791207864e-02 1.233228482989120955e+01 3.822627081539258143e+01 1.903308713528046781e+01 3.399129626791207864e-02 1.903308713528046781e+01 3.159469897329149290e+01
5.257648568132518463e+00 1.230929588701715183e+01 -2.875023910809234029e-01 1.230929588701715183e+01 3.797550152110583355e+01 1.897779415800081182e+01 -2.875023910809234029e-01 1.897779415800081182e+01 3.107994350012985407e+01
5.081663640764057632e+00 1.227497065350565641e+01 -6.006124960513751221e-01 1.227497065350565641e+01 3.765581812513011073e+01 1.886898334352581585e+01 -6.006124960513751221e-01 1.886898334352581585e+01 3.043911792969327124e+01
4.883304918075507928e+00 1.222974852046670335e+01 -9.050929596218555417e-01 1.222974852046670335e+01 3.726952303688169366e+01 1.870818377291820056e+01 -9.050929596218555417e-01 1.870818377291820056e+01 2.967586042037237348e+01
4.662045130734894904e+00 1.217435008932065266e+01 -1.200715298415175658e+00 1.217435008932065266e+01 3.681918230044285423e+01 1.849729361577307429e+01 -1.200715298415175658e+00 1.849729361577307429e+01 2.879368610104697979e+01
4.417409736343443249e+00 1.210960141535426970e+01 -1.487251029054146967e+00 1.210960141535426970e+01 3.630780135100584971e+01 1.823842194941832773e+01 -1.487251029054146967e+00 1.823842194941832773e+01 2.779686585330608040e+01
4.148730860413984978e+00 1.203641643207630274e+01 -1.764559546383576816e+00 1.203641643207630274e+01 3.573861410714011555e+01 1.793390633455904748e+01 -1.764559546383576816e+00 1.793390633455904748e+01 2.668993419340464968e+01
3.855410931036950650e+00 1.195584967815070421e+01 -2.032447518315074309e+00 1.195584967815070421e+01 3.511553993754665015e+01 1.758633039092190842e+01 -2.032447518315074309e+00 1.758633039092190842e+01 2.547809351208482553e+01
3.536659044214378600e+00 1.186902599481901532e+01 -2.290739188404648186e+00 1.186902599481901532e+01 3.444242790834887558e+01 1.719833046516677655e+01 -2.290739188404648186e+00 1.719833046516677655e+01 2.416682741039914006e+01
3.450880080298081509e+01 -9.468458257861325222e+00 2.255970016373595044e+01 -9.468458257861325222e+00 -1.760629989934216155e+01 -1.808625081850202676e+01 2.255970016373595044e+01 -1.808625081850202676e+01 1.512320257187421113e+01
3.447287257743886357e+01 -9.405364351560477232e+00 2.258984045069932023e+01 -9.405364351560477232e+00 -1.755585702906755685e+01 -1.806487307632170669e+01 2.258984045069932023e+01 -1.806487307632170669e+01 1.512184070397336910e+01
3.439225358157192147e+01 -9.318670708083200083e+00 2.255844581172201657e+01 -9.318670708083200083e+00 -1.749600651868845347e+01 -1.800271097437406809e+01 2.255844581172201657e+01 -1.800271097437406809e+01 1.505536004723490073e+01
3.426753515275797923e+01 -9.209398728355122188e+00 2.246657348635864082e+01 -9.209398728355122188e+00 -1.742753681804217791e+01 -1.790060672043989598e+01 2.246657348635864082e+01 -1.790060672043989598e+01 1.492386811754571774e+01
3.409945198289091195e+01 -9.078874441648114413e+00 2.231574661634039813e+01 -9.078874441648114413e+00 -1.735163060188472528e+01 -1.775947419955790707e+01 2.231574661634039813e+01 -1.775947419955790707e+01 1.472861926691975043e+01
3.388886419906598491e+01 -8.928603070378899886e+00 2.210788256831716225e+01 -8.928603070378899886e+00 -1.726988268920524305e+01 -1.758037065128271337e+01 2.210788256831716225e+01 -1.758037065128271337e+01 1.447081408942748126e+01
3.363681112152332986e+01 -8.760430303939408248e+00 2.184525709522848658e+01 -8.760430303939408248e+00 -1.718431796254050070e+01 -1.736444291174133170e+01 2.184525709522848658e+01 -1.736444291174133170e+01 1.415179653365526136e+01
3.334436790913201065e+01 -8.576327266922964654e+00 2.153048641698915944e+01 -8.576327266922964654e+00 -1.709726593277352791e+01 -1.711280197843181838e+01 2.153048641698915944e+01 -1.711280197843181838e+01 1.377303598339084800e+01
3.301296810705082407e+01 -8.378408438438768258e+00 2.116640178528776772e+01 -8.378408438438768258e+00 -1.701119946530321769e+01 -1.682668428405362349e+01 2.116640178528776772e+01 -1.682668428405362349e+01 1.333610933830889778e+01
3.264424237289787811e+01 -8.168967490740870474e+00 2.075603156427223084e+01 -8.168967490740870474e+00 -1.692869894141537301e+01 -1.650716498747583216e+01 2.075603156427223084e+01 -1.650716498747583216e+01 1.284295188437376112e+01
4.011268151625653644e+01 5.356606573315539244e+00 -2.244133101606285408e+01 5.356606573315539244e+00 5.581407645143372775e+01 -1.996552738527617876e+01 -2.244133101606285408e+01 -1.996552738527617876e+01 5.508369526533989102e+01
4.007701153894759472e+01 5.365891007600736451e+00 -2.234507327825308209e+01 5.365891007600736451e+00 5.576891723614212282e+01 -2.000696600006378745e+01 -2.234507327825308209e+01 -2.000696600006378745e+01 5.498511641895883173e+01
3.995443652601323947e+01 5.364696319365509503e+00 -2.217599075901879146e+01 5.364696319365509503e+00 5.562287513287294161e+01 -1.998431812451882905e+01 -2.217599075901879146e+01 -1.998431812451882905e+01 5.464224089544848084e+01
3.974615116568869411e+01 5.353653986677048060e+00 -2.193509040987252234e+01 5.353653986677048060e+00 5.537659868666814589e+01 -1.989777149536397971e+01 -2.193509040987252234e+01 -1.989777149536397971e+01 5.405634871791804130e+01
3.945309414158734285e+01 5.333514956426066433e+00 -2.162382292367134795e+01 5.333514956426066433e+00 5.503065110769578894e+01 -1.974792345671685112e+01 -2.162382292367134795e+01 -1.974792345671685112e+01 5.323010233443457651e+01
3.907640894102005547e+01 5.305064309452859561e+00 -2.124416806949077952e+01 5.305064309452859561e+00 5.458619295024151086e+01 -1.953593456286309404e+01 -2.124416806949077952e+01 -1.953593456286309404e+01 5.216756368499787300e+01
3.861773399356656711e+01 5.269240729370817888e+00 -2.079848108985170185e+01 5.269240729370817888e+00 5.404508451455732398e+01 -1.926361391313033877e+01 -2.079848108985170185e+01 -1.926361391313033877e+01 5.087441607221264661e+01
3.807928800594945784e+01 5.227119435591648156e+00 -2.028978283929175674e+01 5.227119435591648156e+00 5.341010771753381192e+01 -1.893341915188819868e+01 -2.028978283929175674e+01 -1.893341915188819868e+01 4.935828843380956954e+01
3.746255580497535931e+01 5.179673245678320548e+00 -1.972193045411325230e+01 5.179673245678320548e+00 5.268375433749017134e+01 -1.854872954014488684e+01 -1.972193045411325230e+01 -1.854872954014488684e+01 4.762691210936804964e+01
3.677351083182039559e+01 5.128045646941695956e+00 -1.909849093204708481e+01 5.128045646941695956e+00 5.187329490568650670e+01 -1.811300967378256388e+01 -1.909849093204708481e+01 -1.811300967378256388e+01 4.569598871569392173e+01
-7.391790518151000633e+00 7.465774403112958701e+00 2.109166267421710117e+01 7.465774403112958701e+00 1.938462514136676518e+01 6.593110684000267341e+00 2.109166267421710117e+01 6.593110684000267341e+00 -1.483973595873292339e+01
-7.196861729629154603e+00 7.527499749630929493e+00 2.132960451086741571e+01 7.527499749630929493e+00 1.942138272943631350e+01 6.467622910311135342e+00 2.132960451086741571e+01 6.467622910311135342e+00 -1.454033918450090290e+01
-6.962759699873795505e+00 7.583546508487343907e+00 2.153489897527940045e+01 7.583546508487343907e+00 1.947937643263383478e+01 6.322845965835139914e+00 2.153489897527940045e+01 6.322845965835139914e+00 -1.417404323943705435e+01
-6.690511982842727967e+00 7.633265698235169872e+00 2.170705933136777688e+01 7.633265698235169872e+00 1.955857019643448780e+01 6.159500941068983160e+00 2.170705933136777688e+01 6.159500941068983160e+00 -1.374373248552819682e+01
-6.382119604664310941e+00 7.675972282902539412e+00 2.184532843411101055e+01 7.675972282902539412e+00 1.965799054866772622e+01 5.978471171871130529e+00 2.184532843411101055e+01 5.978471171871130529e+00 -1.325254366643499893e+01
-6.039763864091076684e+00 7.711125444616919289e+00 2.194884097491304686e+01 7.711125444616919289e+00 1.977639360822672643e+01 5.780874348511474636e+00 2.194884097491304686e+01 5.780874348511474636e+00 -1.270420842547791018e+01
-5.665860414286987279e+00 7.738166338243367193e+00 2.201676769970268310e+01 7.738166338243367193e+00 1.991230113959325010e+01 5.567810133997491029e+00 2.201676769970268310e+01 5.567810133997491029e+00 -1.210254854228946897e+01
-5.262878990203258667e+00 7.756698364008691726e+00 2.204827935440870235e+01 7.756698364008691726e+00 2.006412674367453874e+01 5.340414245861491160e+00 2.204827935440870235e+01 5.340414245861491160e+00 -1.145169225996331086e+01
-4.833217217741436755e+00 7.766324922139705933e+00 2.204256471222231184e+01 7.766324922139705933e+00 2.023024796685301041e+01 5.099804374373366755e+00 2.204256471222231184e+01 5.099804374373366755e+00 -1.075567768528098611e+01
-4.379380886377570725e+00 7.766757576437730570e+00 2.199868635549779938e+01 7.766757576437730570e+00 2.040884405562448123e+01 4.847008073490924218e+00 2.199868635549779938e+01 4.847008073490924218e+00 -1.001863306133613385e+01
9.028087130866058629e+00 -4.777487336811341301e+00 7.333162314705264251e+00 -4.777487336811341301e+00 1.289565337066787443e+01 -1.339826778385066852e+01 7.333162314705264251e+00 -1.339826778385066852e+01 1.723124481400977848e+00
9.141546163734316721e+00 -4.752946488896624189e+00 7.237765345902237968e+00 -4.752946488896624189e+00 1.291883777898875962e+01 -1.332437752176562995e+01 7.237765345902237968e+00 -1.332437752176562995e+01 1.900282631511145182e+00
9.259681343623416439e+00 -4.722194575473309897e+00 7.132641277380286304e+00 -4.722194575473309897e+00 1.294876868950001736e+01 -1.322694589357185535e+01 7.132641277380286304e+00 -1.322694589357185535e+01 2.081902753969442799e+00
9.381743059178869970e+00 -4.685392227545930766e+00 7.017647326024270882e+00 -4.685392227545930766e+00 1.298528547119711618e+01 -1.310584796404359764e+01 7.017647326024270882e+00 -1.310584796404359764e+01 2.265575383707880253e+00
9.506481958143201183e+00 -4.642807163455374919e+00 6.892854883391762222e+00 -4.642807163455374919e+00 1.302770990428313880e+01 -1.296113727684903338e+01 6.892854883391762222e+00 -1.296113727684903338e+01 2.449515731787206274e+00
9.632470209365010305e+00 -4.594742797321314853e+00 6.758335341040328181e+00 -4.594742797321314853e+00 1.307502465906271283e+01 -1.279272459254120164e+01 6.758335341040328181e+00 -1.279272459254120164e+01 2.631706986706064288e+00
9.758083654909576410e+00 -4.541573934820993586e+00 6.614160090527540170e+00 -4.541573934820993586e+00 1.312603392694654048e+01 -1.260032434488982389e+01 6.614160090527540170e+00 -1.260032434488982389e+01 2.809739683396465182e+00
9.881715984731570757e+00 -4.483657533742261947e+00 6.460346979742791262e+00 -4.483657533742261947e+00 1.317930987678321664e+01 -1.238365096766461271e+01 6.460346979742791262e+00 -1.238365096766461271e+01 2.981150813122240617e+00
1.000176088878566993e+01 -4.421404095541146440e+00 6.296931704464864943e+00 -4.421404095541146440e+00 1.323344252531073373e+01 -1.214224041574136947e+01 6.296931704464864943e+00 -1.214224041574136947e+01 3.143370279810867807e+00
1.011666560069472176e+01 -4.355241969563070192e+00 6.123949960472547360e+00 -4.355241969563070192e+00 1.328682556248376656e+01 -1.187552155665952824e+01 6.123949960472547360e+00 -1.187552155665952824e+01 3.293774443721645184e+00
5.730358740293647202e+01 5.459926015452011505e+00 1.802058509122700158e+01 5.459926015452011505e+00 4.871394974746053919e+01 4.991443089876325345e+00 1.802058509122700158e+01 4.991443089876325345e+00 7.139438826557241669e+01
5.716381752049569087e+01 5.448131874040242018e+00 1.774725544097690744e+01 5.448131874040242018e+00 4.879945304237254788e+01 5.192501896554441387e+00 1.774725544097690744e+01 5.192501896554441387e+00 7.130836041056890906e+01
5.689421055476581301e+01 5.424543591216703042e+00 1.743004887726810992e+01 5.424543591216703042e+00 4.877044994570142222e+01 5.373170544837746476e+00 1.743004887726810992e+01 5.373170544837746476e+00 7.092463624300120273e+01
5.649667861188675744e+01 5.389702648366152538e+00 1.707084366365398509e+01 5.389702648366152538e+00 4.862551906881217434e+01 5.533279821793505526e+00 1.707084366365398509e+01 5.533279821793505526e+00 7.024350342485490728e+01
5.597448750146035223e+01 5.344370503685907714e+00 1.667211030895249380e+01 5.344370503685907714e+00 4.836374666186801363e+01 5.672626671902433415e+00 1.667211030895249380e+01 5.672626671902433415e+00 6.926817700185206661e+01
5.533166449128571429e+01 5.289443985719474384e+00 1.623675927560671184e+01 5.289443985719474384e+00 4.798464200736402319e+01 5.791109567404888026e+00 1.623675927560671184e+01 5.791109567404888026e+00 6.800375028326803317e+01
5.457298138606605420e+01 5.226141427582557952e+00 1.576814097968483708e+01 5.226141427582557952e+00 4.748839123952619445e+01 5.888863878647058847e+00 1.576814097968483708e+01 5.888863878647058847e+00 6.645731329098448725e+01
5.370478367077900828e+01 5.155731926270687993e+00 1.526997810570708047e+01 5.155731926270687993e+00 4.687665264509535490e+01 5.966244952787692846e+00 1.526997810570708047e+01 5.966244952787692846e+00 6.463888343061948660e+01
5.273307840453672668e+01 5.079738398178497150e+00 1.474690708803043471e+01 5.079738398178497150e+00 4.615113527469215171e+01 6.023557373105719037e+00 1.474690708803043471e+01 6.023557373105719037e+00 6.255913803822871699e+01
5.166962588616443952e+01 4.999616074527522436e+00 1.420287058798767355e+01 4.999616074527522436e+00 4.531862456691933261e+01 6.061765653317735314e+00 1.420287058798767355e+01 6.061765653317735314e+00 6.023909336005812065e+01