0.000000000000000000e+00 2.032270000000000021e+00 9.514359999999999928e+00 -1.760000000000000009e+00 5.080680000000000085e+00 9.514359999999999928e+00 -3.520000000000000018e+00 8.129089999999999705e+00 9.514359999999999928e+00 3.520000000000000018e+00 2.032270000000000021e+00 9.514359999999999928e+00 1.760000000000000009e+00 5.080680000000000085e+00 9.514359999999999928e+00 0.000000000000000000e+00 8.129089999999999705e+00 9.514359999999999928e+00 7.040000000000000036e+00 2.032270000000000021e+00 9.514359999999999928e+00 5.280000000000000249e+00 5.080680000000000085e+00 9.514359999999999928e+00 3.520000000000000018e+00 8.129089999999999705e+00 9.514359999999999928e+00 0.000000000000000000e+00 8.129100000000000215e-01 1.686514999999999986e+01 -1.760000000000000009e+00 3.861320000000000086e+00 1.686514999999999986e+01 -3.520000000000000018e+00 6.909729999999999706e+00 1.686514999999999986e+01 3.520000000000000018e+00 8.129100000000000215e-01 1.686514999999999986e+01 1.760000000000000009e+00 3.861320000000000086e+00 1.686514999999999986e+01 0.000000000000000000e+00 6.909729999999999706e+00 1.686514999999999986e+01 7.040000000000000036e+00 8.129100000000000215e-01 1.686514999999999986e+01 5.280000000000000249e+00 3.861320000000000086e+00 1.686514999999999986e+01 3.520000000000000018e+00 6.909729999999999706e+00 1.686514999999999986e+01 0.000000000000000000e+00 2.032270000000000021e+00 1.313508999999999993e+01 -1.760000000000000009e+00 5.080680000000000085e+00 1.313508999999999993e+01 -3.520000000000000018e+00 8.129089999999999705e+00 1.313508999999999993e+01 3.520000000000000018e+00 2.032270000000000021e+00 1.313508999999999993e+01 1.760000000000000009e+00 5.080680000000000085e+00 1.313508999999999993e+01 0.000000000000000000e+00 8.129089999999999705e+00 1.313508999999999993e+01 7.040000000000000036e+00 2.032270000000000021e+00 1.313508999999999993e+01 5.280000000000000249e+00 5.080680000000000085e+00 1.313508999999999993e+01 3.520000000000000018e+00 8.129089999999999705e+00 1.313508999999999993e+01 0.000000000000000000e+00 8.129100000000000215e-01 2.048583999999999961e+01 -1.760000000000000009e+00 3.861320000000000086e+00 2.048583999999999961e+01 -3.520000000000000018e+00 6.909729999999999706e+00 2.048583999999999961e+01 3.520000000000000018e+00 8.129100000000000215e-01 2.048583999999999961e+01 1.760000000000000009e+00 3.861320000000000086e+00 2.048583999999999961e+01 0.000000000000000000e+00 6.909729999999999706e+00 2.048583999999999961e+01 7.040000000000000036e+00 8.129100000000000215e-01 2.048583999999999961e+01 5.280000000000000249e+00 3.861320000000000086e+00 2.048583999999999961e+01 3.520000000000000018e+00 6.909729999999999706e+00 2.048583999999999961e+01 0.000000000000000000e+00 0.000000000000000000e+00 1.132496000000000080e+01 -1.760000000000000009e+00 3.048410000000000064e+00 1.132496000000000080e+01 -3.520000000000000018e+00 6.096820000000000128e+00 1.132496000000000080e+01 3.520000000000000018e+00 0.000000000000000000e+00 1.132496000000000080e+01 1.760000000000000009e+00 3.048410000000000064e+00 1.132496000000000080e+01 0.000000000000000000e+00 6.096820000000000128e+00 1.132496000000000080e+01 7.040000000000000036e+00 0.000000000000000000e+00 1.132496000000000080e+01 5.280000000000000249e+00 3.048410000000000064e+00 1.132496000000000080e+01 3.520000000000000018e+00 6.096820000000000128e+00 1.132496000000000080e+01 1.760000000000000009e+00 1.829050000000000065e+00 1.867465999999999937e+01 0.000000000000000000e+00 4.877460000000000129e+00 1.867465999999999937e+01 -1.760000000000000009e+00 7.925860000000000127e+00 1.867465999999999937e+01 5.280000000000000249e+00 1.829050000000000065e+00 1.867465999999999937e+01 3.520000000000000018e+00 4.877460000000000129e+00 1.867465999999999937e+01 1.760000000000000009e+00 7.925860000000000127e+00 1.867465999999999937e+01 8.800000000000000711e+00 1.829050000000000065e+00 1.867465999999999937e+01 7.040000000000000036e+00 4.877460000000000129e+00 1.867465999999999937e+01 5.280000000000000249e+00 7.925860000000000127e+00 1.867465999999999937e+01
-1.039999999999999909e-03 2.033689999999999998e+00 9.513769999999999172e+00 -1.760659999999999892e+00 5.082010000000000360e+00 9.514469999999999317e+00 -3.523730000000000029e+00 8.128849999999999909e+00 9.514450000000000074e+00 3.517889999999999961e+00 2.031660000000000021e+00 9.517079999999999984e+00 1.761179999999999968e+00 5.079589999999999606e+00 9.514639999999999986e+00 -6.199999999999999999e-04 8.128220000000000667e+00 9.513109999999999289e+00 7.039520000000000444e+00 2.033259999999999845e+00 9.513479999999999492e+00 5.282560000000000144e+00 5.079119999999999635e+00 9.514210000000000278e+00 3.518949999999999800e+00 8.128989999999999938e+00 9.517680000000000362e+00 -1.580000000000000024e-03 8.155000000000000027e-01 1.686646999999999963e+01 -1.760760000000000103e+00 3.864189999999999792e+00 1.686441999999999908e+01 -3.521290000000000031e+00 6.909010000000000318e+00 1.686301999999999879e+01 3.520880000000000010e+00 8.131699999999999484e-01 1.686251999999999995e+01 1.759989999999999943e+00 3.860570000000000057e+00 1.686401000000000039e+01 -7.600000000000000418e-04 6.907890000000000086e+00 1.686386999999999858e+01 7.036010000000000097e+00 8.130100000000000104e-01 1.686258000000000123e+01 5.280289999999999928e+00 3.860180000000000167e+00 1.686700000000000088e+01 3.521059999999999857e+00 6.909279999999999866e+00 1.686499999999999844e+01 1.760000000000000063e-03 2.030479999999999841e+00 1.313449999999999918e+01 -1.758909999999999973e+00 5.080890000000000128e+00 1.313480999999999987e+01 -3.521040000000000170e+00 8.129640000000000200e+00 1.313612000000000002e+01 3.521030000000000104e+00 2.031769999999999854e+00 1.313432000000000066e+01 1.760559999999999903e+00 5.082629999999999981e+00 1.313438000000000017e+01 1.699999999999999905e-03 8.129559999999999675e+00 1.313519999999999932e+01 7.039419999999999789e+00 2.030850000000000044e+00 1.313494999999999990e+01 5.280920000000000059e+00 5.083730000000000082e+00 1.313357000000000063e+01 3.519270000000000120e+00 8.127340000000000231e+00 1.313291000000000075e+01 -4.099999999999999912e-04 8.118699999999999806e-01 2.048845999999999989e+01 -1.759239999999999915e+00 3.862210000000000143e+00 2.048400000000000176e+01 -3.522029999999999994e+00 6.910079999999999778e+00 2.048310000000000031e+01 3.522889999999999855e+00 8.130300000000000304e-01 2.048796000000000106e+01 1.761120000000000019e+00 3.863269999999999982e+00 2.048458000000000112e+01 1.940000000000000101e-03 6.911050000000000360e+00 2.048704000000000036e+01 7.038549999999999862e+00 8.125299999999999745e-01 2.048573999999999984e+01 5.278719999999999857e+00 3.861169999999999991e+00 2.048630999999999958e+01 3.518510000000000026e+00 6.908229999999999649e+00 2.048236999999999952e+01 1.055672000000000033e+01 7.100000000000000191e-04 1.132724999999999937e+01 8.798809999999999576e+00 3.046320000000000139e+00 1.132686999999999955e+01 7.038770000000000415e+00 6.094699999999999562e+00 1.132732999999999990e+01 -1.758920000000000039e+00 9.144439999999999458e+00 1.132398000000000060e+01 1.758529999999999927e+00 3.047499999999999876e+00 1.132638000000000034e+01 1.330000000000000019e-03 6.095220000000000304e+00 1.132391999999999932e+01 7.039030000000000342e+00 1.299999999999999940e-03 1.132610000000000028e+01 5.287329999999999863e+00 3.049090000000000078e+00 1.132414999999999949e+01 3.522180000000000089e+00 6.095570000000000377e+00 1.132666000000000039e+01 1.761600000000000055e+00 1.831120000000000081e+00 1.867697000000000074e+01 1.270000000000000078e-03 4.876009999999999955e+00 1.867306999999999917e+01 -1.756369999999999987e+00 7.925119999999999720e+00 1.867775999999999925e+01 5.277840000000000309e+00 1.829769999999999897e+00 1.867306999999999917e+01 3.522879999999999789e+00 4.879010000000000069e+00 1.867898999999999887e+01 1.758539999999999992e+00 7.926630000000000287e+00 1.867574000000000112e+01 8.800000000000000711e+00 1.826549999999999896e+00 1.867401999999999873e+01 7.039769999999999861e+00 4.876380000000000159e+00 1.867603000000000080e+01 5.280450000000000088e+00 7.929240000000000066e+00 1.867394000000000176e+01
-2.079999999999999818e-03 2.035089999999999844e+00 9.513180000000000192e+00 -1.761319999999999997e+00 5.083330000000000126e+00 9.514580000000000481e+00 -3.527460000000000040e+00 8.128610000000000113e+00 9.514549999999999841e+00 3.515800000000000036e+00 2.031050000000000022e+00 9.519800000000000040e+00 1.762359999999999927e+00 5.078500000000000014e+00 9.514929999999999666e+00 -1.240000000000000000e-03 8.127340000000000231e+00 9.511870000000000047e+00 7.039049999999999585e+00 2.034250000000000114e+00 9.512589999999999435e+00 5.285110000000000419e+00 5.077549999999999564e+00 9.514070000000000249e+00 3.517900000000000027e+00 8.128880000000000550e+00 9.521000000000000796e+00 -3.150000000000000022e-03 8.180699999999999639e-01 1.686777999999999977e+01 -1.761519999999999975e+00 3.867030000000000189e+00 1.686370000000000147e+01 -3.522569999999999979e+00 6.908280000000000420e+00 1.686091000000000051e+01 3.521749999999999936e+00 8.134000000000000119e-01 1.685990999999999929e+01 1.759980000000000100e+00 3.859799999999999898e+00 1.686288000000000054e+01 -1.510000000000000057e-03 6.906030000000000335e+00 1.686260000000000048e+01 7.032020000000000159e+00 8.130899999999999794e-01 1.686000999999999905e+01 5.280579999999999607e+00 3.859030000000000182e+00 1.686886000000000152e+01 3.522120000000000140e+00 6.908809999999999896e+00 1.686486000000000018e+01 3.520000000000000125e-03 2.028700000000000170e+00 1.313391000000000020e+01 -1.757830000000000004e+00 5.081120000000000303e+00 1.313452999999999982e+01 -3.522069999999999812e+00 8.130209999999999937e+00 1.313714000000000048e+01 3.522069999999999812e+00 2.031299999999999883e+00 1.313353999999999999e+01 1.761130000000000084e+00 5.084590000000000387e+00 1.313367000000000040e+01 3.399999999999999811e-03 8.130039999999999267e+00 1.313530000000000086e+01 7.038850000000000051e+00 2.029440000000000133e+00 1.313481999999999950e+01 5.281839999999999868e+00 5.086780000000000079e+00 1.313204999999999956e+01 3.518539999999999779e+00 8.125609999999999999e+00 1.313072999999999979e+01 -8.099999999999999561e-04 8.108499999999999597e-01 2.049108000000000018e+01 -1.758480000000000043e+00 3.863100000000000200e+00 2.048216999999999999e+01 -3.524059999999999970e+00 6.910420000000000229e+00 2.048038000000000025e+01 3.525770000000000071e+00 8.131599999999999939e-01 2.049008999999999858e+01 1.762240000000000029e+00 3.865219999999999878e+00 2.048332999999999871e+01 3.880000000000000202e-03 6.912359999999999616e+00 2.048824000000000112e+01 7.037090000000000067e+00 8.121599999999999930e-01 2.048563000000000045e+01 5.277440000000000353e+00 3.861019999999999897e+00 2.048679999999999879e+01 3.517030000000000101e+00 6.906749999999999723e+00 2.047891999999999868e+01 1.055345999999999940e+01 1.430000000000000064e-03 1.132952000000000048e+01 8.797639999999999461e+00 3.044249999999999901e+00 1.132877000000000045e+01 7.037550000000000416e+00 6.092609999999999637e+00 1.132968999999999937e+01 -1.757849999999999913e+00 9.143639999999999546e+00 1.132301000000000002e+01 1.757060000000000066e+00 3.046609999999999818e+00 1.132779000000000025e+01 2.660000000000000038e-03 6.093650000000000233e+00 1.132290000000000063e+01 7.038059999999999761e+00 2.589999999999999854e-03 1.132723000000000013e+01 5.294609999999999594e+00 3.049780000000000157e+00 1.132334999999999958e+01 3.524360000000000159e+00 6.094330000000000247e+00 1.132835000000000036e+01 1.763200000000000101e+00 1.833159999999999901e+00 1.867927999999999855e+01 2.540000000000000157e-03 4.874579999999999913e+00 1.867148999999999859e+01 -1.752760000000000096e+00 7.924380000000000202e+00 1.868083999999999989e+01 5.275699999999999612e+00 1.830480000000000107e+00 1.867148999999999859e+01 3.525739999999999874e+00 4.880539999999999878e+00 1.868327999999999989e+01 1.757090000000000041e+00 7.927389999999999937e+00 1.867680000000000007e+01 8.800000000000000711e+00 1.824060000000000015e+00 1.867339000000000127e+01 7.039530000000000065e+00 4.875300000000000189e+00 1.867737999999999943e+01 5.280890000000000306e+00 7.932599999999999874e+00 1.867322000000000060e+01
-3.119999999999999944e-03 2.036490000000000133e+00 9.512600000000000833e+00 -1.761980000000000102e+00 5.084640000000000271e+00 9.514709999999999113e+00 -3.531190000000000051e+00 8.128360000000000696e+00 9.514670000000000627e+00 3.513720000000000176e+00 2.030440000000000023e+00 9.522510000000000474e+00 1.763549999999999951e+00 5.077399999999999913e+00 9.515209999999999724e+00 -1.860000000000000108e-03 8.126469999999999416e+00 9.510630000000000805e+00 7.038599999999999746e+00 2.035219999999999807e+00 9.511710000000000775e+00 5.287659999999999805e+00 5.075999999999999623e+00 9.513920000000000599e+00 3.516849999999999810e+00 8.128780000000000783e+00 9.524309999999999832e+00 -4.700000000000000185e-03 8.206299999999999706e-01 1.686908999999999992e+01 -1.762289999999999912e+00 3.869829999999999881e+00 1.686298000000000030e+01 -3.523839999999999861e+00 6.907540000000000013e+00 1.685882000000000147e+01 3.522609999999999797e+00 8.136100000000000554e-01 1.685733000000000104e+01 1.760000000000000009e+00 3.859010000000000051e+00 1.686176000000000030e+01 -2.259999999999999856e-03 6.904160000000000075e+00 1.686133999999999844e+01 7.028059999999999974e+00 8.131399999999999739e-01 1.685745999999999967e+01 5.280859999999999665e+00 3.857880000000000198e+00 1.687069999999999936e+01 3.523179999999999978e+00 6.908330000000000304e+00 1.686473000000000155e+01 5.259999999999999919e-03 2.026959999999999873e+00 1.313335000000000008e+01 -1.756739999999999968e+00 5.081369999999999720e+00 1.313424999999999976e+01 -3.523099999999999898e+00 8.130800000000000693e+00 1.313814999999999955e+01 3.523120000000000029e+00 2.030850000000000044e+00 1.313274999999999970e+01 1.761689999999999978e+00 5.086549999999999905e+00 1.313297000000000025e+01 5.080000000000000314e-03 8.130539999999999878e+00 1.313540000000000063e+01 7.038289999999999935e+00 2.028070000000000039e+00 1.313471000000000011e+01 5.282759999999999678e+00 5.089830000000000076e+00 1.313057000000000052e+01 3.517809999999999881e+00 8.123910000000000409e+00 1.312859000000000087e+01 -1.209999999999999921e-03 8.098300000000000498e-01 2.049369000000000085e+01 -1.757710000000000106e+00 3.863970000000000127e+00 2.048034000000000177e+01 -3.526079999999999881e+00 6.910779999999999923e+00 2.047766000000000020e+01 3.528640000000000221e+00 8.132800000000000029e-01 2.049220000000000041e+01 1.763349999999999973e+00 3.867170000000000218e+00 2.048210999999999871e+01 5.819999999999999653e-03 6.913640000000000008e+00 2.048945000000000149e+01 7.035639999999999894e+00 8.117900000000000116e-01 2.048552000000000106e+01 5.276180000000000092e+00 3.860860000000000181e+00 2.048729000000000156e+01 3.515550000000000175e+00 6.905289999999999928e+00 2.047549000000000063e+01 1.055023000000000089e+01 2.150000000000000001e-03 1.133175999999999917e+01 8.796469999999999345e+00 3.042209999999999859e+00 1.133065000000000033e+01 7.036349999999999660e+00 6.090569999999999595e+00 1.133201000000000036e+01 -1.756809999999999983e+00 9.142830000000000013e+00 1.132206000000000046e+01 1.755600000000000049e+00 3.045739999999999892e+00 1.132920000000000016e+01 3.969999999999999571e-03 6.092120000000000424e+00 1.132187000000000054e+01 7.037079999999999558e+00 3.889999999999999795e-03 1.132831999999999972e+01 5.301820000000000199e+00 3.050469999999999793e+00 1.132255999999999929e+01 3.526520000000000099e+00 6.093090000000000117e+00 1.132999000000000045e+01 1.764780000000000015e+00 1.835159999999999902e+00 1.868156000000000105e+01 3.799999999999999992e-03 4.873179999999999623e+00 1.866992000000000118e+01 -1.749190000000000023e+00 7.923650000000000304e+00 1.868384999999999962e+01 5.273570000000000313e+00 1.831180000000000030e+00 1.866994000000000042e+01 3.528560000000000141e+00 4.882039999999999935e+00 1.868748000000000076e+01 1.755640000000000089e+00 7.928119999999999834e+00 1.867782000000000053e+01 8.799970000000000070e+00 1.821600000000000108e+00 1.867276999999999987e+01 7.039290000000000269e+00 4.874220000000000219e+00 1.867871999999999844e+01 5.281329999999999636e+00 7.935940000000000438e+00 1.867248999999999981e+01
-4.170000000000000095e-03 2.037879999999999914e+00 9.512050000000000338e+00 -1.762650000000000050e+00 5.085919999999999774e+00 9.514860000000000539e+00 -3.534899999999999931e+00 8.128119999999999123e+00 9.514810000000000656e+00 3.511670000000000069e+00 2.029850000000000154e+00 9.525230000000000530e+00 1.764739999999999975e+00 5.076299999999999812e+00 9.515510000000000801e+00 -2.469999999999999973e-03 8.125600000000000378e+00 9.509399999999999409e+00 7.038160000000000416e+00 2.036169999999999813e+00 9.510809999999999320e+00 5.290199999999999569e+00 5.074449999999999683e+00 9.513759999999999550e+00 3.515800000000000036e+00 8.128669999999999618e+00 9.527609999999999246e+00 -6.230000000000000294e-03 8.231600000000000028e-01 1.687039000000000044e+01 -1.763050000000000006e+00 3.872570000000000068e+00 1.686227999999999838e+01 -3.525079999999999991e+00 6.906799999999999606e+00 1.685678000000000054e+01 3.523439999999999905e+00 8.137799999999999478e-01 1.685478000000000165e+01 1.760040000000000049e+00 3.858220000000000205e+00 1.686066999999999894e+01 -2.990000000000000036e-03 6.902280000000000193e+00 1.686009999999999920e+01 7.024110000000000298e+00 8.131699999999999484e-01 1.685492999999999952e+01 5.281139999999999723e+00 3.856720000000000148e+00 1.687253000000000114e+01 3.524220000000000130e+00 6.907840000000000202e+00 1.686461999999999861e+01 6.980000000000000093e-03 2.025250000000000217e+00 1.313282000000000060e+01 -1.755649999999999933e+00 5.081629999999999647e+00 1.313397999999999932e+01 -3.524109999999999854e+00 8.131410000000000693e+00 1.313915000000000077e+01 3.524189999999999934e+00 2.030429999999999957e+00 1.313194999999999979e+01 1.762250000000000094e+00 5.088519999999999932e+00 1.313227999999999973e+01 6.749999999999999924e-03 8.131040000000000489e+00 1.313549000000000078e+01 7.037740000000000329e+00 2.026720000000000077e+00 1.313462999999999958e+01 5.283689999999999998e+00 5.092859999999999943e+00 1.312912000000000035e+01 3.517069999999999919e+00 8.122249999999999304e+00 1.312648000000000081e+01 -1.600000000000000077e-03 8.088300000000000489e-01 2.049628999999999834e+01 -1.756950000000000012e+00 3.864819999999999922e+00 2.047851999999999961e+01 -3.528080000000000105e+00 6.911129999999999995e+00 2.047496999999999900e+01 3.531489999999999796e+00 8.134000000000000119e-01 2.049430999999999869e+01 1.764459999999999917e+00 3.869110000000000049e+00 2.048089999999999833e+01 7.749999999999999944e-03 6.914900000000000269e+00 2.049064999999999870e+01 7.034200000000000230e+00 8.114400000000000501e-01 2.048541000000000167e+01 5.274939999999999962e+00 3.860689999999999955e+00 2.048780999999999963e+01 3.514100000000000001e+00 6.903870000000000395e+00 2.047210000000000107e+01 1.054706000000000010e+01 2.890000000000000208e-03 1.133394999999999975e+01 8.795329999999999870e+00 3.040200000000000014e+00 1.133248999999999995e+01 7.035180000000000433e+00 6.088599999999999568e+00 1.133428999999999931e+01 -1.755789999999999962e+00 9.142010000000000858e+00 1.132113000000000014e+01 1.754159999999999942e+00 3.044909999999999783e+00 1.133059000000000083e+01 5.279999999999999971e-03 6.090629999999999988e+00 1.132085999999999970e+01 7.036089999999999733e+00 5.190000000000000169e-03 1.132938000000000045e+01 5.308900000000000396e+00 3.051169999999999938e+00 1.132179999999999964e+01 3.528659999999999908e+00 6.091840000000000366e+00 1.133155999999999963e+01 1.766359999999999930e+00 1.837099999999999955e+00 1.868381000000000114e+01 5.049999999999999802e-03 4.871809999999999974e+00 1.866837999999999909e+01 -1.745679999999999898e+00 7.922920000000000407e+00 1.868677999999999884e+01 5.271469999999999878e+00 1.831849999999999978e+00 1.866842000000000112e+01 3.531340000000000146e+00 4.883479999999999599e+00 1.869153999999999982e+01 1.754189999999999916e+00 7.928829999999999600e+00 1.867876000000000047e+01 8.799910000000000565e+00 1.819180000000000019e+00 1.867214999999999847e+01 7.039039999999999964e+00 4.873160000000000380e+00 1.868000999999999934e+01 5.281749999999999723e+00 7.939230000000000231e+00 1.867174999999999940e+01
-5.230000000000000274e-03 2.039250000000000007e+00 9.511509999999999465e+00 -1.763309999999999933e+00 5.087180000000000035e+00 9.515019999999999811e+00 -3.538600000000000190e+00 8.127860000000000085e+00 9.514989999999999171e+00 3.509659999999999780e+00 2.029269999999999907e+00 9.527950000000000585e+00 1.765949999999999909e+00 5.075199999999999712e+00 9.515800000000000480e+00 -3.069999999999999812e-03 8.124729999999999563e+00 9.508179999999999410e+00 7.037759999999999572e+00 2.037110000000000198e+00 9.509890000000000398e+00 5.292729999999999713e+00 5.072919999999999874e+00 9.513600000000000279e+00 3.514740000000000197e+00 8.128550000000000608e+00 9.530879999999999797e+00 -7.720000000000000299e-03 8.256700000000000150e-01 1.687168000000000134e+01 -1.763819999999999943e+00 3.875249999999999861e+00 1.686158999999999963e+01 -3.526299999999999990e+00 6.906039999999999957e+00 1.685480000000000089e+01 3.524249999999999883e+00 8.139100000000000223e-01 1.685228000000000037e+01 1.760119999999999907e+00 3.857429999999999914e+00 1.685960999999999999e+01 -3.720000000000000216e-03 6.900389999999999802e+00 1.685887999999999920e+01 7.020190000000000374e+00 8.131800000000000139e-01 1.685242999999999824e+01 5.281410000000000160e+00 3.855579999999999785e+00 1.687434000000000012e+01 3.525250000000000217e+00 6.907339999999999591e+00 1.686452999999999847e+01 8.680000000000000215e-03 2.023579999999999934e+00 1.313231999999999999e+01 -1.754559999999999897e+00 5.081889999999999574e+00 1.313371000000000066e+01 -3.525119999999999809e+00 8.132039999999999935e+00 1.314012999999999920e+01 3.525290000000000035e+00 2.030050000000000132e+00 1.313113000000000063e+01 1.762809999999999988e+00 5.090469999999999828e+00 1.313161000000000023e+01 8.399999999999999481e-03 8.131539999999999324e+00 1.313557999999999915e+01 7.037209999999999965e+00 2.025399999999999867e+00 1.313460000000000072e+01 5.284609999999999808e+00 5.095860000000000056e+00 1.312772999999999968e+01 3.516309999999999825e+00 8.120620000000000616e+00 1.312440999999999924e+01 -1.990000000000000015e-03 8.078499999999999570e-01 2.049887000000000015e+01 -1.756180000000000074e+00 3.865650000000000031e+00 2.047670000000000101e+01 -3.530060000000000198e+00 6.911489999999999689e+00 2.047230000000000061e+01 3.534330000000000194e+00 8.135299999999999754e-01 2.049641000000000091e+01 1.765549999999999953e+00 3.871049999999999880e+00 2.047972999999999999e+01 9.690000000000000696e-03 6.916129999999999889e+00 2.049185999999999908e+01 7.032750000000000057e+00 8.111000000000000432e-01 2.048528999999999911e+01 5.273729999999999585e+00 3.860510000000000108e+00 2.048835000000000051e+01 3.512669999999999959e+00 6.902510000000000367e+00 2.046875999999999962e+01 1.054396000000000022e+01 3.629999999999999980e-03 1.133605999999999980e+01 8.794219999999999260e+00 3.038219999999999921e+00 1.133427000000000007e+01 7.034049999999999692e+00 6.086710000000000065e+00 1.133648999999999951e+01 -1.754809999999999981e+00 9.141149999999999665e+00 1.132024000000000008e+01 1.752739999999999965e+00 3.044109999999999872e+00 1.133196000000000048e+01 6.570000000000000319e-03 6.089209999999999567e+00 1.131986000000000026e+01 7.035090000000000288e+00 6.470000000000000057e-03 1.133037000000000027e+01 5.315830000000000055e+00 3.051880000000000148e+00 1.132107000000000063e+01 3.530780000000000030e+00 6.090589999999999726e+00 1.133305000000000007e+01 1.767919999999999936e+00 1.838959999999999928e+00 1.868601999999999919e+01 6.300000000000000044e-03 4.870510000000000339e+00 1.866685000000000016e+01 -1.742240000000000011e+00 7.922220000000000262e+00 1.868958999999999904e+01 5.269409999999999705e+00 1.832500000000000018e+00 1.866694000000000031e+01 3.534050000000000136e+00 4.884859999999999758e+00 1.869543000000000177e+01 1.752739999999999965e+00 7.929520000000000124e+00 1.867960000000000065e+01 8.799810000000000798e+00 1.816820000000000102e+00 1.867154000000000025e+01 7.038770000000000415e+00 4.872099999999999653e+00 1.868126000000000175e+01 5.282160000000000188e+00 7.942479999999999762e+00 1.867098999999999975e+01
-6.300000000000000044e-03 2.040599999999999969e+00 9.510989999999999611e+00 -1.763980000000000103e+00 5.088400000000000034e+00 9.515209999999999724e+00 -3.542300000000000004e+00 8.127599999999999270e+00 9.515209999999999724e+00 3.507690000000000197e+00 2.028709999999999791e+00 9.530659999999999243e+00 1.767160000000000064e+00 5.074089999999999989e+00 9.516099999999999781e+00 -3.650000000000000033e-03 8.123860000000000525e+00 9.506980000000000430e+00 7.037390000000000256e+00 2.038009999999999877e+00 9.508960000000000079e+00 5.295239999999999725e+00 5.071399999999999686e+00 9.513429999999999609e+00 3.513679999999999914e+00 8.128429999999999822e+00 9.534129999999999328e+00 -9.180000000000000659e-03 8.281600000000000072e-01 1.687294999999999945e+01 -1.764590000000000103e+00 3.877860000000000085e+00 1.686092000000000013e+01 -3.527489999999999792e+00 6.905289999999999928e+00 1.685287999999999897e+01 3.525020000000000042e+00 8.140100000000000113e-01 1.684984000000000037e+01 1.760250000000000092e+00 3.856630000000000003e+00 1.685857999999999990e+01 -4.429999999999999910e-03 6.898500000000000298e+00 1.685767999999999844e+01 7.016300000000000203e+00 8.131599999999999939e-01 1.684996999999999900e+01 5.281679999999999708e+00 3.854439999999999866e+00 1.687612999999999985e+01 3.526269999999999794e+00 6.906839999999999868e+00 1.686447000000000074e+01 1.034000000000000023e-02 2.021949999999999914e+00 1.313188000000000066e+01 -1.753460000000000019e+00 5.082169999999999632e+00 1.313345999999999947e+01 -3.526110000000000078e+00 8.132690000000000197e+00 1.314109000000000016e+01 3.526409999999999823e+00 2.029689999999999994e+00 1.313029000000000046e+01 1.763379999999999947e+00 5.092419999999999725e+00 1.313095999999999997e+01 1.001999999999999939e-02 8.132049999999999557e+00 1.313565999999999967e+01 7.036699999999999733e+00 2.024109999999999854e+00 1.313461999999999996e+01 5.285540000000000127e+00 5.098819999999999908e+00 1.312640999999999991e+01 3.515540000000000109e+00 8.119020000000000792e+00 1.312241000000000035e+01 -2.360000000000000119e-03 8.068899999999999961e-01 2.050142999999999915e+01 -1.755400000000000071e+00 3.866449999999999942e+00 2.047490000000000165e+01 -3.532029999999999781e+00 6.911859999999999893e+00 2.046966000000000108e+01 3.537139999999999951e+00 8.136600000000000499e-01 2.049849999999999994e+01 1.766639999999999988e+00 3.872980000000000089e+00 2.047860999999999976e+01 1.161000000000000053e-02 6.917300000000000004e+00 2.049308999999999870e+01 7.031310000000000393e+00 8.107799999999999452e-01 2.048515000000000086e+01 5.272549999999999848e+00 3.860310000000000130e+00 2.048892000000000024e+01 3.511260000000000048e+00 6.901209999999999845e+00 2.046548999999999907e+01 1.054094000000000086e+01 4.380000000000000213e-03 1.133807999999999971e+01 8.793139999999999290e+00 3.036290000000000155e+00 1.133599000000000068e+01 7.032980000000000231e+00 6.084939999999999571e+00 1.133862000000000059e+01 -1.753870000000000040e+00 9.140249999999999986e+00 1.131938000000000066e+01 1.751339999999999897e+00 3.043369999999999909e+00 1.133329999999999949e+01 7.839999999999999747e-03 6.087869999999999671e+00 1.131887000000000043e+01 7.034069999999999823e+00 7.749999999999999944e-03 1.133128999999999920e+01 5.322580000000000311e+00 3.052589999999999915e+00 1.132038000000000011e+01 3.532859999999999889e+00 6.089310000000000223e+00 1.133442999999999934e+01 1.769470000000000098e+00 1.840719999999999912e+00 1.868816999999999950e+01 7.550000000000000287e-03 4.869270000000000209e+00 1.866535999999999973e+01 -1.738879999999999981e+00 7.921529999999999738e+00 1.869226000000000099e+01 5.267389999999999795e+00 1.833110000000000017e+00 1.866552000000000078e+01 3.536690000000000111e+00 4.886160000000000281e+00 1.869911000000000101e+01 1.751290000000000013e+00 7.930170000000000385e+00 1.868034000000000106e+01 8.799649999999999750e+00 1.814519999999999911e+00 1.867094000000000165e+01 7.038479999999999848e+00 4.871059999999999945e+00 1.868243999999999971e+01 5.282540000000000013e+00 7.945669999999999789e+00 1.867021000000000086e+01