-3.384567255000000046e+02
-3.384536266599999976e+02
-3.384447228600000130e+02
-3.384302487699999915e+02
-3.384105889200000092e+02
-3.383862595100000021e+02
-3.383578826400000139e+02
-3.383261578099999838e+02
-3.382918343800000116e+02
-3.382556828699999869e+02
-3.379386704400000099e+02
-3.379415419399999791e+02
-3.379402217800000017e+02
-3.379347537300000113e+02
-3.379252874800000086e+02
-3.379120649299999855e+02
-3.378954176500000131e+02
-3.378757568600000241e+02
-3.378535451999999850e+02
-3.378292906199999948e+02
-3.368138258100000257e+02
-3.368271385099999975e+02
-3.368437429300000190e+02
-3.368634739699999727e+02
-3.368861724000000208e+02
-3.369116732300000194e+02
-3.369397984199999883e+02
-3.369703436500000180e+02
-3.370030773400000044e+02
-3.370377218099999936e+02
-3.377204222299999969e+02
-3.377204346699999746e+02
-3.377189414399999805e+02
-3.377160435299999790e+02
-3.377119496000000254e+02
-3.377069599700000140e+02
-3.377014513999999963e+02
-3.376958532400000195e+02
-3.376906185899999855e+02
-3.376861978900000167e+02
-3.377159272399999850e+02
-3.377136653100000103e+02
-3.377079305899999895e+02
-3.376987592300000074e+02
-3.376862768400000050e+02
-3.376706885500000226e+02
-3.376522700099999952e+02
-3.376313593200000014e+02
-3.376083395800000062e+02
-3.375836276399999747e+02
-3.375305440399999952e+02
-3.375291551999999911e+02
-3.375262961999999902e+02
-3.375220505600000251e+02
-3.375165593699999818e+02
-3.375100173499999983e+02
-3.375026552900000070e+02
-3.374947368900000129e+02
-3.374865373700000077e+02
-3.374783331699999849e+02
-3.378135781500000121e+02
-3.378133967499999812e+02
-3.378081841299999724e+02
-3.377981476300000168e+02
-3.377836244399999828e+02
-3.377650572699999998e+02
-3.377429803699999979e+02
-3.377179935799999839e+02
-3.376907304800000134e+02
-3.376618462900000281e+02
-3.379988328700000011e+02
-3.379905952099999809e+02
-3.379776610600000026e+02
-3.379604005099999995e+02
-3.379393170700000155e+02
-3.379150236699999823e+02
-3.378882083799999805e+02
-3.378596133300000020e+02
-3.378299968399999784e+02
-3.378001106099999902e+02
-3.375226293700000042e+02
-3.375292363400000113e+02
-3.375348690000000147e+02
-3.375395168800000079e+02
-3.375432336399999826e+02
-3.375461334600000214e+02
-3.375483909100000233e+02
-3.375502319199999874e+02
-3.375519203200000220e+02
-3.375537570000000187e+02
-3.376533645800000158e+02
-3.376453118900000163e+02
-3.376324264300000095e+02
-3.376149778199999787e+02
-3.375933586900000023e+02
-3.375680813600000079e+02
-3.375397462600000154e+02
-3.375090304099999798e+02
-3.374766475000000128e+02
-3.374433318999999756e+02
-3.378492763400000172e+02
-3.378528180399999883e+02
-3.378521471399999996e+02
-3.378474078300000087e+02
-3.378388751100000036e+02
-3.378269436900000073e+02
-3.378121093199999905e+02
-3.377949470799999858e+02
-3.377760864599999877e+02
-3.377561896700000261e+02
-3.374281770000000051e+02
-3.374272430600000234e+02
-3.374239649099999951e+02
-3.374183438399999773e+02
-3.374104720700000257e+02
-3.374005369399999950e+02
-3.373888129499999877e+02
-3.373756528399999866e+02
-3.373614702599999760e+02
-3.373467322600000102e+02
-3.358302929600000084e+02
-3.358556793700000185e+02
-3.358907307000000060e+02
-3.359348648999999796e+02
-3.359873504799999751e+02
-3.360473317400000042e+02
-3.361138040800000226e+02
-3.361856441799999970e+02
-3.362616211000000135e+02
-3.363404360600000018e+02
-3.378154365999999982e+02
-3.378081401599999936e+02
-3.377968056400000023e+02
-3.377816735900000253e+02
-3.377630810599999904e+02
-3.377414462099999923e+02
-3.377172513900000013e+02
-3.376910229800000138e+02
-3.376633147599999916e+02
-3.376346771300000000e+02
-3.372124472200000014e+02
-3.372233379200000059e+02
-3.372326004199999829e+02
-3.372400780199999986e+02
-3.372457062700000279e+02
-3.372495157700000163e+02
-3.372516433600000028e+02
-3.372523162800000023e+02
-3.372518485200000100e+02
-3.372506280800000127e+02
-3.378187084300000151e+02
-3.378133955700000115e+02
-3.378049816600000099e+02
-3.377936858900000061e+02
-3.377798541199999818e+02
-3.377639296899999977e+02
-3.377464500799999882e+02
-3.377280012499999771e+02
-3.377092114499999980e+02
-3.376907048900000063e+02
-3.371794954200000234e+02
-3.371743878899999913e+02
-3.371690798299999869e+02
-3.371637322299999937e+02
-3.371585708100000147e+02
-3.371538690099999940e+02
-3.371499294199999781e+02
-3.371470735799999829e+02
-3.371456148099999837e+02
-3.371458516700000132e+02
-3.376733871299999805e+02
-3.376754108599999995e+02
-3.376752559199999837e+02
-3.376729570399999716e+02
-3.376686621900000205e+02
-3.376626257600000258e+02
-3.376551865499999963e+02
-3.376467507500000238e+02
-3.376377768599999740e+02
-3.376287314200000083e+02
-3.377391078200000152e+02
-3.377356391299999814e+02
-3.377286801399999945e+02
-3.377184233699999822e+02
-3.377051491500000111e+02
-3.376892095499999868e+02
-3.376710212599999750e+02
-3.376510476899999844e+02
-3.376297904900000049e+02
-3.376077683899999897e+02
-3.374530814500000133e+02
-3.374515457800000036e+02
-3.374462028099999884e+02
-3.374371619400000100e+02
-3.374246222599999783e+02
-3.374088626600000111e+02
-3.373902293500000269e+02
-3.373691294600000106e+02
-3.373460089199999743e+02
-3.373213410700000168e+02
-3.378609145600000261e+02
-3.378560311699999943e+02
-3.378467915499999776e+02
-3.378334522800000173e+02
-3.378163895100000218e+02
-3.377960928300000205e+02
-3.377731339200000207e+02
-3.377481488099999751e+02
-3.377218019800000093e+02
-3.376947770300000116e+02
-3.376324233999999933e+02
-3.376319203400000220e+02
-3.376270240200000217e+02
-3.376179573599999912e+02
-3.376051286000000005e+02
-3.375891108800000211e+02
-3.375706137700000227e+02
-3.375504447499999969e+02
-3.375294747300000040e+02
-3.375085953199999835e+02
-3.379513796599999864e+02
-3.379462949499999809e+02
-3.379373751699999957e+02
-3.379247960600000056e+02
-3.379088256599999909e+02
-3.378898237899999799e+02
-3.378682151500000259e+02
-3.378444818699999814e+02
-3.378191421999999875e+02
-3.377927367199999935e+02
-3.376690338099999735e+02
-3.376680590000000279e+02
-3.376631043500000260e+02
-3.376543209999999817e+02
-3.376419752699999890e+02
-3.376264387599999850e+02
-3.376081755800000224e+02
-3.375877161399999977e+02
-3.375656433099999845e+02
-3.375425653500000180e+02
-3.367087417999999843e+02
-3.367238427500000171e+02
-3.367418460000000096e+02
-3.367625802100000101e+02
-3.367859438899999986e+02
-3.368118971100000181e+02
-3.368404414199999906e+02
-3.368715814000000250e+02
-3.369053101299999753e+02
-3.369415614700000106e+02
-3.379079022700000223e+02
-3.379111193599999865e+02
-3.379116747699999905e+02
-3.379096593200000029e+02
-3.379052636000000120e+02
-3.378987681300000077e+02
-3.378905333899999732e+02
-3.378809849099999951e+02
-3.378705909799999745e+02
-3.378598423700000239e+02
-3.377944267999999965e+02
-3.377939890299999774e+02
-3.377891104299999938e+02
-3.377799619900000039e+02
-3.377668657099999905e+02
-3.377502774100000238e+02
-3.377307697200000121e+02
-3.377089987400000268e+02
-3.376856774400000063e+02
-3.376615468900000110e+02
-3.377752534499999797e+02
-3.377733845100000281e+02
-3.377673100299999760e+02
-3.377572101200000247e+02
-3.377433736699999827e+02
-3.377261815100000035e+02
-3.377060872499999959e+02
-3.376835980500000005e+02
-3.376592511700000045e+02
-3.376335972100000049e+02
-3.373499352499999873e+02
-3.373434135300000207e+02
-3.373352729999999724e+02
-3.373256088300000215e+02
-3.373145805099999848e+02
-3.373024135399999750e+02
-3.372893865799999844e+02
-3.372758148199999937e+02
-3.372620442099999991e+02
-3.372484375999999884e+02
-3.372626716799999826e+02
-3.372636701199999720e+02
-3.372645560199999863e+02
-3.372654268499999830e+02
-3.372664948400000071e+02
-3.372680629899999758e+02
-3.372705077100000040e+02
-3.372742453199999773e+02
-3.372797034800000233e+02
-3.372872737600000050e+02
-3.374204920600000150e+02
-3.374223759800000266e+02
-3.374235399600000278e+02
-3.374240198200000123e+02
-3.374239052899999933e+02
-3.374233332399999767e+02
-3.374224829799999839e+02
-3.374215699499999914e+02
-3.374208425300000158e+02
-3.374205615999999850e+02
-3.358751342200000067e+02
-3.358822946700000216e+02
-3.358966521500000226e+02
-3.359181140300000266e+02
-3.359465980300000183e+02
-3.359819909099999791e+02
-3.360241338000000155e+02
-3.360727737799999773e+02
-3.361275347800000191e+02
-3.361878833200000258e+02
-3.367410182300000088e+02
-3.367482608400000004e+02
-3.367591027600000189e+02
-3.367733935399999723e+02
-3.367909517900000083e+02
-3.368115628900000047e+02
-3.368349908399999890e+02
-3.368609744999999975e+02
-3.368892385099999842e+02
-3.369194869799999879e+02
-3.382068784800000003e+02
-3.382040852299999756e+02
-3.381969036699999833e+02
-3.381855431100000260e+02
-3.381703109800000107e+02
-3.381516171000000099e+02
-3.381299416699999938e+02
-3.381058219799999733e+02
-3.380798315600000024e+02
-3.380525640000000180e+02
-3.378693829800000117e+02
-3.378711924799999906e+02
-3.378685198900000159e+02
-3.378615272299999788e+02
-3.378505280599999878e+02
-3.378359803000000170e+02
-3.378184493599999882e+02
-3.377985896600000046e+02
-3.377771063399999889e+02
-3.377547277900000040e+02
-3.371042736499999819e+02
-3.371065570299999763e+02
-3.371093211099999962e+02
-3.371125838099999896e+02
-3.371164024999999924e+02
-3.371208777100000020e+02
-3.371261416899999972e+02
-3.371323427599999718e+02
-3.371396303600000124e+02
-3.371481505400000174e+02
-3.371285324699999819e+02
-3.371357025699999781e+02
-3.371425125600000001e+02
-3.371489089600000284e+02
-3.371549120199999834e+02
-3.371606089300000235e+02
-3.371661375900000053e+02
-3.371716775799999937e+02
-3.371774264200000175e+02
-3.371835899100000233e+02
-3.380553491699999995e+02
-3.380453327500000000e+02
-3.380323327099999915e+02
-3.380166833800000177e+02
-3.379988399999999729e+02
-3.379793578499999853e+02
-3.379588612399999761e+02
-3.379380277099999716e+02
-3.379175495599999977e+02
-3.378981176799999844e+02
-3.375638366000000019e+02
-3.375674647199999754e+02
-3.375693430300000273e+02
-3.375695069800000283e+02
-3.375680384199999935e+02
-3.375650631899999894e+02
-3.375607433399999877e+02
-3.375552768399999763e+02
-3.375488836200000264e+02
-3.375418005600000129e+02
-3.375745724600000131e+02
-3.375765322199999900e+02
-3.375765231400000062e+02
-3.375746055199999773e+02
-3.375709368099999779e+02
-3.375657568999999967e+02
-3.375593777000000273e+02
-3.375521636799999783e+02
-3.375445063600000140e+02
-3.375368066899999917e+02
-3.376153887099999906e+02
-3.376065325100000223e+02
-3.375931993799999873e+02
-3.375757238200000074e+02
-3.375545736000000261e+02
-3.375303233299999874e+02
-3.375036395999999854e+02
-3.374752485099999717e+02
-3.374459096200000090e+02
-3.374163920999999959e+02
-3.373387470399999870e+02
-3.373409143499999914e+02
-3.373414357699999755e+02
-3.373405239200000096e+02
-3.373385468500000002e+02
-3.373360084899999833e+02
-3.373335122899999874e+02
-3.373317283900000234e+02
-3.373313491600000020e+02
-3.373330498700000248e+02
-3.373124674000000027e+02
-3.373048320300000000e+02
-3.372956464100000176e+02
-3.372852222000000211e+02
-3.372738852599999859e+02
-3.372619603599999891e+02
-3.372497609800000191e+02
-3.372375772099999836e+02
-3.372256666900000255e+02
-3.372142427300000236e+02
-3.381075869699999998e+02
-3.381089875700000107e+02
-3.381052483199999870e+02
-3.380965785800000276e+02
-3.380833713800000169e+02
-3.380661803599999757e+02
-3.380456859600000143e+02
-3.380226620799999750e+02
-3.379979413199999954e+02
-3.379723807899999883e+02
-3.375567843599999946e+02
-3.375492009399999915e+02
-3.375391942599999879e+02
-3.375270831500000099e+02
-3.375132541599999740e+02
-3.374981549099999825e+02
-3.374822763399999985e+02
-3.374661340100000189e+02
-3.374502572999999757e+02
-3.374351673200000050e+02
-3.377345241300000112e+02
-3.377311219599999959e+02
-3.377259403900000052e+02
-3.377190709800000263e+02
-3.377106513900000095e+02
-3.377008554600000139e+02
-3.376898924700000180e+02
-3.376779972699999917e+02
-3.376654291500000227e+02
-3.376524502199999915e+02
-3.367899311200000056e+02
-3.368097391000000016e+02
-3.368330639299999802e+02
-3.368595952499999839e+02
-3.368890705900000171e+02
-3.369212723200000141e+02
-3.369560100400000238e+02
-3.369931069400000183e+02
-3.370323703299999920e+02
-3.370735761700000239e+02
-3.375795629500000246e+02
-3.375807597799999940e+02
-3.375796304899999996e+02
-3.375761942600000225e+02
-3.375705368600000043e+02
-3.375628120800000147e+02
-3.375532362800000215e+02
-3.375420714599999883e+02
-3.375296250299999770e+02
-3.375162370400000214e+02
-3.371634397000000263e+02
-3.371726069000000052e+02
-3.371846964700000058e+02
-3.371995668199999727e+02
-3.372171142000000259e+02
-3.372372667099999717e+02
-3.372599760599999854e+02
-3.372852043299999991e+02
-3.373129088499999853e+02
-3.373430156699999998e+02
-3.375153996700000221e+02
-3.375230905799999732e+02
-3.375271526000000222e+02
-3.375275210899999934e+02
-3.375242865700000152e+02
-3.375176852700000154e+02
-3.375080864000000247e+02
-3.374959664799999928e+02
-3.374818873099999905e+02
-3.374664698799999769e+02
