-9.999999999999999547e-07 -3.036000000000000070e-03 3.762999999999999852e-03 -1.999999999999999909e-06 -3.036000000000000070e-03 3.763999999999999985e-03 -9.999999999999999547e-07 -3.040000000000000167e-03 3.765000000000000117e-03 -1.999999999999999909e-06 -3.039000000000000035e-03 3.763999999999999985e-03 -9.999999999999999547e-07 -3.037999999999999902e-03 3.763999999999999985e-03 9.999999999999999547e-07 -3.040000000000000167e-03 3.762000000000000153e-03 1.999999999999999909e-06 -3.037999999999999902e-03 3.762000000000000153e-03 3.000000000000000076e-06 -3.036000000000000070e-03 3.762999999999999852e-03 -9.999999999999999547e-07 -3.039000000000000035e-03 3.762000000000000153e-03 3.000000000000000076e-06 -6.533300000000000218e-02 3.236000000000000161e-03 -9.999999999999999547e-07 -6.533200000000000118e-02 3.236000000000000161e-03 -9.999999999999999547e-07 -6.533799999999999331e-02 3.236999999999999860e-03 9.999999999999999547e-07 -6.533100000000000018e-02 3.236000000000000161e-03 0.000000000000000000e+00 -6.533500000000000418e-02 3.237999999999999993e-03 3.000000000000000076e-06 -6.533300000000000218e-02 3.236000000000000161e-03 -3.000000000000000076e-06 -6.533400000000000318e-02 3.236000000000000161e-03 9.999999999999999547e-07 -6.533500000000000418e-02 3.236000000000000161e-03 -1.999999999999999909e-06 -6.533300000000000218e-02 3.236000000000000161e-03 0.000000000000000000e+00 6.812500000000000500e-02 -3.210999999999999879e-03 -9.999999999999999547e-07 6.812300000000000300e-02 -3.213000000000000144e-03 9.999999999999999547e-07 6.811899999999999900e-02 -3.212000000000000011e-03 -3.000000000000000076e-06 6.812100000000000100e-02 -3.210999999999999879e-03 0.000000000000000000e+00 6.812100000000000100e-02 -3.210000000000000180e-03 0.000000000000000000e+00 6.812200000000000200e-02 -3.210000000000000180e-03 1.999999999999999909e-06 6.812300000000000300e-02 -3.210000000000000180e-03 1.999999999999999909e-06 6.812400000000000400e-02 -3.212000000000000011e-03 0.000000000000000000e+00 6.812100000000000100e-02 -3.210999999999999879e-03 3.000000000000000076e-06 4.760000000000000234e-04 -4.383999999999999876e-03 -9.999999999999999547e-07 4.800000000000000122e-04 -4.385000000000000009e-03 -1.999999999999999909e-06 4.749999999999999990e-04 -4.387000000000000274e-03 -9.999999999999999547e-07 4.789999999999999879e-04 -4.383999999999999876e-03 9.999999999999999547e-07 4.769999999999999934e-04 -4.386000000000000142e-03 9.999999999999999547e-07 4.809999999999999823e-04 -4.386000000000000142e-03 -9.999999999999999547e-07 4.780000000000000178e-04 -4.386000000000000142e-03 9.999999999999999547e-07 4.760000000000000234e-04 -4.385000000000000009e-03 3.000000000000000076e-06 4.780000000000000178e-04 -4.387000000000000274e-03 0.000000000000000000e+00 1.890899999999999873e-02 2.180000000000000134e-04 1.999999999999999909e-06 1.891299999999999926e-02 2.169999999999999891e-04 -3.000000000000000076e-06 1.890999999999999973e-02 2.180000000000000134e-04 0.000000000000000000e+00 1.890999999999999973e-02 2.169999999999999891e-04 -9.999999999999999547e-07 1.891299999999999926e-02 2.180000000000000134e-04 9.999999999999999547e-07 1.890899999999999873e-02 2.180000000000000134e-04 -9.999999999999999547e-07 1.890899999999999873e-02 2.180000000000000134e-04 1.999999999999999909e-06 1.891899999999999832e-02 2.169999999999999891e-04 -9.999999999999999547e-07 1.891100000000000073e-02 2.180000000000000134e-04 0.000000000000000000e+00 -1.914099999999999829e-02 2.300000000000000070e-04 -1.999999999999999909e-06 -1.914400000000000129e-02 2.339999999999999958e-04 1.999999999999999909e-06 -1.914099999999999829e-02 2.329999999999999986e-04 0.000000000000000000e+00 -1.913799999999999876e-02 2.359999999999999902e-04 -3.000000000000000076e-06 -1.914000000000000076e-02 2.329999999999999986e-04 -3.000000000000000076e-06 -1.914400000000000129e-02 2.349999999999999930e-04 0.000000000000000000e+00 -1.914000000000000076e-02 2.339999999999999958e-04 3.000000000000000076e-06 -1.914700000000000082e-02 2.339999999999999958e-04 -1.999999999999999909e-06 -1.913899999999999976e-02 2.359999999999999902e-04
-6.140999999999999757e-03 -1.777000000000000107e-02 2.031700000000000172e-02 -9.479999999999999495e-04 -2.658500000000000099e-02 2.109499999999999917e-02 1.268099999999999956e-02 -6.545999999999999736e-03 3.236499999999999794e-02 3.204300000000000204e-02 9.650000000000000591e-03 -2.700000000000000035e-04 6.720000000000000279e-03 -5.813999999999999724e-03 6.727000000000000340e-03 8.777999999999999345e-03 2.220000000000000022e-04 1.344899999999999915e-02 2.487100000000000075e-02 -2.179800000000000140e-02 -8.234000000000000000e-03 -1.170500000000000013e-02 9.244000000000000480e-03 -2.560999999999999908e-03 -1.837000000000000091e-03 -5.333000000000000067e-03 -1.698300000000000157e-02 2.913200000000000164e-02 -6.722400000000000597e-02 -8.869999999999999413e-03 -1.139999999999999954e-03 -1.039729999999999960e-01 1.663600000000000148e-02 2.551399999999999849e-02 -5.080500000000000294e-02 5.298499999999999738e-02 -2.426800000000000138e-02 -8.151100000000000012e-02 4.633600000000000219e-02 3.216600000000000015e-02 -5.252899999999999930e-02 2.969000000000000111e-02 1.133400000000000032e-02 -5.253300000000000330e-02 2.051400000000000098e-02 2.649100000000000066e-02 -6.980999999999999706e-02 2.905100000000000043e-02 -6.139000000000000359e-03 -4.188100000000000156e-02 -1.263399999999999940e-02 -1.127500000000000030e-02 -5.560999999999999971e-02 2.198599999999999860e-02 -2.447099999999999970e-02 8.336999999999999966e-02 3.127699999999999925e-02 1.077000000000000049e-03 5.859799999999999731e-02 3.818000000000000213e-03 1.162400000000000065e-02 6.677400000000000002e-02 -1.747699999999999948e-02 1.972399999999999848e-02 7.897200000000000053e-02 -1.736199999999999896e-02 -6.939999999999999555e-04 4.370899999999999785e-02 1.256299999999999951e-02 -1.970900000000000082e-02 5.283399999999999902e-02 -7.759000000000000272e-03 1.630799999999999958e-02 7.695200000000000651e-02 3.493000000000000271e-02 1.448000000000000068e-03 2.342199999999999838e-02 4.360699999999999993e-02 -8.467999999999999833e-03 8.183200000000000196e-02 4.056499999999999689e-02 7.893000000000000710e-03 1.955799999999999900e-02 -2.002599999999999866e-02 2.837999999999999811e-03 -2.153300000000000006e-02 5.139999999999999604e-03 1.738200000000000162e-02 4.433000000000000308e-03 2.055999999999999842e-02 -1.981899999999999981e-02 1.518999999999999951e-03 -1.264900000000000052e-02 -8.172999999999999710e-03 -6.509000000000000029e-03 2.693200000000000108e-02 -4.767000000000000404e-03 -3.296999999999999931e-02 -3.029999999999999924e-04 3.212000000000000011e-03 1.436300000000000077e-02 -9.887999999999999221e-03 2.518300000000000052e-02 -9.870000000000000301e-03 1.790299999999999878e-02 2.021799999999999986e-02 4.425500000000000267e-02 4.151599999999999735e-02 4.622600000000000320e-02 1.977399999999999991e-02 -4.641599999999999893e-02 1.863599999999999979e-02 4.007700000000000151e-02 -3.462799999999999906e-02 2.680300000000000044e-02 7.120799999999999352e-02 -4.343600000000000239e-02 -2.511299999999999991e-02 -4.745000000000000086e-03 2.033400000000000138e-02 1.281799999999999953e-02 4.041999999999999760e-02 -1.396700000000000025e-02 -1.088899999999999937e-02 5.560099999999999765e-02 7.924000000000000488e-03 -8.668000000000000357e-03 8.332000000000000864e-03 -3.799399999999999999e-02 -1.025859999999999966e-01 1.587900000000000075e-02 1.954900000000000040e-02 -1.827799999999999911e-02 8.229000000000000203e-03 -5.544700000000000323e-02 -1.054599999999999982e-02 -6.614200000000000634e-02 -2.943399999999999836e-02 -5.259999999999999919e-03 2.403599999999999834e-02 1.747999999999999901e-02 -4.850899999999999657e-02 -2.906000000000000163e-03 -7.685799999999999577e-02 2.474099999999999910e-02 -3.202200000000000185e-02 2.870199999999999835e-02 -4.289699999999999763e-02 -5.528299999999999881e-02 -1.134899999999999937e-01 2.504999999999999848e-03 -3.272800000000000015e-02 -6.063199999999999840e-02 -2.636099999999999902e-02 2.254199999999999954e-02 5.540999999999999918e-03 -9.504999999999999560e-03 -5.246999999999999928e-03 -3.214600000000000096e-02 -1.060400000000000058e-02 -4.606199999999999878e-02 -1.090299999999999950e-02
-1.213400000000000069e-02 -3.215099999999999902e-02 3.656700000000000228e-02 -1.832000000000000078e-03 -4.965800000000000075e-02 3.795699999999999769e-02 2.537299999999999972e-02 -9.868000000000000035e-03 6.042100000000000248e-02 6.373199999999999699e-02 2.222599999999999923e-02 -4.769999999999999934e-03 1.330500000000000085e-02 -8.585999999999999882e-03 9.456000000000000863e-03 1.739800000000000027e-02 3.529000000000000019e-03 2.291100000000000081e-02 4.987699999999999773e-02 -4.057499999999999996e-02 -2.060899999999999885e-02 -2.326399999999999996e-02 2.159799999999999914e-02 -9.152999999999999678e-03 -3.710999999999999889e-03 -7.558999999999999747e-03 -3.790899999999999825e-02 5.814799999999999830e-02 -6.910600000000000076e-02 -2.135300000000000045e-02 -2.337999999999999801e-03 -1.419459999999999888e-01 2.961199999999999943e-02 5.011800000000000282e-02 -3.668199999999999933e-02 1.013399999999999995e-01 -4.815500000000000336e-02 -9.716900000000000537e-02 8.847800000000000109e-02 6.334900000000000253e-02 -4.025499999999999912e-02 5.508199999999999902e-02 2.242200000000000096e-02 -3.969600000000000212e-02 3.745699999999999724e-02 5.270799999999999791e-02 -7.418099999999999694e-02 5.448700000000000071e-02 -1.210199999999999991e-02 -1.832400000000000001e-02 -2.891000000000000167e-02 -2.227499999999999966e-02 -4.587700000000000111e-02 4.015099999999999919e-02 -4.889399999999999996e-02 9.864399999999999558e-02 6.595299999999999774e-02 2.093999999999999941e-03 4.905700000000000338e-02 1.070699999999999950e-02 2.307700000000000029e-02 6.527299999999999769e-02 -3.157700000000000090e-02 3.891000000000000014e-02 8.941100000000000436e-02 -3.103500000000000009e-02 -1.425000000000000051e-03 1.933500000000000149e-02 2.839900000000000063e-02 -3.934300000000000297e-02 3.764399999999999691e-02 -1.209600000000000085e-02 3.262199999999999822e-02 8.564399999999999791e-02 7.321400000000000130e-02 2.699000000000000010e-03 -2.144799999999999832e-02 9.124300000000000466e-02 -1.713999999999999899e-02 9.544199999999999906e-02 8.433799999999999630e-02 1.554200000000000026e-02 3.832100000000000090e-02 -3.553800000000000014e-02 5.689999999999999745e-03 -4.343000000000000332e-02 1.471800000000000018e-02 3.479100000000000248e-02 8.408000000000000543e-03 4.531600000000000211e-02 -3.954599999999999782e-02 2.423999999999999939e-03 -2.082399999999999876e-02 -1.639499999999999985e-02 -1.355100000000000054e-02 5.825299999999999923e-02 -9.492999999999999702e-03 -6.591500000000000137e-02 4.152000000000000308e-03 6.544000000000000337e-03 2.797799999999999940e-02 -1.530399999999999990e-02 5.051200000000000134e-02 -2.038600000000000134e-02 4.043200000000000266e-02 4.034299999999999692e-02 8.890099999999999392e-02 8.811099999999999488e-02 9.230599999999999916e-02 2.044899999999999843e-02 -9.280399999999999761e-02 3.730800000000000088e-02 6.070099999999999801e-02 -6.894300000000000428e-02 5.392700000000000271e-02 1.233999999999999958e-01 -8.714099999999999624e-02 -4.991799999999999710e-02 -2.818800000000000125e-02 4.025800000000000212e-02 2.542700000000000168e-02 6.175400000000000333e-02 -2.813999999999999835e-02 -2.168799999999999895e-02 9.193099999999999883e-02 1.536500000000000019e-02 -1.728000000000000022e-02 -2.177000000000000116e-03 -7.590900000000000425e-02 -2.041499999999999981e-01 1.330699999999999938e-02 3.892400000000000027e-02 -3.663799999999999696e-02 -2.367000000000000180e-03 -1.110109999999999986e-01 -2.107600000000000098e-02 -1.125730000000000064e-01 -5.866699999999999693e-02 -1.052799999999999916e-02 6.646599999999999731e-02 3.428699999999999803e-02 -9.601600000000000412e-02 1.316499999999999962e-02 -1.520289999999999975e-01 4.924599999999999811e-02 -4.508500000000000008e-02 5.712899999999999923e-02 -8.494200000000000361e-02 -9.151299999999999712e-02 -2.266150000000000109e-01 4.961000000000000132e-03 -4.603999999999999759e-02 -1.206919999999999937e-01 -5.255599999999999855e-02 6.374599999999999711e-02 1.144000000000000052e-02 -1.885600000000000123e-02 8.330999999999999864e-03 -6.405299999999999883e-02 -2.117300000000000085e-02 -7.268800000000000261e-02 -2.185300000000000090e-02
-1.784499999999999975e-02 -4.616499999999999770e-02 5.234599999999999670e-02 -2.539000000000000024e-03 -7.216799999999999604e-02 5.413799999999999862e-02 3.818300000000000166e-02 -1.291199999999999987e-02 8.755100000000000382e-02 9.495800000000000074e-02 3.457400000000000057e-02 -9.839000000000000523e-03 1.963499999999999968e-02 -1.125999999999999918e-02 1.189899999999999985e-02 2.578000000000000083e-02 6.891000000000000424e-03 3.205899999999999722e-02 7.479600000000000137e-02 -5.926499999999999824e-02 -3.324900000000000078e-02 -3.473500000000000199e-02 3.401499999999999663e-02 -1.598300000000000068e-02 -5.545999999999999715e-03 -9.745000000000000190e-03 -5.909999999999999976e-02 8.692999999999999339e-02 -7.109200000000000241e-02 -3.432600000000000234e-02 -3.503000000000000037e-03 -1.791099999999999914e-01 4.205500000000000210e-02 7.369900000000000062e-02 -2.298100000000000143e-02 1.479820000000000024e-01 -7.152200000000000224e-02 -1.121999999999999942e-01 1.294140000000000013e-01 9.333900000000000530e-02 -2.854399999999999993e-02 7.929799999999999349e-02 3.322200000000000153e-02 -2.683800000000000074e-02 5.380700000000000066e-02 7.865800000000000569e-02 -7.840300000000000047e-02 7.936500000000000499e-02 -1.788700000000000012e-02 5.199999999999999761e-03 -4.562299999999999689e-02 -3.297699999999999937e-02 -3.617200000000000276e-02 5.749400000000000344e-02 -7.319499999999999618e-02 1.139320000000000055e-01 1.006289999999999962e-01 3.001000000000000195e-03 3.954599999999999782e-02 1.745800000000000129e-02 3.429100000000000203e-02 6.362400000000000000e-02 -4.534599999999999742e-02 5.736399999999999832e-02 9.937500000000000500e-02 -4.405900000000000094e-02 -2.186000000000000009e-03 -4.922000000000000160e-03 4.415800000000000280e-02 -5.887900000000000078e-02 2.259999999999999856e-02 -1.614399999999999863e-02 4.886700000000000071e-02 9.424699999999999744e-02 1.113399999999999945e-01 3.690999999999999837e-03 -6.631099999999999495e-02 1.393850000000000089e-01 -2.589999999999999941e-02 1.088879999999999987e-01 1.277580000000000104e-01 2.289100000000000162e-02 5.669799999999999840e-02 -5.094900000000000123e-02 8.484999999999999487e-03 -6.502199999999999647e-02 2.439099999999999949e-02 5.220899999999999846e-02 1.236800000000000052e-02 6.980300000000000393e-02 -5.920299999999999868e-02 3.144999999999999792e-03 -2.896699999999999969e-02 -2.462200000000000152e-02 -2.069800000000000112e-02 8.926000000000000600e-02 -1.428899999999999962e-02 -9.819500000000000450e-02 8.772999999999999549e-03 1.001400000000000033e-02 4.119600000000000345e-02 -2.055600000000000135e-02 7.582300000000000151e-02 -3.092699999999999963e-02 6.281000000000000472e-02 6.032099999999999962e-02 1.341279999999999972e-01 1.350220000000000031e-01 1.379920000000000035e-01 2.090499999999999997e-02 -1.384799999999999920e-01 5.591600000000000042e-02 8.077600000000000058e-02 -1.024100000000000010e-01 8.115500000000000491e-02 1.751399999999999901e-01 -1.304949999999999999e-01 -7.427599999999999481e-02 -5.114699999999999802e-02 5.992800000000000210e-02 3.777200000000000002e-02 8.282000000000000473e-02 -4.213499999999999884e-02 -3.228099999999999720e-02 1.276750000000000107e-01 2.260399999999999909e-02 -2.573399999999999993e-02 -1.262199999999999954e-02 -1.131500000000000006e-01 -3.041929999999999912e-01 1.116699999999999984e-02 5.829299999999999760e-02 -5.503600000000000159e-02 -1.269400000000000042e-02 -1.659090000000000009e-01 -3.153700000000000253e-02 -1.580820000000000003e-01 -8.721600000000000186e-02 -1.581099999999999867e-02 1.078930000000000028e-01 5.069900000000000101e-02 -1.423319999999999863e-01 2.892600000000000032e-02 -2.247349999999999903e-01 7.331200000000000216e-02 -5.822399999999999798e-02 8.540999999999999981e-02 -1.259419999999999984e-01 -1.276869999999999949e-01 -3.382350000000000079e-01 7.403999999999999991e-03 -5.904399999999999926e-02 -1.794169999999999932e-01 -7.839699999999999447e-02 1.042759999999999937e-01 1.792900000000000049e-02 -2.805600000000000108e-02 2.159200000000000008e-02 -9.519800000000000484e-02 -3.172500000000000320e-02 -9.907499999999999640e-02 -3.239399999999999918e-02
-2.319500000000000034e-02 -5.974499999999999950e-02 6.755700000000000593e-02 -3.007000000000000124e-03 -9.403300000000000547e-02 6.953399999999999859e-02 5.115499999999999908e-02 -1.561300000000000014e-02 1.134720000000000034e-01 1.255819999999999992e-01 4.656899999999999928e-02 -1.550900000000000022e-02 2.559799999999999923e-02 -1.376899999999999999e-02 1.393499999999999947e-02 3.383699999999999902e-02 1.033300000000000017e-02 4.079100000000000087e-02 9.939299999999999524e-02 -7.770100000000000617e-02 -4.594999999999999779e-02 -4.608899999999999803e-02 4.642399999999999999e-02 -2.301399999999999973e-02 -7.297999999999999800e-03 -1.189499999999999932e-02 -8.057699999999999585e-02 1.152750000000000025e-01 -7.319299999999999418e-02 -4.774300000000000072e-02 -4.577000000000000339e-03 -2.152989999999999904e-01 5.392600000000000171e-02 9.615100000000000036e-02 -9.738999999999999393e-03 1.926239999999999897e-01 -9.423399999999999832e-02 -1.264949999999999963e-01 1.689400000000000068e-01 1.218999999999999945e-01 -1.749799999999999967e-02 1.021979999999999972e-01 4.366500000000000242e-02 -1.398699999999999943e-02 6.936499999999999611e-02 1.042799999999999977e-01 -8.241300000000000014e-02 1.035760000000000014e-01 -2.343100000000000044e-02 2.848099999999999937e-02 -6.284499999999999809e-02 -4.334899999999999864e-02 -2.650399999999999978e-02 7.375400000000000011e-02 -9.729999999999999760e-02 1.291799999999999893e-01 1.350040000000000129e-01 3.762999999999999852e-03 3.011700000000000141e-02 2.394599999999999854e-02 4.517800000000000288e-02 6.183199999999999807e-02 -5.870899999999999730e-02 7.492500000000000548e-02 1.087859999999999938e-01 -5.632500000000000007e-02 -2.941000000000000038e-03 -2.891499999999999973e-02 5.973799999999999943e-02 -7.823399999999999799e-02 7.793999999999999713e-03 -1.985500000000000112e-02 6.495099999999999485e-02 1.027649999999999952e-01 1.488849999999999896e-01 4.410999999999999990e-03 -1.108999999999999986e-01 1.876210000000000100e-01 -3.465000000000000024e-02 1.220890000000000031e-01 1.703820000000000057e-01 2.987000000000000072e-02 7.463000000000000189e-02 -6.634600000000000219e-02 1.116800000000000084e-02 -8.614299999999999735e-02 3.409500000000000031e-02 6.959799999999999320e-02 1.628599999999999839e-02 9.386999999999999511e-02 -7.876400000000000068e-02 3.609999999999999928e-03 -3.714400000000000340e-02 -3.278999999999999970e-02 -2.800000000000000058e-02 1.196699999999999986e-01 -1.922799999999999856e-02 -1.295499999999999985e-01 1.334300000000000069e-02 1.364300000000000061e-02 5.386599999999999722e-02 -2.568099999999999897e-02 1.008949999999999986e-01 -4.135199999999999987e-02 8.475399999999999601e-02 8.000899999999999679e-02 1.795760000000000134e-01 1.818110000000000004e-01 1.829280000000000073e-01 2.113100000000000048e-02 -1.829530000000000045e-01 7.427100000000000368e-02 1.001800000000000052e-01 -1.346900000000000042e-01 1.082010000000000055e-01 2.259649999999999992e-01 -1.730679999999999996e-01 -9.801500000000000490e-02 -7.339199999999999890e-02 7.921899999999999775e-02 4.974399999999999655e-02 1.034479999999999983e-01 -5.579300000000000231e-02 -4.256499999999999867e-02 1.625379999999999880e-01 2.966500000000000040e-02 -3.393600000000000089e-02 -2.289499999999999869e-02 -1.493109999999999993e-01 -4.019440000000000235e-01 9.442000000000000740e-03 7.754199999999999982e-02 -7.331999999999999629e-02 -2.262099999999999875e-02 -2.195269999999999999e-01 -4.190900000000000181e-02 -2.022799999999999876e-01 -1.148160000000000014e-01 -2.110899999999999929e-02 1.479540000000000022e-01 6.667499999999999816e-02 -1.871549999999999880e-01 4.424299999999999761e-02 -2.943370000000000153e-01 9.679200000000000303e-02 -7.135900000000000576e-02 1.133760000000000046e-01 -1.656259999999999954e-01 -1.635179999999999967e-01 -4.472260000000000124e-01 9.842999999999999319e-03 -7.160700000000000398e-02 -2.361769999999999980e-01 -1.036289999999999989e-01 1.438580000000000136e-01 2.495299999999999949e-02 -3.701299999999999729e-02 3.447999999999999676e-02 -1.252500000000000002e-01 -4.219099999999999934e-02 -1.250519999999999965e-01 -4.229800000000000226e-02
-2.806900000000000020e-02 -7.283299999999999497e-02 8.206499999999999906e-02 -3.164000000000000146e-03 -1.151490000000000014e-01 8.403099999999999459e-02 6.434600000000000042e-02 -1.792099999999999943e-02 1.378979999999999928e-01 1.554599999999999871e-01 5.808900000000000174e-02 -2.178199999999999928e-02 3.107100000000000140e-02 -1.606700000000000142e-02 1.546999999999999938e-02 4.148299999999999904e-02 1.386500000000000059e-02 4.903099999999999820e-02 1.234200000000000019e-01 -9.574699999999999878e-02 -5.855199999999999988e-02 -5.729299999999999671e-02 5.876800000000000079e-02 -3.022599999999999940e-02 -8.930999999999999703e-03 -1.400900000000000062e-02 -1.023899999999999949e-01 1.430059999999999942e-01 -7.542899999999999605e-02 -6.154599999999999654e-02 -5.509000000000000008e-03 -2.503710000000000102e-01 6.519400000000000195e-02 1.173980000000000024e-01 3.024999999999999911e-03 2.350409999999999999e-01 -1.161750000000000005e-01 -1.399729999999999863e-01 2.068699999999999983e-01 1.488549999999999873e-01 -7.186999999999999812e-03 1.236840000000000023e-01 5.368799999999999961e-02 -1.154999999999999994e-03 8.393799999999999872e-02 1.295159999999999922e-01 -8.616000000000000048e-02 1.270090000000000108e-01 -2.869299999999999976e-02 5.133200000000000263e-02 -8.061500000000000610e-02 -5.336099999999999871e-02 -1.689500000000000030e-02 8.871600000000000319e-02 -1.210829999999999962e-01 1.443520000000000081e-01 1.688080000000000136e-01 4.348000000000000302e-03 2.084599999999999995e-02 3.006400000000000045e-02 5.568000000000000033e-02 5.989699999999999885e-02 -7.158299999999999386e-02 9.142400000000000526e-02 1.175790000000000030e-01 -6.776799999999999491e-02 -3.686000000000000040e-03 -5.252799999999999830e-02 7.500800000000000523e-02 -9.732799999999999785e-02 -6.694000000000000297e-03 -2.322400000000000159e-02 8.077199999999999658e-02 1.111879999999999952e-01 1.854600000000000137e-01 4.865000000000000401e-03 -1.549490000000000034e-01 2.355319999999999914e-01 -4.330699999999999827e-02 1.349829999999999919e-01 2.117930000000000090e-01 3.641599999999999698e-02 9.206100000000000394e-02 -8.180099999999999871e-02 1.366400000000000080e-02 -1.066259999999999986e-01 4.377700000000000341e-02 8.692199999999999926e-02 2.012600000000000153e-02 1.173570000000000030e-01 -9.821699999999999875e-02 3.746999999999999897e-03 -4.540999999999999898e-02 -4.082000000000000212e-02 -3.550299999999999984e-02 1.491820000000000090e-01 -2.438299999999999843e-02 -1.597429999999999961e-01 1.764200000000000143e-02 1.745000000000000023e-02 6.583799999999999375e-02 -3.069500000000000006e-02 1.255159999999999887e-01 -5.150099999999999817e-02 1.059530000000000055e-01 9.928599999999999925e-02 2.248560000000000003e-01 2.280000000000000082e-01 2.268070000000000086e-01 2.112400000000000042e-02 -2.257490000000000052e-01 9.221600000000000630e-02 1.188339999999999952e-01 -1.654789999999999872e-01 1.348010000000000042e-01 2.754489999999999994e-01 -2.144189999999999985e-01 -1.209719999999999962e-01 -9.471200000000000452e-02 9.798400000000000165e-02 6.125699999999999895e-02 1.234819999999999945e-01 -6.897100000000000453e-02 -5.242399999999999838e-02 1.962579999999999880e-01 3.655400000000000316e-02 -4.182899999999999813e-02 -3.292300000000000088e-02 -1.840130000000000099e-01 -4.966700000000000004e-01 8.077000000000000846e-03 9.653399999999999481e-02 -9.137000000000000677e-02 -3.203299999999999897e-02 -2.712620000000000031e-01 -5.215199999999999697e-02 -2.448180000000000078e-01 -1.412009999999999932e-01 -2.640800000000000092e-02 1.863390000000000046e-01 8.219899999999999429e-02 -2.302349999999999952e-01 5.898099999999999871e-02 -3.602679999999999771e-01 1.195289999999999964e-01 -8.438500000000000167e-02 1.408580000000000110e-01 -2.037360000000000004e-01 -1.987119999999999997e-01 -5.524959999999999871e-01 1.230900000000000050e-02 -8.363600000000000201e-02 -2.903919999999999835e-01 -1.280189999999999939e-01 1.822390000000000121e-01 3.242699999999999749e-02 -4.565700000000000314e-02 4.696000000000000174e-02 -1.539010000000000100e-01 -5.251100000000000212e-02 -1.504949999999999899e-01 -5.136299999999999893e-02
-3.236399999999999694e-02 -8.538900000000000656e-02 9.576199999999999990e-02 -2.939999999999999905e-03 -1.354269999999999918e-01 9.754200000000000370e-02 7.780499999999999916e-02 -1.978200000000000097e-02 1.605910000000000115e-01 1.844709999999999961e-01 6.903199999999999614e-02 -2.866600000000000051e-02 3.593799999999999772e-02 -1.810499999999999957e-02 1.642700000000000063e-02 4.864500000000000074e-02 1.749799999999999967e-02 5.672100000000000058e-02 1.466330000000000133e-01 -1.132610000000000006e-01 -7.088099999999999956e-02 -6.831600000000000172e-02 7.099099999999999855e-02 -3.759400000000000241e-02 -1.039900000000000026e-02 -1.607799999999999854e-02 -1.245700000000000002e-01 1.699559999999999960e-01 -7.782500000000000528e-02 -7.566499999999999615e-02 -6.232999999999999825e-03 -2.841940000000000022e-01 7.583700000000000163e-02 1.373790000000000011e-01 1.530600000000000016e-02 2.750460000000000127e-01 -1.372329999999999939e-01 -1.525650000000000062e-01 2.430710000000000093e-01 1.740369999999999973e-01 2.333000000000000004e-03 1.436830000000000052e-01 6.322300000000000142e-02 1.163299999999999924e-02 9.735199999999999410e-02 1.543299999999999950e-01 -8.958199999999999497e-02 1.495859999999999967e-01 -3.362899999999999917e-02 7.355799999999999839e-02 -9.896800000000000042e-02 -6.298900000000000332e-02 -7.348999999999999630e-03 1.021829999999999961e-01 -1.444340000000000068e-01 1.593920000000000059e-01 2.017720000000000069e-01 4.730999999999999962e-03 1.181199999999999958e-02 3.570799999999999669e-02 6.573099999999999776e-02 5.783100000000000046e-02 -8.390599999999999448e-02 1.067160000000000053e-01 1.257010000000000072e-01 -7.831299999999999373e-02 -4.414000000000000389e-03 -7.564800000000000690e-02 8.983700000000000019e-02 -1.160879999999999967e-01 -2.079900000000000151e-02 -2.624500000000000097e-02 9.623099999999999710e-02 1.195050000000000001e-01 2.206919999999999993e-01 5.054999999999999598e-03 -1.982009999999999883e-01 2.827040000000000108e-01 -5.177400000000000058e-02 1.474989999999999912e-01 2.515749999999999931e-01 4.247599999999999987e-02 1.089259999999999950e-01 -9.738800000000000234e-02 1.592299999999999965e-02 -1.263160000000000116e-01 5.338199999999999890e-02 1.041279999999999983e-01 2.387399999999999939e-02 1.401050000000000073e-01 -1.175439999999999957e-01 3.491999999999999878e-03 -5.383399999999999991e-02 -4.865300000000000180e-02 -4.324800000000000172e-02 1.775110000000000021e-01 -2.983099999999999988e-02 -1.885719999999999896e-01 2.143700000000000119e-02 2.144599999999999979e-02 7.698099999999999388e-02 -3.562900000000000095e-02 1.494709999999999928e-01 -6.122899999999999870e-02 1.261019999999999919e-01 1.180409999999999932e-01 2.695690000000000031e-01 2.730879999999999974e-01 2.693229999999999791e-01 2.088599999999999832e-02 -2.664020000000000277e-01 1.096010000000000040e-01 1.366539999999999977e-01 -1.944909999999999972e-01 1.606869999999999965e-01 3.232070000000000221e-01 -2.541229999999999878e-01 -1.429999999999999882e-01 -1.149199999999999944e-01 1.160940000000000027e-01 7.221700000000000341e-02 1.427680000000000060e-01 -8.152099999999999624e-02 -6.174799999999999733e-02 2.285909999999999886e-01 4.329000000000000209e-02 -4.935300000000000104e-02 -4.265100000000000141e-02 -2.168849999999999945e-01 -5.876780000000000337e-01 7.013000000000000136e-03 1.151380000000000042e-01 -1.090509999999999952e-01 -4.082199999999999718e-02 -3.205270000000000064e-01 -6.223100000000000159e-02 -2.853720000000000145e-01 -1.661279999999999979e-01 -3.169099999999999695e-02 2.227609999999999868e-01 9.725000000000000311e-02 -2.713380000000000236e-01 7.301900000000000057e-02 -4.220140000000000002e-01 1.413820000000000077e-01 -9.720199999999999674e-02 1.676739999999999897e-01 -2.400500000000000134e-01 -2.329749999999999877e-01 -6.529869999999999841e-01 1.482600000000000064e-02 -9.503999999999999948e-02 -3.415150000000000130e-01 -1.513519999999999865e-01 2.191710000000000047e-01 4.025600000000000012e-02 -5.392899999999999777e-02 5.899499999999999883e-02 -1.808599999999999930e-01 -6.263100000000000611e-02 -1.752809999999999924e-01 -5.941199999999999953e-02