 vasp.6.1.1 19Jun20 (build Dec 21 2021 08:45:49) complex                        
  
 executed on             LinuxIFC date 2023.10.07  17:34:50
 running on   40 total cores
 distrk:  each k-point on   40 cores,    1 groups
 distr:  one band on NCORE=   1 cores,   40 groups


--------------------------------------------------------------------------------------------------------


 INCAR:
 POTCAR:   PAW_PBE Te 08Apr2002                   
 POTCAR:   PAW_PBE Mo 08Apr2002                   
 -----------------------------------------------------------------------------
|                                                                             |
|           W    W    AA    RRRRR   N    N  II  N    N   GGGG   !!!           |
|           W    W   A  A   R    R  NN   N  II  NN   N  G    G  !!!           |
|           W    W  A    A  R    R  N N  N  II  N N  N  G       !!!           |
|           W WW W  AAAAAA  RRRRR   N  N N  II  N  N N  G  GGG   !            |
|           WW  WW  A    A  R   R   N   NN  II  N   NN  G    G                |
|           W    W  A    A  R    R  N    N  II  N    N   GGGG   !!!           |
|                                                                             |
|     For optimal performance we recommend to set                             |
|       NCORE = 4 - approx SQRT(number of cores).                             |
|     NCORE specifies how many cores store one orbital (NPAR=cpu/NCORE).      |
|     This setting can greatly improve the performance of VASP for DFT.       |
|     The default, NCORE=1 might be grossly inefficient on modern             |
|     multi-core architectures or massively parallel machines. Do your        |
|     own testing!!!!                                                         |
|     Unfortunately you need to use the default for GW and RPA                |
|     calculations (for HF NCORE is supported but not extensively tested      |
|     yet).                                                                   |
|                                                                             |
 -----------------------------------------------------------------------------

 POTCAR:   PAW_PBE Te 08Apr2002                   
   VRHFIN =Te: s2p4                                                                                 
   LEXCH  = PE                                                                                      
   EATOM  =   223.2721 eV,   16.4100 Ry                                                             
                                                                                                    
   TITEL  = PAW_PBE Te 08Apr2002                                                                    
   LULTRA =        F    use ultrasoft PP ?                                                          
   IUNSCR =        1    unscreen: 0-lin 1-nonlin 2-no                                               
   RPACOR =    2.200    partial core radius                                                         
   POMASS =  127.600; ZVAL   =    6.000    mass and valenz                                          
   RCORE  =    2.300    outmost cutoff radius                                                       
   RWIGS  =    2.900; RWIGS  =    1.535    wigner-seitz radius (au A)                               
   ENMAX  =  174.982; ENMIN  =  131.236 eV                                                          
   ICORE  =        3    local potential                                                             
   LCOR   =        T    correct aug charges                                                         
   LPAW   =        T    paw PP                                                                      
   EAUG   =  368.792                                                                                
   DEXC   =    -.169                                                                                
   RMAX   =    3.486    core radius for proj-oper                                                   
   RAUG   =    1.300    factor for augmentation sphere                                              
   RDEP   =    2.397    radius for radial grids                                                     
   QCUT   =   -3.586; QGAM   =    7.172    optimization parameters                                  
                                                                                                    
   Description                                                                                      
     l     E      TYP  RCUT    TYP  RCUT                                                            
     0   .000     23  2.300                                                                         
     0   .000     23  2.300                                                                         
     1   .000     23  2.300                                                                         
     1   .000     23  2.300                                                                         
     2   .000     23  2.300                                                                         
     3  -.100     23  2.300                                                                         
  local pseudopotential read in
  partial core-charges read in
  atomic valenz-charges read in
  non local Contribution for L=           0  read in
    real space projection operators read in
  non local Contribution for L=           0  read in
    real space projection operators read in
  non local Contribution for L=           1  read in
    real space projection operators read in
  non local Contribution for L=           1  read in
    real space projection operators read in
  non local Contribution for L=           2  read in
    real space projection operators read in
    PAW grid and wavefunctions read in
 
   number of l-projection  operators is LMAX  =           5
   number of lm-projection operators is LMMAX =          13
 
 POTCAR:   PAW_PBE Mo 08Apr2002                   
   VRHFIN =Mo: 4p5s4d                                                                               
   LEXCH  = PE                                                                                      
   EATOM  =   217.5180 eV,   15.9871 Ry                                                             
                                                                                                    
   TITEL  = PAW_PBE Mo 08Apr2002                                                                    
   LULTRA =        F    use ultrasoft PP ?                                                          
   IUNSCR =        1    unscreen: 0-lin 1-nonlin 2-no                                               
   RPACOR =    2.200    partial core radius                                                         
   POMASS =   95.940; ZVAL   =    6.000    mass and valenz                                          
   RCORE  =    2.750    outmost cutoff radius                                                       
   RWIGS  =    2.750; RWIGS  =    1.455    wigner-seitz radius (au A)                               
   ENMAX  =  224.584; ENMIN  =  168.438 eV                                                          
   RCLOC  =    2.111    cutoff for local pot                                                        
   LCOR   =        T    correct aug charges                                                         
   LPAW   =        T    paw PP                                                                      
   EAUG   =  345.278                                                                                
   DEXC   =    -.088                                                                                
   RMAX   =    3.077    core radius for proj-oper                                                   
   RAUG   =    1.300    factor for augmentation sphere                                              
   RDEP   =    2.815    radius for radial grids                                                     
   QCUT   =   -4.063; QGAM   =    8.126    optimization parameters                                  
                                                                                                    
   Description                                                                                      
     l     E      TYP  RCUT    TYP  RCUT                                                            
     2   .000     23  2.500                                                                         
     2   .000     23  2.500                                                                         
     0   .000     23  2.600                                                                         
     0  1.000     23  2.600                                                                         
     1   .400     23  2.750                                                                         
     1  2.000     23  2.750                                                                         
     3   .000      7   .000                                                                         
  local pseudopotential read in
  partial core-charges read in
  atomic valenz-charges read in
  non local Contribution for L=           2  read in
    real space projection operators read in
  non local Contribution for L=           2  read in
    real space projection operators read in
  non local Contribution for L=           0  read in
    real space projection operators read in
  non local Contribution for L=           0  read in
    real space projection operators read in
  non local Contribution for L=           1  read in
    real space projection operators read in
  non local Contribution for L=           1  read in
    real space projection operators read in
    PAW grid and wavefunctions read in
 
   number of l-projection  operators is LMAX  =           6
   number of lm-projection operators is LMMAX =          18
 
 -----------------------------------------------------------------------------
|                                                                             |
|               ----> ADVICE to this user running VASP <----                  |
|                                                                             |
|     You have a (more or less) 'large supercell' and for larger cells it     |
|     might be more efficient to use real-space projection operators.         |
|     Therefore, try LREAL= Auto in the INCAR file.                           |
|     Mind: If you want to do very accurate calculations, keep the            |
|     reciprocal projection scheme (i.e. LREAL=.FALSE.).                      |
|                                                                             |
 -----------------------------------------------------------------------------

 PAW_PBE Te 08Apr2002                   :
 energy of atom  1       EATOM= -223.2721
 kinetic energy error for atom=    0.0006 (will be added to EATOM!!)
 PAW_PBE Mo 08Apr2002                   :
 energy of atom  2       EATOM= -217.5180
 kinetic energy error for atom=    0.0009 (will be added to EATOM!!)
 
 
 POSCAR: Te Mo
  positions in cartesian coordinates
  No initial velocities read in
 exchange correlation table for  LEXCH =        8
   RHO(1)=    0.500       N(1)  =     2000
   RHO(2)=  100.500       N(2)  =     4000
 


--------------------------------------------------------------------------------------------------------


 ion  position               nearest neighbor table
   1  0.222  0.111  0.683-  41 2.74  37 2.76  40 2.78   7 3.52   4 3.52   5 3.55   9 3.56   3 3.57
                             2 3.58
   2  0.222  0.445  0.683-  42 2.73  38 2.77  41 2.79   8 3.52   5 3.52   6 3.55   7 3.55   3 3.57
                             1 3.58
   3  0.222  0.778  0.683-  40 2.75  39 2.76  42 2.79   9 3.51   6 3.52   8 3.55   4 3.57   2 3.57
                             1 3.57
   4  0.556  0.112  0.683-  44 2.74  40 2.77  43 2.78   1 3.52   7 3.52   8 3.55   3 3.57   5 3.57
                             6 3.59
   5  0.555  0.444  0.683-  45 2.75  41 2.77  44 2.79   2 3.52   8 3.52   1 3.55   9 3.56   4 3.57
                             6 3.58
   6  0.556  0.778  0.683-  43 2.74  42 2.76  45 2.77   9 3.52   3 3.52   2 3.55   7 3.56   5 3.58
                             4 3.59
   7  0.889  0.112  0.683-  38 2.74  43 2.77  37 2.77   1 3.52   4 3.52   2 3.55   6 3.56   8 3.58
                             9 3.58
   8  0.889  0.445  0.683-  39 2.74  44 2.76  38 2.78   2 3.52   5 3.52   3 3.55   4 3.55   9 3.57
                             7 3.58
   9  0.889  0.778  0.683-  37 2.74  45 2.77  39 2.78   3 3.51   6 3.52   5 3.56   1 3.56   8 3.57
                             7 3.58
  10  0.111  0.111  0.438-  47 2.75  52 2.76  46 2.78  16 3.51  13 3.52  14 3.55  18 3.56  12 3.58
                            11 3.58
  11  0.111  0.445  0.438-  48 2.74  53 2.77  47 2.79  17 3.51  14 3.52  16 3.56  15 3.56  12 3.57
                            10 3.58
  12  0.111  0.778  0.438-  46 2.75  54 2.77  48 2.79  18 3.52  15 3.52  13 3.56  17 3.56  11 3.57
                            10 3.58
  13  0.445  0.111  0.438-  50 2.74  46 2.76  49 2.78  10 3.52  16 3.52  17 3.55  12 3.56  15 3.57
                            14 3.58
  14  0.444  0.444  0.438-  51 2.74  47 2.76  50 2.78  17 3.52  11 3.52  10 3.55  18 3.55  13 3.58
                            15 3.58
  15  0.445  0.778  0.438-  49 2.75  48 2.77  51 2.79  18 3.51  12 3.52  16 3.55  11 3.56  13 3.57
                            14 3.58
  16  0.778  0.111  0.438-  53 2.75  49 2.77  52 2.77  10 3.51  13 3.52  15 3.55  11 3.56  18 3.57
                            17 3.58
  17  0.777  0.444  0.438-  54 2.75  50 2.76  53 2.79  11 3.51  14 3.52  13 3.55  12 3.56  18 3.58
                            16 3.58
  18  0.778  0.778  0.438-  52 2.74  51 2.76  54 2.79  15 3.51  12 3.52  14 3.55  10 3.56  16 3.57
                            17 3.58
  19  0.222  0.111  0.562-  40 2.73  37 2.74  41 2.80  25 3.52  22 3.52  27 3.55  23 3.56  21 3.57
                            20 3.58
  20  0.222  0.444  0.562-  41 2.74  38 2.75  42 2.81  26 3.52  23 3.52  25 3.55  24 3.55  21 3.58
                            19 3.58
  21  0.222  0.778  0.562-  39 2.74  42 2.75  40 2.81  27 3.51  24 3.52  22 3.56  26 3.56  19 3.57
                            20 3.58
  22  0.555  0.111  0.562-  40 2.74  43 2.74  44 2.81  19 3.52  25 3.52  26 3.55  21 3.56  23 3.57
                            24 3.58
  23  0.555  0.444  0.562-  44 2.74  41 2.74  45 2.81  26 3.52  20 3.52  19 3.56  27 3.56  22 3.57
                            24 3.58
  24  0.555  0.778  0.562-  45 2.74  42 2.75  43 2.81  21 3.52  27 3.52  20 3.55  25 3.56  22 3.58
                            23 3.58
  25  0.889  0.111  0.562-  37 2.75  43 2.75  38 2.81  19 3.52  22 3.52  20 3.55  24 3.56  26 3.57
                            27 3.58
  26  0.889  0.444  0.562-  44 2.73  38 2.73  39 2.81  20 3.52  23 3.52  22 3.55  21 3.56  25 3.57
                            27 3.58
  27  0.889  0.778  0.562-  39 2.74  45 2.75  37 2.82  21 3.51  24 3.52  19 3.55  23 3.56  25 3.58
                            26 3.58
  28  0.111  0.111  0.317-  46 2.75  52 2.75  47 2.82  34 3.52  31 3.53  32 3.55  36 3.56  30 3.57
                            29 3.58
  29  0.111  0.445  0.317-  53 2.74  47 2.74  48 2.81  32 3.51  35 3.52  33 3.55  34 3.56  28 3.58
                            30 3.58
  30  0.111  0.778  0.317-  54 2.73  48 2.75  46 2.81  36 3.52  33 3.52  31 3.55  35 3.56  28 3.57
                            29 3.58
  31  0.445  0.111  0.317-  49 2.74  46 2.75  50 2.82  34 3.51  28 3.53  30 3.55  35 3.56  33 3.57
                            32 3.59
  32  0.444  0.444  0.317-  47 2.73  50 2.74  51 2.81  29 3.51  35 3.52  28 3.55  36 3.56  33 3.58
                            31 3.59
  33  0.444  0.778  0.317-  48 2.74  51 2.74  49 2.81  36 3.52  30 3.52  34 3.55  29 3.55  31 3.57
                            32 3.58
  34  0.777  0.111  0.317-  49 2.74  52 2.75  53 2.81  31 3.51  28 3.52  33 3.55  29 3.56  35 3.58
                            36 3.58
  35  0.778  0.444  0.317-  53 2.74  50 2.74  54 2.80  29 3.52  32 3.52  31 3.56  30 3.56  36 3.58
                            34 3.58
  36  0.778  0.778  0.317-  51 2.74  54 2.74  52 2.82  30 3.52  33 3.52  32 3.56  28 3.56  35 3.58
                            34 3.58
  37  0.000  0.000  0.623-  19 2.74   9 2.74  25 2.75   1 2.76   7 2.77  27 2.82
  38  0.999  0.333  0.622-  26 2.73   7 2.74  20 2.75   2 2.77   8 2.78  25 2.81
  39  0.000  0.667  0.622-  21 2.74   8 2.74  27 2.74   3 2.76   9 2.78  26 2.81
  40  0.333  0.000  0.622-  19 2.73  22 2.74   3 2.75   4 2.77   1 2.78  21 2.81
  41  0.333  0.333  0.622-  23 2.74  20 2.74   1 2.74   5 2.77   2 2.79  19 2.80
  42  0.333  0.666  0.622-   2 2.73  21 2.75  24 2.75   6 2.76   3 2.79  20 2.81
  43  0.666  1.000  0.622-   6 2.74  22 2.74  25 2.75   7 2.77   4 2.78  24 2.81
  44  0.668  0.334  0.622-  26 2.73  23 2.74   4 2.74   8 2.76   5 2.79  22 2.81
  45  0.666  0.667  0.622-  24 2.74   5 2.75  27 2.75   9 2.77   6 2.77  23 2.81
  46  0.222  0.000  0.378-  12 2.75  31 2.75  28 2.75  13 2.76  10 2.78  30 2.81
  47  0.223  0.334  0.378-  32 2.73  29 2.74  10 2.75  14 2.76  11 2.79  28 2.82
  48  0.223  0.667  0.378-  33 2.74  11 2.74  30 2.75  15 2.77  12 2.79  29 2.81
  49  0.556  0.000  0.378-  31 2.74  34 2.74  15 2.75  16 2.77  13 2.78  33 2.81
  50  0.556  0.333  0.378-  35 2.74  32 2.74  13 2.74  17 2.76  14 2.78  31 2.82
  51  0.556  0.667  0.378-  36 2.74  33 2.74  14 2.74  18 2.76  15 2.79  32 2.81
  52  0.889  0.000  0.378-  18 2.74  34 2.75  28 2.75  10 2.76  16 2.77  36 2.82
  53  0.889  0.333  0.378-  29 2.74  35 2.74  16 2.75  11 2.77  17 2.79  34 2.81
  54  0.889  0.666  0.377-  30 2.73  36 2.74  17 2.75  12 2.77  18 2.79  35 2.80
 

IMPORTANT INFORMATION: All symmetrisations will be switched off!
NOSYMM: (Re-)initialisation of all symmetry stuff for point group C_1.


----------------------------------------------------------------------------------------

                                     Primitive cell                                     

  volume of cell :    3013.6758

  direct lattice vectors                    reciprocal lattice vectors
    10.552558508  0.000000000  0.000000000     0.094763748  0.054390718 -0.000947407
    -5.341619408  9.306585692  0.000000000     0.000000000  0.107450792 -0.002485928
    -0.100692256  0.709949205 30.686572656     0.000000000  0.000000000  0.032587543

  length of vectors
    10.552558508 10.730584100 30.694949229     0.109267634  0.107479544  0.032587543

  position of ions in fractional coordinates (direct lattice)
     0.222301191  0.111113025  0.682772355
     0.222231976  0.445055331  0.682677627
     0.221572684  0.777643619  0.682958581
     0.556105430  0.112072429  0.682753476
     0.555078338  0.444106609  0.682821472
     0.555652460  0.777739792  0.682723966
     0.889409165  0.111572081  0.682627455
     0.888980409  0.444782496  0.682741398
     0.888709994  0.777512153  0.682719560
     0.111279575  0.111489613  0.438120315
     0.110770248  0.444760320  0.438166855
     0.110769258  0.777857396  0.438147059
     0.444579513  0.110931126  0.437988176
     0.444464286  0.444433100  0.437954291
     0.445013390  0.778479696  0.438289088
     0.778101322  0.110715434  0.438186235
     0.777483757  0.444200910  0.438121677
     0.777600329  0.777728125  0.438100100
     0.221818173  0.110545448  0.562136374
     0.222158965  0.444342430  0.561903576
     0.222143228  0.777883710  0.561952229
     0.555456525  0.111190051  0.561924992
     0.555468774  0.443990078  0.561871750
     0.555428175  0.777627270  0.561910755
     0.888858869  0.111108381  0.561855263
     0.888681936  0.443746801  0.561999502
     0.889289097  0.777837929  0.561856258
     0.110919937  0.111139427  0.317006469
     0.111203922  0.444622628  0.317267661
     0.111243472  0.778476091  0.317373549
     0.444803096  0.110507697  0.317094725
     0.444118156  0.444305015  0.317193511
     0.444445326  0.777899259  0.317251301
     0.777414077  0.110978677  0.317130571
     0.777789136  0.444468906  0.317205883
     0.777548002  0.777570714  0.317303553
     0.000118983  0.000313901  0.622548795
     0.999182740  0.333137064  0.622375209
     0.000157133  0.666681943  0.622397313
     0.332673875  0.000327910  0.622318004
     0.332945749  0.332666005  0.622273141
     0.332879447  0.666233087  0.622495164
     0.666080817  0.999583671  0.622489843
     0.667501375  0.333624164  0.622227042
     0.665963775  0.666682326  0.622353005
     0.222209498  0.000196118  0.377741347
     0.222504671  0.333860045  0.377519013
     0.222769783  0.666664696  0.377767941
     0.555636632  0.000171527  0.377656785
     0.555518675  0.333286610  0.377672895
     0.555523745  0.666621498  0.377654561
     0.888637573  0.000173580  0.377924994
     0.889027477  0.333335131  0.377538676
     0.888829763  0.665950443  0.377467104

  ion indices of the primitive-cell ions
   primitive index   ion index
                 1           1
                 2           2
                 3           3
                 4           4
                 5           5
                 6           6
                 7           7
                 8           8
                 9           9
                10          10
                11          11
                12          12
                13          13
                14          14
                15          15
                16          16
                17          17
                18          18
                19          19
                20          20
                21          21
                22          22
                23          23
                24          24
                25          25
                26          26
                27          27
                28          28
                29          29
                30          30
                31          31
                32          32
                33          33
                34          34
                35          35
                36          36
                37          37
                38          38
                39          39
                40          40
                41          41
                42          42
                43          43
                44          44
                45          45
                46          46
                47          47
                48          48
                49          49
                50          50
                51          51
                52          52
                53          53
                54          54

----------------------------------------------------------------------------------------

 
 

Automatic generation of k-mesh.
 generate k-points for:    3    3    1
Space group operators:
 irot       det(A)        alpha          n_x          n_y          n_z        tau_x        tau_y        tau_z
    1     1.000000     0.000001     1.000000     0.000000     0.000000     0.000000     0.000000     0.000000
 
 Subroutine IBZKPT returns following result:
 ===========================================
 
 Found      5 irreducible k-points:
 
 Following reciprocal coordinates:
            Coordinates               Weight
  0.000000  0.000000  0.000000      1.000000
  0.333333 -0.000000 -0.000000      2.000000
  0.000000  0.333333  0.000000      2.000000
  0.333333  0.333333  0.000000      2.000000
 -0.333333  0.333333  0.000000      2.000000
 
 Following cartesian coordinates:
            Coordinates               Weight
  0.000000  0.000000  0.000000      1.000000
  0.031588  0.018130 -0.000316      2.000000
  0.000000  0.035817 -0.000829      2.000000
  0.031588  0.053947 -0.001144      2.000000
 -0.031588  0.017687 -0.000513      2.000000
 


--------------------------------------------------------------------------------------------------------




 Dimension of arrays:
   k-points           NKPTS =      5   k-points in BZ     NKDIM =      5   number of bands    NBANDS=    200
   number of dos      NEDOS =    301   number of ions     NIONS =     54
   non local maximal  LDIM  =      6   non local SUM 2l+1 LMDIM =     18
   total plane-waves  NPLWV = ******
   max r-space proj   IRMAX =      1   max aug-charges    IRDMAX=  36273
   dimension x,y,z NGX =    84 NGY =   84 NGZ =  240
   dimension x,y,z NGXF=   168 NGYF=  168 NGZF=  480
   support grid    NGXF=   168 NGYF=  168 NGZF=  480
   ions per type =              36  18
   NGX,Y,Z   is equivalent  to a cutoff of  13.23, 13.01, 13.00 a.u.
   NGXF,Y,Z  is equivalent  to a cutoff of  26.47, 26.03, 26.00 a.u.

 SYSTEM =  dpgen_md                                
 POSCAR =  Te Mo                                   

 Startparameter for this run:
   NWRITE =      2    write-flag & timer
   PREC   = a         normal or accurate (medium, high low for compatibility)
   ISTART =      0    job   : 0-new  1-cont  2-samecut
   ICHARG =      2    charge: 1-file 2-atom 10-const
   ISPIN  =      1    spin polarized calculation?
   LNONCOLLINEAR =      F non collinear calculations
   LSORBIT =      F    spin-orbit coupling
   INIWAV =      1    electr: 0-lowe 1-rand  2-diag
   LASPH  =      F    aspherical Exc in radial PAW
   METAGGA=      F    non-selfconsistent MetaGGA calc.

 Electronic Relaxation 1
   ENCUT  =  550.0 eV  40.42 Ry    6.36 a.u.  20.18 20.52 58.70*2*pi/ulx,y,z
   ENINI  =  550.0     initial cutoff
   ENAUG  =  368.8 eV  augmentation charge cutoff
   NELM   =    100;   NELMIN=  6; NELMDL= -5     # of ELM steps 
   EDIFF  = 0.1E-05   stopping-criterion for ELM
   LREAL  =      F    real-space projection
   NLSPLINE    = F    spline interpolate recip. space projectors
   LCOMPAT=      F    compatible to vasp.4.4
   GGA_COMPAT  = T    GGA compatible to vasp.4.4-vasp.4.6
   LMAXPAW     = -100 max onsite density
   LMAXMIX     =    2 max onsite mixed and CHGCAR
   VOSKOWN=      0    Vosko Wilk Nusair interpolation
   ROPT   =    0.00000   0.00000
 Ionic relaxation
   EDIFFG = 0.1E-04   stopping-criterion for IOM
   NSW    =     10    number of steps for IOM
   NBLOCK =      1;   KBLOCK =      1    inner block; outer block 
   IBRION =      0    ionic relax: 0-MD 1-quasi-New 2-CG
   NFREE  =      0    steps in history (QN), initial steepest desc. (CG)
   ISIF   =      2    stress and relaxation
   IWAVPR =     11    prediction:  0-non 1-charg 2-wave 3-comb
   ISYM   =      0    0-nonsym 1-usesym 2-fastsym
   LCORR  =      T    Harris-Foulkes like correction to forces

   POTIM  = 2.0000    time-step for ionic-motion
   TEIN   =  100.0    initial temperature
   TEBEG  =  100.0;   TEEND  = 100.0 temperature during run
   SMASS  =   0.04    Nose mass-parameter (am)
   estimated Nose-frequenzy (Omega)   =  0.79E+14 period in steps = 0.40E+02 mass=   0.327E-28a.u.
   SCALEE = 1.0000    scale energy and forces
   NPACO  =    256;   APACO  = 16.0  distance and # of slots for P.C.
   PSTRESS=    0.0 pullay stress

  Mass of Ions in am
   POMASS = 127.60 95.94
  Ionic Valenz
   ZVAL   =   6.00  6.00
  Atomic Wigner-Seitz radii
   RWIGS  =  -1.00 -1.00
  virtual crystal weights 
   VCA    =   1.00  1.00
   NELECT =     324.0000    total number of electrons
   NUPDOWN=      -1.0000    fix difference up-down

 DOS related values:
   EMIN   =  10.00;   EMAX   =-10.00  energy-range for DOS
   EFERMI =   0.00
   ISMEAR =     0;   SIGMA  =   0.10  broadening in eV -4-tet -1-fermi 0-gaus

 Electronic relaxation 2 (details)
   IALGO  =     68    algorithm
   LDIAG  =      T    sub-space diagonalisation (order eigenvalues)
   LSUBROT=      F    optimize rotation matrix (better conditioning)
   TURBO    =      0    0=normal 1=particle mesh
   IRESTART =      0    0=no restart 2=restart with 2 vectors
   NREBOOT  =      0    no. of reboots
   NMIN     =      0    reboot dimension
   EREF     =   0.00    reference energy to select bands
   IMIX   =      4    mixing-type and parameters
     AMIX     =   0.40;   BMIX     =  1.00
     AMIX_MAG =   1.60;   BMIX_MAG =  1.00
     AMIN     =   0.10
     WC   =   100.;   INIMIX=   1;  MIXPRE=   1;  MAXMIX= -45

 Intra band minimization:
   WEIMIN = 0.0010     energy-eigenvalue tresh-hold
   EBREAK =  0.13E-08  absolut break condition
   DEPER  =   0.30     relativ break condition  

   TIME   =   0.40     timestep for ELM

  volume/ion in A,a.u.               =      55.81       376.62
  Fermi-wavevector in a.u.,A,eV,Ry     =   0.778439  1.471036  8.244675  0.605967
  Thomas-Fermi vector in A             =   1.881335
 
 Write flags
   LWAVE        =      F    write WAVECAR
   LDOWNSAMPLE  =      F    k-point downsampling of WAVECAR
   LCHARG       =      F    write CHGCAR
   LVTOT        =      F    write LOCPOT, total local potential
   LVHAR        =      F    write LOCPOT, Hartree potential only
   LELF         =      F    write electronic localiz. function (ELF)
   LORBIT       =      0    0 simple, 1 ext, 2 COOP (PROOUT), +10 PAW based schemes


 Dipole corrections
   LMONO  =      F    monopole corrections only (constant potential shift)
   LDIPOL =      F    correct potential (dipole corrections)
   IDIPOL =      0    1-x, 2-y, 3-z, 4-all directions 
   EPSILON=  1.0000000 bulk dielectric constant

 Exchange correlation treatment:
   GGA     =    --    GGA type
   LEXCH   =     8    internal setting for exchange type
   VOSKOWN=      0    Vosko Wilk Nusair interpolation
   LHFCALC =     F    Hartree Fock is set to
   LHFONE  =     F    Hartree Fock one center treatment
   AEXX    =    0.0000 exact exchange contribution

 Linear response parameters
   LEPSILON=     F    determine dielectric tensor
   LRPA    =     F    only Hartree local field effects (RPA)
   LNABLA  =     F    use nabla operator in PAW spheres
   LVEL    =     F    velocity operator in full k-point grid
   LINTERFAST=   F  fast interpolation
   KINTER  =     0    interpolate to denser k-point grid
   CSHIFT  =0.1000    complex shift for real part using Kramers Kronig
   OMEGAMAX=  -1.0    maximum frequency
   DEG_THRESHOLD= 0.2000000E-02 threshold for treating states as degnerate
   RTIME   =   -0.100 relaxation time in fs
  (WPLASMAI=    0.000 imaginary part of plasma frequency in eV, 0.658/RTIME)
   DFIELD  = 0.0000000 0.0000000 0.0000000 field for delta impulse in time
 
 Orbital magnetization related:
   ORBITALMAG=     F  switch on orbital magnetization
   LCHIMAG   =     F  perturbation theory with respect to B field
   DQ        =  0.001000  dq finite difference perturbation B field
   LLRAUG    =     F  two centre corrections for induced B field



--------------------------------------------------------------------------------------------------------


 molecular dynamics for ions
   using nose mass (canonical ensemble)
 charge density and potential will be updated during run
 non-spin polarized calculation
 RMM-DIIS sequential band-by-band and
  variant of blocked Davidson during initial phase
 perform sub-space diagonalisation
    before iterative eigenvector-optimisation
 modified Broyden-mixing scheme, WC =      100.0
 initial mixing is a Kerker type mixing with AMIX =  0.4000 and BMIX =      1.0000
 Hartree-type preconditioning will be used
 using additional bands           38
 reciprocal scheme for non local part
 use partial core corrections
 calculate Harris-corrections to forces 
   (improved forces if not selfconsistent)
 use gradient corrections 
 use of overlap-Matrix (Vanderbilt PP)
 Gauss-broadening in eV      SIGMA  =   0.10


--------------------------------------------------------------------------------------------------------


  energy-cutoff  :      550.00
  volume of cell :     3013.68
      direct lattice vectors                 reciprocal lattice vectors
    10.552558508  0.000000000  0.000000000     0.094763748  0.054390718 -0.000947407
    -5.341619408  9.306585692  0.000000000     0.000000000  0.107450792 -0.002485928
    -0.100692256  0.709949205 30.686572656     0.000000000  0.000000000  0.032587543

  length of vectors
    10.552558508 10.730584100 30.694949229     0.109267634  0.107479544  0.032587543


 
 k-points in units of 2pi/SCALE and weight: read from INCAR                         
   0.00000000  0.00000000  0.00000000       0.111
   0.03158792  0.01813024 -0.00031580       0.222
   0.00000000  0.03581693 -0.00082864       0.222
   0.03158792  0.05394717 -0.00114444       0.222
  -0.03158792  0.01768669 -0.00051284       0.222
 
 k-points in reciprocal lattice and weights: read from INCAR                         
   0.00000000  0.00000000  0.00000000       0.111
   0.33333333 -0.00000000 -0.00000000       0.222
   0.00000000  0.33333333  0.00000000       0.222
   0.33333333  0.33333333  0.00000000       0.222
  -0.33333333  0.33333333  0.00000000       0.222
 
 position of ions in fractional coordinates (direct lattice) 
   0.22230119  0.11111303  0.68277235
   0.22223198  0.44505533  0.68267763
   0.22157268  0.77764362  0.68295858
   0.55610543  0.11207243  0.68275348
   0.55507834  0.44410661  0.68282147
   0.55565246  0.77773979  0.68272397
   0.88940916  0.11157208  0.68262746
   0.88898041  0.44478250  0.68274140
   0.88870999  0.77751215  0.68271956
   0.11127958  0.11148961  0.43812032
   0.11077025  0.44476032  0.43816686
   0.11076926  0.77785740  0.43814706
   0.44457951  0.11093113  0.43798818
   0.44446429  0.44443310  0.43795429
   0.44501339  0.77847970  0.43828909
   0.77810132  0.11071543  0.43818623
   0.77748376  0.44420091  0.43812168
   0.77760033  0.77772813  0.43810010
   0.22181817  0.11054545  0.56213637
   0.22215896  0.44434243  0.56190358
   0.22214323  0.77788371  0.56195223
   0.55545653  0.11119005  0.56192499
   0.55546877  0.44399008  0.56187175
   0.55542817  0.77762727  0.56191076
   0.88885887  0.11110838  0.56185526
   0.88868194  0.44374680  0.56199950
   0.88928910  0.77783793  0.56185626
   0.11091994  0.11113943  0.31700647
   0.11120392  0.44462263  0.31726766
   0.11124347  0.77847609  0.31737355
   0.44480310  0.11050770  0.31709472
   0.44411816  0.44430502  0.31719351
   0.44444533  0.77789926  0.31725130
   0.77741408  0.11097868  0.31713057
   0.77778914  0.44446891  0.31720588
   0.77754800  0.77757071  0.31730355
   0.00011898  0.00031390  0.62254880
   0.99918274  0.33313706  0.62237521
   0.00015713  0.66668194  0.62239731
   0.33267388  0.00032791  0.62231800
   0.33294575  0.33266601  0.62227314
   0.33287945  0.66623309  0.62249516
   0.66608082  0.99958367  0.62248984
   0.66750138  0.33362416  0.62222704
   0.66596377  0.66668233  0.62235300
   0.22220950  0.00019612  0.37774135
   0.22250467  0.33386005  0.37751901
   0.22276978  0.66666470  0.37776794
   0.55563663  0.00017153  0.37765678
   0.55551868  0.33328661  0.37767290
   0.55552374  0.66662150  0.37765456
   0.88863757  0.00017358  0.37792499
   0.88902748  0.33333513  0.37753868
   0.88882976  0.66595044  0.37746710
 
 position of ions in cartesian coordinates  (Angst):
   1.68357294  1.51881658 20.95194347
  -0.10094061  4.62661201 20.94903659
  -1.88448617  7.72207288 20.95765812
   5.20093884  1.52773195 20.95136414
   3.41649332  4.61788478 20.95345071
   1.64042011  7.72280135 20.95045859
   8.72083136  1.52298595 20.94749700
   6.93641219  4.62411812 20.95099350
   5.15624563  7.72067969 20.95032339
   0.53463382  1.34863081 13.44441088
  -1.25095084  4.45027624 13.44583904
  -3.03023710  7.55025867 13.44523155
   4.05479745  1.34333939 13.44035598
   2.27214430  4.44708003 13.43931618
   0.49355527  7.55615099 13.44958995
   7.57543805  1.34147265 13.44643373
   5.78757517  4.44503797 13.44445267
   4.00723203  7.54902226 13.44379055
   1.69365476  1.42788896 17.25003869
  -0.08574201  4.53423390 17.24289492
  -1.86756355  7.63839894 17.24438791
   5.21097105  1.43373794 17.24355210
   3.43341459  4.53093211 17.24191828
   1.65081933  7.63598292 17.24311522
   8.72966207  1.43292836 17.24141235
   6.95095260  4.52875873 17.24583854
   5.17278648  7.63790475 17.24144288
   0.54490451  1.25938709  9.72784204
  -1.23346537  4.36316252  9.73585713
  -3.01637681  7.47027355  9.73910647
   4.07159165  1.25357050  9.73055031
   2.28133560  4.36015398  9.73358173
   0.50284878  7.46481842  9.73535509
   7.57896908  1.25797917  9.73165031
   5.80154145  4.36168802  9.73396136
   4.01968396  7.46179789  9.73695855
  -0.06310701  0.44489937 19.10388883
   8.70177455  3.54222342 19.09856207
  -3.62217363  6.64640311 19.09924037
   3.44614636  0.44486589 19.09680665
   1.67379622  3.53776701 19.09542997
  -0.10871419  6.64229526 19.10224309
   1.62678135  9.74464726 19.10207979
   5.19910056  3.54665147 19.09401533
   3.40379232  6.64637522 19.09788070
   2.30579551  0.27000236 11.59158727
   0.52662702  3.37511644 11.58476461
  -1.24831621  6.47256817 11.59240337
   5.82444473  0.26971347 11.58899236
   4.04382436  3.36988897 11.58948675
   2.26333160  6.47208565 11.58892414
   9.33841866  0.26992299 11.59722279
   7.56294984  3.37024524 11.58536800
   5.78416626  6.46570733 11.58317171
 


--------------------------------------------------------------------------------------------------------


 k-point   1 :   0.0000 0.0000 0.0000  plane waves:   88283
 k-point   2 :   0.3333-0.0000-0.0000  plane waves:   88292
 k-point   3 :   0.0000 0.3333 0.0000  plane waves:   88236
 k-point   4 :   0.3333 0.3333 0.0000  plane waves:   88239
 k-point   5 :  -0.3333 0.3333 0.0000  plane waves:   88296

 maximum and minimum number of plane-waves per node :     88296    88236

 maximum number of plane-waves:     88296
 maximum index in each direction: 
   IXMAX=   20   IYMAX=   20   IZMAX=   58
   IXMIN=  -20   IYMIN=  -20   IZMIN=  -58


 serial   3D FFT for wavefunctions
 parallel 3D FFT for charge:
    minimum data exchange during FFTs selected (reduces bandwidth)


 total amount of memory used by VASP MPI-rank0   380415. kBytes
=======================================================================

   base      :      30000. kBytes
   nonl-proj :     203489. kBytes
   fftplans  :      19943. kBytes
   grid      :      90496. kBytes
   one-center:        839. kBytes
   wavefun   :      35648. kBytes
 
     INWAV:  cpu time    0.0001: real time    0.0001
 Broyden mixing: mesh for mixing (old mesh)
   NGX = 41   NGY = 41   NGZ =117
  (NGX  =168   NGY  =168   NGZ  =480)
  gives a total of 196677 points

 initial charge density was supplied:
 charge density of overlapping atoms calculated
 number of electron     324.0000000 magnetization 
 keeping initial charge density in first step


--------------------------------------------------------------------------------------------------------


 Maximum index for augmentation-charges         2187 (set IRDMAX)


--------------------------------------------------------------------------------------------------------


 First call to EWALD:  gamma=   0.123
 Maximum number of real-space cells 4x 4x 2
 Maximum number of reciprocal cells 2x 2x 5

    FEWALD:  cpu time    0.0021: real time    0.0021


--------------------------------------- Iteration      1(   1)  ---------------------------------------


    POTLOK:  cpu time    0.3564: real time    0.3574
    SETDIJ:  cpu time    0.0116: real time    0.0117
     EDDAV:  cpu time   50.6850: real time   50.8148
       DOS:  cpu time    0.0009: real time    0.0010
    --------------------------------------------
      LOOP:  cpu time   51.0539: real time   51.1850

 eigenvalue-minimisations  :  2000
 total energy-change (2. order) : 0.2083026E+04  (-0.1140142E+05)
 number of electron     324.0000000 magnetization 
 augmentation part      324.0000000 magnetization 

 Free energy of the ion-electron system (eV)
  ---------------------------------------------------
  alpha Z        PSCENC =       238.13648841
  Ewald energy   TEWEN  =     60616.84828685
  -Hartree energ DENC   =    -72267.86936256
  -exchange      EXHF   =         0.00000000
  -V(xc)+E(xc)   XCENC  =     -2104.99863844
  PAW double counting   =      7476.04436201    -4809.59211051
  entropy T*S    EENTRO =        -0.13977476
  eigenvalues    EBANDS =       981.51365699
  atomic energy  EATOM  =     11953.08265402
  Solvation  Ediel_sol  =         0.00000000
  ---------------------------------------------------
  free energy    TOTEN  =      2083.02556201 eV

  energy without entropy =     2083.16533677  energy(sigma->0) =     2083.09544939


--------------------------------------------------------------------------------------------------------




--------------------------------------- Iteration      1(   2)  ---------------------------------------


     EDDAV:  cpu time   69.8519: real time   70.0482
       DOS:  cpu time    0.0005: real time    0.0005
    --------------------------------------------
      LOOP:  cpu time   69.8525: real time   70.0487

 eigenvalue-minimisations  :  2960
 total energy-change (2. order) :-0.2174815E+04  (-0.2105682E+04)
 number of electron     324.0000000 magnetization 
 augmentation part      324.0000000 magnetization 

 Free energy of the ion-electron system (eV)
  ---------------------------------------------------
  alpha Z        PSCENC =       238.13648841
  Ewald energy   TEWEN  =     60616.84828685
  -Hartree energ DENC   =    -72267.86936256
  -exchange      EXHF   =         0.00000000
  -V(xc)+E(xc)   XCENC  =     -2104.99863844
  PAW double counting   =      7476.04436201    -4809.59211051
  entropy T*S    EENTRO =        -0.00143132
  eigenvalues    EBANDS =     -1193.43952614
  atomic energy  EATOM  =     11953.08265402
  Solvation  Ediel_sol  =         0.00000000
  ---------------------------------------------------
  free energy    TOTEN  =       -91.78927768 eV

  energy without entropy =      -91.78784636  energy(sigma->0) =      -91.78856202


--------------------------------------------------------------------------------------------------------




--------------------------------------- Iteration      1(   3)  ---------------------------------------


     EDDAV:  cpu time   61.1465: real time   61.3239
       DOS:  cpu time    0.0004: real time    0.0004
    --------------------------------------------
      LOOP:  cpu time   61.1469: real time   61.3242

 eigenvalue-minimisations  :  2520
 total energy-change (2. order) :-0.2326750E+03  (-0.2291735E+03)
 number of electron     324.0000000 magnetization 
 augmentation part      324.0000000 magnetization 

 Free energy of the ion-electron system (eV)
  ---------------------------------------------------
  alpha Z        PSCENC =       238.13648841
  Ewald energy   TEWEN  =     60616.84828685
  -Hartree energ DENC   =    -72267.86936256
  -exchange      EXHF   =         0.00000000
  -V(xc)+E(xc)   XCENC  =     -2104.99863844
  PAW double counting   =      7476.04436201    -4809.59211051
  entropy T*S    EENTRO =        -0.00000000
  eigenvalues    EBANDS =     -1426.11596040
  atomic energy  EATOM  =     11953.08265402
  Solvation  Ediel_sol  =         0.00000000
  ---------------------------------------------------
  free energy    TOTEN  =      -324.46428062 eV

  energy without entropy =     -324.46428062  energy(sigma->0) =     -324.46428062


--------------------------------------------------------------------------------------------------------




--------------------------------------- Iteration      1(   4)  ---------------------------------------


     EDDAV:  cpu time   72.1932: real time   72.4093
       DOS:  cpu time    0.0004: real time    0.0004
    --------------------------------------------
      LOOP:  cpu time   72.1936: real time   72.4097

 eigenvalue-minimisations  :  3080
 total energy-change (2. order) :-0.1222402E+02  (-0.1212932E+02)
 number of electron     324.0000000 magnetization 
 augmentation part      324.0000000 magnetization 

 Free energy of the ion-electron system (eV)
  ---------------------------------------------------
  alpha Z        PSCENC =       238.13648841
  Ewald energy   TEWEN  =     60616.84828685
  -Hartree energ DENC   =    -72267.86936256
  -exchange      EXHF   =         0.00000000
  -V(xc)+E(xc)   XCENC  =     -2104.99863844
  PAW double counting   =      7476.04436201    -4809.59211051
  entropy T*S    EENTRO =        -0.00000000
  eigenvalues    EBANDS =     -1438.33997609
  atomic energy  EATOM  =     11953.08265402
  Solvation  Ediel_sol  =         0.00000000
  ---------------------------------------------------
  free energy    TOTEN  =      -336.68829631 eV

  energy without entropy =     -336.68829631  energy(sigma->0) =     -336.68829631


--------------------------------------------------------------------------------------------------------




--------------------------------------- Iteration      1(   5)  ---------------------------------------


     EDDAV:  cpu time   68.1734: real time   68.3384
       DOS:  cpu time    0.0004: real time    0.0004
    CHARGE:  cpu time    1.1886: real time    1.1900
    MIXING:  cpu time    0.0109: real time    0.0110
    --------------------------------------------
      LOOP:  cpu time   69.3732: real time   69.5398

 eigenvalue-minimisations  :  2880
 total energy-change (2. order) :-0.3768560E+00  (-0.3760102E+00)
 number of electron     323.9999996 magnetization 
 augmentation part      -26.0625606 magnetization 

 Broyden mixing:
  rms(total) = 0.19911E+01    rms(broyden)= 0.19911E+01
  rms(prec ) = 0.21078E+01
  weight for this iteration     100.00

 Free energy of the ion-electron system (eV)
  ---------------------------------------------------
  alpha Z        PSCENC =       238.13648841
  Ewald energy   TEWEN  =     60616.84828685
  -Hartree energ DENC   =    -72267.86936256
  -exchange      EXHF   =         0.00000000
  -V(xc)+E(xc)   XCENC  =     -2104.99863844
  PAW double counting   =      7476.04436201    -4809.59211051
  entropy T*S    EENTRO =        -0.00000000
  eigenvalues    EBANDS =     -1438.71683208
  atomic energy  EATOM  =     11953.08265402
  Solvation  Ediel_sol  =         0.00000000
  ---------------------------------------------------
  free energy    TOTEN  =      -337.06515230 eV

  energy without entropy =     -337.06515230  energy(sigma->0) =     -337.06515230


--------------------------------------------------------------------------------------------------------




--------------------------------------- Iteration      1(   6)  ---------------------------------------


    POTLOK:  cpu time    0.3056: real time    0.3059
    SETDIJ:  cpu time    0.0113: real time    0.0113
    EDDIAG:  cpu time    2.6099: real time    2.6129
  RMM-DIIS:  cpu time   43.7891: real time   43.8888
    ORTHCH:  cpu time    0.2240: real time    0.2242
       DOS:  cpu time    0.0004: real time    0.0004
    CHARGE:  cpu time    1.1915: real time    1.1926
    MIXING:  cpu time    0.0073: real time    0.0075
    --------------------------------------------
      LOOP:  cpu time   48.1392: real time   48.2435

 eigenvalue-minimisations  :  2146
 total energy-change (2. order) : 0.9159126E+01  (-0.7102815E+01)
 number of electron     323.9999997 magnetization 
 augmentation part      -19.4710724 magnetization 

 Broyden mixing:
  rms(total) = 0.74882E+00    rms(broyden)= 0.74881E+00
  rms(prec ) = 0.88356E+00
  weight for this iteration     100.00

 eigenvalues of (default mixing * dielectric matrix)
  average eigenvalue GAMMA=   0.9605
  0.9605

 Free energy of the ion-electron system (eV)
  ---------------------------------------------------
  alpha Z        PSCENC =       238.13648841
  Ewald energy   TEWEN  =     60616.84828685
  -Hartree energ DENC   =    -72231.43770598
  -exchange      EXHF   =         0.00000000
  -V(xc)+E(xc)   XCENC  =     -2098.42318236
  PAW double counting   =      7604.30299441    -4948.45021181
  entropy T*S    EENTRO =        -0.00000000
  eigenvalues    EBANDS =     -1461.96534979
  atomic energy  EATOM  =     11953.08265402
  Solvation  Ediel_sol  =         0.00000000
  ---------------------------------------------------
  free energy    TOTEN  =      -327.90602624 eV

  energy without entropy =     -327.90602624  energy(sigma->0) =     -327.90602624


--------------------------------------------------------------------------------------------------------




--------------------------------------- Iteration      1(   7)  ---------------------------------------


    POTLOK:  cpu time    0.3087: real time    0.3092
    SETDIJ:  cpu time    0.0112: real time    0.0112
    EDDIAG:  cpu time    2.6212: real time    2.6327
  RMM-DIIS:  cpu time   41.3254: real time   41.4451
    ORTHCH:  cpu time    0.2274: real time    0.2277
       DOS:  cpu time    0.0004: real time    0.0004
    CHARGE:  cpu time    1.1952: real time    1.1993
    MIXING:  cpu time    0.0073: real time    0.0073
    --------------------------------------------
      LOOP:  cpu time   45.6969: real time   45.8329

 eigenvalue-minimisations  :  2030
 total energy-change (2. order) : 0.3938746E+01  (-0.1279189E+01)
 number of electron     323.9999997 magnetization 
 augmentation part      -21.8143136 magnetization 

 Broyden mixing:
  rms(total) = 0.49192E+00    rms(broyden)= 0.49192E+00
  rms(prec ) = 0.52240E+00
  weight for this iteration     100.00

 eigenvalues of (default mixing * dielectric matrix)
  average eigenvalue GAMMA=   1.4563
  0.7032  2.2095

 Free energy of the ion-electron system (eV)
  ---------------------------------------------------
  alpha Z        PSCENC =       238.13648841
  Ewald energy   TEWEN  =     60616.84828685
  -Hartree energ DENC   =    -72320.20367967
  -exchange      EXHF   =         0.00000000
  -V(xc)+E(xc)   XCENC  =     -2097.73669604
  PAW double counting   =      7855.79644876    -5203.88464539
  entropy T*S    EENTRO =        -0.00000000
  eigenvalues    EBANDS =     -1366.00613694
  atomic energy  EATOM  =     11953.08265402
  Solvation  Ediel_sol  =         0.00000000
  ---------------------------------------------------
  free energy    TOTEN  =      -323.96728000 eV

  energy without entropy =     -323.96728000  energy(sigma->0) =     -323.96728000


--------------------------------------------------------------------------------------------------------




--------------------------------------- Iteration      1(   8)  ---------------------------------------


    POTLOK:  cpu time    0.3101: real time    0.3104
    SETDIJ:  cpu time    0.0117: real time    0.0117
    EDDIAG:  cpu time    2.5879: real time    2.5941
  RMM-DIIS:  cpu time   40.9927: real time   41.1285
    ORTHCH:  cpu time    0.2205: real time    0.2207
       DOS:  cpu time    0.0004: real time    0.0004
    CHARGE:  cpu time    1.1948: real time    1.2003
    MIXING:  cpu time    0.0080: real time    0.0080
    --------------------------------------------
      LOOP:  cpu time   45.3260: real time   45.4741

 eigenvalue-minimisations  :  2018
 total energy-change (2. order) : 0.4805863E+00  (-0.9677691E+00)
 number of electron     323.9999997 magnetization 
 augmentation part      -21.7614051 magnetization 

 Broyden mixing:
  rms(total) = 0.16138E+00    rms(broyden)= 0.16138E+00
  rms(prec ) = 0.18786E+00
  weight for this iteration     100.00

 eigenvalues of (default mixing * dielectric matrix)
  average eigenvalue GAMMA=   1.2313
  2.1206  0.7866  0.7866

 Free energy of the ion-electron system (eV)
  ---------------------------------------------------
  alpha Z        PSCENC =       238.13648841
  Ewald energy   TEWEN  =     60616.84828685
  -Hartree energ DENC   =    -72384.56718294
  -exchange      EXHF   =         0.00000000
  -V(xc)+E(xc)   XCENC  =     -2093.86705725
  PAW double counting   =      8138.71987291    -5492.87674250
  entropy T*S    EENTRO =        -0.00000000
  eigenvalues    EBANDS =     -1298.96301322
  atomic energy  EATOM  =     11953.08265402
  Solvation  Ediel_sol  =         0.00000000
  ---------------------------------------------------
  free energy    TOTEN  =      -323.48669372 eV

  energy without entropy =     -323.48669372  energy(sigma->0) =     -323.48669372


--------------------------------------------------------------------------------------------------------




--------------------------------------- Iteration      1(   9)  ---------------------------------------


    POTLOK:  cpu time    0.3122: real time    0.3125
    SETDIJ:  cpu time    0.0114: real time    0.0114
    EDDIAG:  cpu time    2.6023: real time    2.6172
  RMM-DIIS:  cpu time   45.8925: real time   46.0192
    ORTHCH:  cpu time    0.2143: real time    0.2162
       DOS:  cpu time    0.0004: real time    0.0004
    CHARGE:  cpu time    1.1892: real time    1.1904
    MIXING:  cpu time    0.0079: real time    0.0079
    --------------------------------------------
      LOOP:  cpu time   50.2302: real time   50.3753

 eigenvalue-minimisations  :  2214
 total energy-change (2. order) :-0.5494786E-02  (-0.1654250E+00)
 number of electron     323.9999997 magnetization 
 augmentation part      -21.2719750 magnetization 

 Broyden mixing:
  rms(total) = 0.10797E+00    rms(broyden)= 0.10797E+00
  rms(prec ) = 0.12007E+00
  weight for this iteration     100.00

 eigenvalues of (default mixing * dielectric matrix)
  average eigenvalue GAMMA=   1.0981
  2.0072  1.2302  0.7269  0.4280

 Free energy of the ion-electron system (eV)
  ---------------------------------------------------
  alpha Z        PSCENC =       238.13648841
  Ewald energy   TEWEN  =     60616.84828685
  -Hartree energ DENC   =    -72378.92724674
  -exchange      EXHF   =         0.00000000
  -V(xc)+E(xc)   XCENC  =     -2093.56354139
  PAW double counting   =      8129.29052482    -5483.49469821
  entropy T*S    EENTRO =        -0.00000000
  eigenvalues    EBANDS =     -1304.86465626
  atomic energy  EATOM  =     11953.08265402
  Solvation  Ediel_sol  =         0.00000000
  ---------------------------------------------------
  free energy    TOTEN  =      -323.49218850 eV

  energy without entropy =     -323.49218850  energy(sigma->0) =     -323.49218850


--------------------------------------------------------------------------------------------------------




--------------------------------------- Iteration      1(  10)  ---------------------------------------


    POTLOK:  cpu time    0.3022: real time    0.3027
    SETDIJ:  cpu time    0.0118: real time    0.0118
    EDDIAG:  cpu time    2.6017: real time    2.6046
  RMM-DIIS:  cpu time   49.1613: real time   49.2687
    ORTHCH:  cpu time    0.2271: real time    0.2273
       DOS:  cpu time    0.0004: real time    0.0004
    CHARGE:  cpu time    1.1910: real time    1.1923
    MIXING:  cpu time    0.0076: real time    0.0076
    --------------------------------------------
      LOOP:  cpu time   53.5030: real time   53.6154

 eigenvalue-minimisations  :  2389
 total energy-change (2. order) :-0.1161819E-01  (-0.5347568E-01)
 number of electron     323.9999997 magnetization 
 augmentation part      -21.0340317 magnetization 

 Broyden mixing:
  rms(total) = 0.80765E-01    rms(broyden)= 0.80765E-01
  rms(prec ) = 0.89481E-01
  weight for this iteration     100.00

 eigenvalues of (default mixing * dielectric matrix)
  average eigenvalue GAMMA=   1.2558
  2.3453  1.6959  1.0099  0.8558  0.3722

 Free energy of the ion-electron system (eV)
  ---------------------------------------------------
  alpha Z        PSCENC =       238.13648841
  Ewald energy   TEWEN  =     60616.84828685
  -Hartree energ DENC   =    -72379.83839062
  -exchange      EXHF   =         0.00000000
  -V(xc)+E(xc)   XCENC  =     -2093.37787484
  PAW double counting   =      8137.07915464    -5491.26426314
  entropy T*S    EENTRO =        -0.00000000
  eigenvalues    EBANDS =     -1304.16986201
  atomic energy  EATOM  =     11953.08265402
  Solvation  Ediel_sol  =         0.00000000
  ---------------------------------------------------
  free energy    TOTEN  =      -323.50380670 eV

  energy without entropy =     -323.50380670  energy(sigma->0) =     -323.50380670


--------------------------------------------------------------------------------------------------------




--------------------------------------- Iteration      1(  11)  ---------------------------------------


    POTLOK:  cpu time    0.3098: real time    0.3100
    SETDIJ:  cpu time    0.0114: real time    0.0114
    EDDIAG:  cpu time    2.5946: real time    2.6010
  RMM-DIIS:  cpu time   43.4279: real time   43.5228
    ORTHCH:  cpu time    0.2305: real time    0.2308
       DOS:  cpu time    0.0004: real time    0.0004
    CHARGE:  cpu time    1.1897: real time    1.1910
    MIXING:  cpu time    0.0105: real time    0.0105
    --------------------------------------------
      LOOP:  cpu time   47.7746: real time   47.8779

 eigenvalue-minimisations  :  2134
 total energy-change (2. order) : 0.1010246E-01  (-0.2460955E-01)
 number of electron     323.9999997 magnetization 
 augmentation part      -21.3897203 magnetization 

 Broyden mixing:
  rms(total) = 0.47302E-01    rms(broyden)= 0.47301E-01
  rms(prec ) = 0.53603E-01
  weight for this iteration     100.00

 eigenvalues of (default mixing * dielectric matrix)
  average eigenvalue GAMMA=   1.2046
  2.5399  1.5045  1.4358  0.6900  0.6900  0.3671

 Free energy of the ion-electron system (eV)
  ---------------------------------------------------
  alpha Z        PSCENC =       238.13648841
  Ewald energy   TEWEN  =     60616.84828685
  -Hartree energ DENC   =    -72400.55430768
  -exchange      EXHF   =         0.00000000
  -V(xc)+E(xc)   XCENC  =     -2093.06375292
  PAW double counting   =      8191.04266422    -5545.45352372
  entropy T*S    EENTRO =        -0.00000000
  eigenvalues    EBANDS =     -1283.53221343
  atomic energy  EATOM  =     11953.08265402
  Solvation  Ediel_sol  =         0.00000000
  ---------------------------------------------------
  free energy    TOTEN  =      -323.49370424 eV

  energy without entropy =     -323.49370424  energy(sigma->0) =     -323.49370424


--------------------------------------------------------------------------------------------------------




--------------------------------------- Iteration      1(  12)  ---------------------------------------


    POTLOK:  cpu time    0.3097: real time    0.3100
    SETDIJ:  cpu time    0.0113: real time    0.0113
    EDDIAG:  cpu time    2.6082: real time    2.6154
  RMM-DIIS:  cpu time   50.5472: real time   50.7000
    ORTHCH:  cpu time    0.2348: real time    0.2350
       DOS:  cpu time    0.0004: real time    0.0004
    CHARGE:  cpu time    1.1946: real time    1.1992
    MIXING:  cpu time    0.0086: real time    0.0086
    --------------------------------------------
      LOOP:  cpu time   54.9148: real time   55.0799

 eigenvalue-minimisations  :  2401
 total energy-change (2. order) : 0.1957864E-02  (-0.5482906E-02)
 number of electron     323.9999997 magnetization 
 augmentation part      -21.3601174 magnetization 

 Broyden mixing:
  rms(total) = 0.33974E-01    rms(broyden)= 0.33974E-01
  rms(prec ) = 0.38819E-01
  weight for this iteration     100.00

 eigenvalues of (default mixing * dielectric matrix)
  average eigenvalue GAMMA=   1.1713
  2.5427  1.6648  1.6648  0.7919  0.7919  0.3848  0.3581

 Free energy of the ion-electron system (eV)
  ---------------------------------------------------
  alpha Z        PSCENC =       238.13648841
  Ewald energy   TEWEN  =     60616.84828685
  -Hartree energ DENC   =    -72404.31766318
  -exchange      EXHF   =         0.00000000
  -V(xc)+E(xc)   XCENC  =     -2092.92782030
  PAW double counting   =      8195.02996283    -5549.48216565
  entropy T*S    EENTRO =        -0.00000000
  eigenvalues    EBANDS =     -1279.86148936
  atomic energy  EATOM  =     11953.08265402
  Solvation  Ediel_sol  =         0.00000000
  ---------------------------------------------------
  free energy    TOTEN  =      -323.49174638 eV

  energy without entropy =     -323.49174638  energy(sigma->0) =     -323.49174638


--------------------------------------------------------------------------------------------------------




--------------------------------------- Iteration      1(  13)  ---------------------------------------


    POTLOK:  cpu time    0.3093: real time    0.3096
    SETDIJ:  cpu time    0.0132: real time    0.0132
    EDDIAG:  cpu time    2.5898: real time    2.5969
  RMM-DIIS:  cpu time   48.8540: real time   49.0155
    ORTHCH:  cpu time    0.2251: real time    0.2254
       DOS:  cpu time    0.0004: real time    0.0004
    CHARGE:  cpu time    1.1925: real time    1.1938
    MIXING:  cpu time    0.0079: real time    0.0079
    --------------------------------------------
      LOOP:  cpu time   53.1924: real time   53.3628

 eigenvalue-minimisations  :  2402
 total energy-change (2. order) : 0.2747283E-02  (-0.3285475E-02)
 number of electron     323.9999997 magnetization 
 augmentation part      -21.2380329 magnetization 

 Broyden mixing:
  rms(total) = 0.97244E-02    rms(broyden)= 0.97243E-02
  rms(prec ) = 0.13060E-01
  weight for this iteration     100.00

 eigenvalues of (default mixing * dielectric matrix)
  average eigenvalue GAMMA=   1.3221
  2.6189  2.6189  1.7894  1.2034  0.7997  0.7997  0.3879  0.3588

 Free energy of the ion-electron system (eV)
  ---------------------------------------------------
  alpha Z        PSCENC =       238.13648841
  Ewald energy   TEWEN  =     60616.84828685
  -Hartree energ DENC   =    -72405.96221271
  -exchange      EXHF   =         0.00000000
  -V(xc)+E(xc)   XCENC  =     -2092.83708962
  PAW double counting   =      8190.40835783    -5544.85337428
  entropy T*S    EENTRO =        -0.00000000
  eigenvalues    EBANDS =     -1278.31210960
  atomic energy  EATOM  =     11953.08265402
  Solvation  Ediel_sol  =         0.00000000
  ---------------------------------------------------
  free energy    TOTEN  =      -323.48899909 eV

  energy without entropy =     -323.48899909  energy(sigma->0) =     -323.48899909


--------------------------------------------------------------------------------------------------------




--------------------------------------- Iteration      1(  14)  ---------------------------------------


    POTLOK:  cpu time    0.3114: real time    0.3117
    SETDIJ:  cpu time    0.0115: real time    0.0115
    EDDIAG:  cpu time    2.6022: real time    2.6050
  RMM-DIIS:  cpu time   48.4453: real time   48.5786
    ORTHCH:  cpu time    0.2260: real time    0.2262
       DOS:  cpu time    0.0004: real time    0.0004
    CHARGE:  cpu time    1.1935: real time    1.1987
    MIXING:  cpu time    0.0081: real time    0.0081
    --------------------------------------------
      LOOP:  cpu time   52.7983: real time   52.9401

 eigenvalue-minimisations  :  2339
 total energy-change (2. order) :-0.8039472E-03  (-0.9516496E-03)
 number of electron     323.9999997 magnetization 
 augmentation part      -21.2444175 magnetization 

 Broyden mixing:
  rms(total) = 0.61064E-02    rms(broyden)= 0.61063E-02
  rms(prec ) = 0.79289E-02
  weight for this iteration     100.00

 eigenvalues of (default mixing * dielectric matrix)
  average eigenvalue GAMMA=   1.2973
  3.1557  2.5934  1.5023  1.5023  0.7937  0.7937  0.5857  0.3896  0.3593

 Free energy of the ion-electron system (eV)
  ---------------------------------------------------
  alpha Z        PSCENC =       238.13648841
  Ewald energy   TEWEN  =     60616.84828685
  -Hartree energ DENC   =    -72416.34131168
  -exchange      EXHF   =         0.00000000
  -V(xc)+E(xc)   XCENC  =     -2092.77943609
  PAW double counting   =      8186.72999948    -5541.07484675
  entropy T*S    EENTRO =        -0.00000000
  eigenvalues    EBANDS =     -1268.09163730
  atomic energy  EATOM  =     11953.08265402
  Solvation  Ediel_sol  =         0.00000000
  ---------------------------------------------------
  free energy    TOTEN  =      -323.48980304 eV

  energy without entropy =     -323.48980304  energy(sigma->0) =     -323.48980304


--------------------------------------------------------------------------------------------------------




--------------------------------------- Iteration      1(  15)  ---------------------------------------


    POTLOK:  cpu time    0.3101: real time    0.3104
    SETDIJ:  cpu time    0.0113: real time    0.0113
    EDDIAG:  cpu time    2.6108: real time    2.6175
  RMM-DIIS:  cpu time   55.9771: real time   56.1020
    ORTHCH:  cpu time    0.2264: real time    0.2268
       DOS:  cpu time    0.0004: real time    0.0004
    CHARGE:  cpu time    1.1903: real time    1.1913
    MIXING:  cpu time    0.0081: real time    0.0081
    --------------------------------------------
      LOOP:  cpu time   60.3345: real time   60.4678

 eigenvalue-minimisations  :  2701
 total energy-change (2. order) :-0.6540543E-03  (-0.2942402E-03)
 number of electron     323.9999997 magnetization 
 augmentation part      -21.2388758 magnetization 

 Broyden mixing:
  rms(total) = 0.51520E-02    rms(broyden)= 0.51520E-02
  rms(prec ) = 0.65250E-02
  weight for this iteration     100.00

 eigenvalues of (default mixing * dielectric matrix)
  average eigenvalue GAMMA=   1.2953
  3.5227  2.4669  1.6783  1.6783  0.8887  0.8027  0.8027  0.3907  0.3577  0.3643

 Free energy of the ion-electron system (eV)
  ---------------------------------------------------
  alpha Z        PSCENC =       238.13648841
  Ewald energy   TEWEN  =     60616.84828685
  -Hartree energ DENC   =    -72418.77756507
  -exchange      EXHF   =         0.00000000
  -V(xc)+E(xc)   XCENC  =     -2092.76170445
  PAW double counting   =      8186.74172123    -5541.07684841
  entropy T*S    EENTRO =        -0.00000000
  eigenvalues    EBANDS =     -1265.68348968
  atomic energy  EATOM  =     11953.08265402
  Solvation  Ediel_sol  =         0.00000000
  ---------------------------------------------------
  free energy    TOTEN  =      -323.49045709 eV

  energy without entropy =     -323.49045709  energy(sigma->0) =     -323.49045709


--------------------------------------------------------------------------------------------------------




--------------------------------------- Iteration      1(  16)  ---------------------------------------


    POTLOK:  cpu time    0.3248: real time    0.3251
    SETDIJ:  cpu time    0.0121: real time    0.0121
    EDDIAG:  cpu time    2.5950: real time    2.6060
  RMM-DIIS:  cpu time   47.3959: real time   47.5377
    ORTHCH:  cpu time    0.2248: real time    0.2286
       DOS:  cpu time    0.0004: real time    0.0004
    CHARGE:  cpu time    1.1908: real time    1.1920
    MIXING:  cpu time    0.0120: real time    0.0121
    --------------------------------------------
      LOOP:  cpu time   51.7559: real time   51.9139

 eigenvalue-minimisations  :  2293
 total energy-change (2. order) :-0.9126465E-03  (-0.6765040E-04)
 number of electron     323.9999997 magnetization 
 augmentation part      -21.2412125 magnetization 

 Broyden mixing:
  rms(total) = 0.34130E-02    rms(broyden)= 0.34130E-02
  rms(prec ) = 0.46242E-02
  weight for this iteration     100.00

 eigenvalues of (default mixing * dielectric matrix)
  average eigenvalue GAMMA=   1.3712
  4.0331  2.5214  1.9101  1.9101  1.0057  1.0057  0.7972  0.7972  0.3898  0.3606
  0.3528

 Free energy of the ion-electron system (eV)
  ---------------------------------------------------
  alpha Z        PSCENC =       238.13648841
  Ewald energy   TEWEN  =     60616.84828685
  -Hartree energ DENC   =    -72420.74122754
  -exchange      EXHF   =         0.00000000
  -V(xc)+E(xc)   XCENC  =     -2092.74936419
  PAW double counting   =      8186.97583922    -5541.31430612
  entropy T*S    EENTRO =        -0.00000000
  eigenvalues    EBANDS =     -1263.72974039
  atomic energy  EATOM  =     11953.08265402
  Solvation  Ediel_sol  =         0.00000000
  ---------------------------------------------------
  free energy    TOTEN  =      -323.49136974 eV

  energy without entropy =     -323.49136974  energy(sigma->0) =     -323.49136974


--------------------------------------------------------------------------------------------------------




--------------------------------------- Iteration      1(  17)  ---------------------------------------


    POTLOK:  cpu time    0.3112: real time    0.3114
    SETDIJ:  cpu time    0.0118: real time    0.0118
    EDDIAG:  cpu time    2.5899: real time    2.6007
  RMM-DIIS:  cpu time   44.1974: real time   44.2988
    ORTHCH:  cpu time    0.2229: real time    0.2263
       DOS:  cpu time    0.0004: real time    0.0004
    CHARGE:  cpu time    1.1960: real time    1.1971
    MIXING:  cpu time    0.0084: real time    0.0084
    --------------------------------------------
      LOOP:  cpu time   48.5380: real time   48.6547

 eigenvalue-minimisations  :  2169
 total energy-change (2. order) :-0.1761475E-02  (-0.6708418E-04)
 number of electron     323.9999997 magnetization 
 augmentation part      -21.2505004 magnetization 

 Broyden mixing:
  rms(total) = 0.28641E-02    rms(broyden)= 0.28641E-02
  rms(prec ) = 0.34486E-02
  weight for this iteration     100.00

 eigenvalues of (default mixing * dielectric matrix)
  average eigenvalue GAMMA=   1.3637
  4.4885  2.6577  2.1442  1.5207  1.3652  1.0490  0.8017  0.8017  0.4348  0.3898
  0.3604  0.3508

 Free energy of the ion-electron system (eV)
  ---------------------------------------------------
  alpha Z        PSCENC =       238.13648841
  Ewald energy   TEWEN  =     60616.84828685
  -Hartree energ DENC   =    -72424.60328673
  -exchange      EXHF   =         0.00000000
  -V(xc)+E(xc)   XCENC  =     -2092.73623447
  PAW double counting   =      8185.82333936    -5540.16162061
  entropy T*S    EENTRO =        -0.00000000
  eigenvalues    EBANDS =     -1259.88275806
  atomic energy  EATOM  =     11953.08265402
  Solvation  Ediel_sol  =         0.00000000
  ---------------------------------------------------
  free energy    TOTEN  =      -323.49313122 eV

  energy without entropy =     -323.49313122  energy(sigma->0) =     -323.49313122


--------------------------------------------------------------------------------------------------------




--------------------------------------- Iteration      1(  18)  ---------------------------------------


    POTLOK:  cpu time    0.3099: real time    0.3102
    SETDIJ:  cpu time    0.0111: real time    0.0111
    EDDIAG:  cpu time    2.5956: real time    2.6108
  RMM-DIIS:  cpu time   46.7364: real time   46.8993
    ORTHCH:  cpu time    0.2229: real time    0.2231
       DOS:  cpu time    0.0004: real time    0.0004
    CHARGE:  cpu time    1.1864: real time    1.1959
    MIXING:  cpu time    0.0085: real time    0.0085
    --------------------------------------------
      LOOP:  cpu time   51.0712: real time   51.2594

 eigenvalue-minimisations  :  2287
 total energy-change (2. order) :-0.7066322E-03  (-0.2521564E-04)
 number of electron     323.9999997 magnetization 
 augmentation part      -21.2517847 magnetization 

 Broyden mixing:
  rms(total) = 0.21042E-02    rms(broyden)= 0.21042E-02
  rms(prec ) = 0.25780E-02
  weight for this iteration     100.00

 eigenvalues of (default mixing * dielectric matrix)
  average eigenvalue GAMMA=   1.4487
  5.1101  2.9121  2.3656  1.7520  1.7520  0.9410  0.9410  0.7950  0.7950  0.3905
  0.3742  0.3590  0.3453

 Free energy of the ion-electron system (eV)
  ---------------------------------------------------
  alpha Z        PSCENC =       238.13648841
  Ewald energy   TEWEN  =     60616.84828685
  -Hartree energ DENC   =    -72425.89580153
  -exchange      EXHF   =         0.00000000
  -V(xc)+E(xc)   XCENC  =     -2092.73110109
  PAW double counting   =      8185.48794602    -5539.82696720
  entropy T*S    EENTRO =        -0.00000000
  eigenvalues    EBANDS =     -1258.59534333
  atomic energy  EATOM  =     11953.08265402
  Solvation  Ediel_sol  =         0.00000000
  ---------------------------------------------------
  free energy    TOTEN  =      -323.49383785 eV

  energy without entropy =     -323.49383785  energy(sigma->0) =     -323.49383785


--------------------------------------------------------------------------------------------------------




--------------------------------------- Iteration      1(  19)  ---------------------------------------


    POTLOK:  cpu time    0.3066: real time    0.3081
    SETDIJ:  cpu time    0.0117: real time    0.0117
    EDDIAG:  cpu time    2.6076: real time    2.6144
  RMM-DIIS:  cpu time   46.0427: real time   46.1534
    ORTHCH:  cpu time    0.2301: real time    0.2303
       DOS:  cpu time    0.0004: real time    0.0004
    CHARGE:  cpu time    1.1928: real time    1.1941
    MIXING:  cpu time    0.0088: real time    0.0088
    --------------------------------------------
      LOOP:  cpu time   50.4007: real time   50.5212

 eigenvalue-minimisations  :  2240
 total energy-change (2. order) :-0.8934050E-03  (-0.1630169E-04)
 number of electron     323.9999997 magnetization 
 augmentation part      -21.2437018 magnetization 

 Broyden mixing:
  rms(total) = 0.12345E-02    rms(broyden)= 0.12345E-02
  rms(prec ) = 0.14217E-02
  weight for this iteration     100.00

 eigenvalues of (default mixing * dielectric matrix)
  average eigenvalue GAMMA=   1.4949
  5.8687  3.1062  2.4586  1.8360  1.8360  1.0066  1.0066  0.7941  0.7941  0.7534
  0.3905  0.3750  0.3591  0.3432

 Free energy of the ion-electron system (eV)
  ---------------------------------------------------
  alpha Z        PSCENC =       238.13648841
  Ewald energy   TEWEN  =     60616.84828685
  -Hartree energ DENC   =    -72426.93535031
  -exchange      EXHF   =         0.00000000
  -V(xc)+E(xc)   XCENC  =     -2092.72550021
  PAW double counting   =      8185.67569629    -5540.01738241
  entropy T*S    EENTRO =        -0.00000000
  eigenvalues    EBANDS =     -1257.55962390
  atomic energy  EATOM  =     11953.08265402
  Solvation  Ediel_sol  =         0.00000000
  ---------------------------------------------------
  free energy    TOTEN  =      -323.49473125 eV

  energy without entropy =     -323.49473125  energy(sigma->0) =     -323.49473125


--------------------------------------------------------------------------------------------------------




--------------------------------------- Iteration      1(  20)  ---------------------------------------


    POTLOK:  cpu time    0.3157: real time    0.3161
    SETDIJ:  cpu time    0.0119: real time    0.0119
    EDDIAG:  cpu time    2.6098: real time    2.6127
  RMM-DIIS:  cpu time   44.1018: real time   44.2465
    ORTHCH:  cpu time    0.2203: real time    0.2207
       DOS:  cpu time    0.0004: real time    0.0004
    CHARGE:  cpu time    1.1882: real time    1.1893
    MIXING:  cpu time    0.0088: real time    0.0088
    --------------------------------------------
      LOOP:  cpu time   48.4570: real time   48.6065

 eigenvalue-minimisations  :  2158
 total energy-change (2. order) :-0.4205141E-03  (-0.7402834E-05)
 number of electron     323.9999997 magnetization 
 augmentation part      -21.2429422 magnetization 

 Broyden mixing:
  rms(total) = 0.83170E-03    rms(broyden)= 0.83170E-03
  rms(prec ) = 0.94828E-03
  weight for this iteration     100.00

 eigenvalues of (default mixing * dielectric matrix)
  average eigenvalue GAMMA=   1.5297
  6.7010  3.1991  2.4885  1.7805  1.7805  1.1255  1.1255  1.0869  0.7941  0.7941
  0.6018  0.3902  0.3751  0.3591  0.3433

 Free energy of the ion-electron system (eV)
  ---------------------------------------------------
  alpha Z        PSCENC =       238.13648841
  Ewald energy   TEWEN  =     60616.84828685
  -Hartree energ DENC   =    -72427.40983299
  -exchange      EXHF   =         0.00000000
  -V(xc)+E(xc)   XCENC  =     -2092.72676720
  PAW double counting   =      8186.13270933    -5540.47378463
  entropy T*S    EENTRO =        -0.00000000
  eigenvalues    EBANDS =     -1257.08490555
  atomic energy  EATOM  =     11953.08265402
  Solvation  Ediel_sol  =         0.00000000
  ---------------------------------------------------
  free energy    TOTEN  =      -323.49515177 eV

  energy without entropy =     -323.49515177  energy(sigma->0) =     -323.49515177


--------------------------------------------------------------------------------------------------------




--------------------------------------- Iteration      1(  21)  ---------------------------------------


    POTLOK:  cpu time    0.3180: real time    0.3183
    SETDIJ:  cpu time    0.0117: real time    0.0117
    EDDIAG:  cpu time    2.6236: real time    2.6306
  RMM-DIIS:  cpu time   45.3886: real time   45.5172
    ORTHCH:  cpu time    0.2259: real time    0.2261
       DOS:  cpu time    0.0004: real time    0.0004
    CHARGE:  cpu time    1.1980: real time    1.1992
    MIXING:  cpu time    0.0121: real time    0.0122
    --------------------------------------------
      LOOP:  cpu time   49.7785: real time   49.9157

 eigenvalue-minimisations  :  2204
 total energy-change (2. order) :-0.1719073E-03  (-0.2694141E-05)
 number of electron     323.9999997 magnetization 
 augmentation part      -21.2450154 magnetization 

 Broyden mixing:
  rms(total) = 0.40990E-03    rms(broyden)= 0.40990E-03
  rms(prec ) = 0.49902E-03
  weight for this iteration     100.00

 eigenvalues of (default mixing * dielectric matrix)
  average eigenvalue GAMMA=   1.5311
  7.1982  3.2750  2.4854  2.0015  1.7054  1.7054  0.9928  0.9928  0.7932  0.7932
  0.6650  0.3436  0.3591  0.3906  0.3730  0.4233

 Free energy of the ion-electron system (eV)
  ---------------------------------------------------
  alpha Z        PSCENC =       238.13648841
  Ewald energy   TEWEN  =     60616.84828685
  -Hartree energ DENC   =    -72427.63850170
  -exchange      EXHF   =         0.00000000
  -V(xc)+E(xc)   XCENC  =     -2092.72893340
  PAW double counting   =      8186.31215468    -5540.65182367
  entropy T*S    EENTRO =        -0.00000000
  eigenvalues    EBANDS =     -1256.85564886
  atomic energy  EATOM  =     11953.08265402
  Solvation  Ediel_sol  =         0.00000000
  ---------------------------------------------------
  free energy    TOTEN  =      -323.49532367 eV

  energy without entropy =     -323.49532367  energy(sigma->0) =     -323.49532367


--------------------------------------------------------------------------------------------------------




--------------------------------------- Iteration      1(  22)  ---------------------------------------


    POTLOK:  cpu time    0.3094: real time    0.3129
    SETDIJ:  cpu time    0.0118: real time    0.0118
    EDDIAG:  cpu time    2.6160: real time    2.6230
  RMM-DIIS:  cpu time   40.5466: real time   40.6471
    ORTHCH:  cpu time    0.2241: real time    0.2275
       DOS:  cpu time    0.0004: real time    0.0004
    CHARGE:  cpu time    1.1936: real time    1.1947
    MIXING:  cpu time    0.0122: real time    0.0122
    --------------------------------------------
      LOOP:  cpu time   44.9140: real time   45.0296

 eigenvalue-minimisations  :  1852
 total energy-change (2. order) :-0.8490609E-04  (-0.9864207E-06)
 number of electron     323.9999997 magnetization 
 augmentation part      -21.2460825 magnetization 

 Broyden mixing:
  rms(total) = 0.37079E-03    rms(broyden)= 0.37079E-03
  rms(prec ) = 0.42382E-03
  weight for this iteration     100.00

 eigenvalues of (default mixing * dielectric matrix)
  average eigenvalue GAMMA=   1.5625
  7.4604  3.4771  2.4009  2.1972  1.9083  1.9083  1.0658  1.0312  1.0312  0.7932
  0.7932  0.6557  0.3902  0.3432  0.3591  0.3783  0.3693

 Free energy of the ion-electron system (eV)
  ---------------------------------------------------
  alpha Z        PSCENC =       238.13648841
  Ewald energy   TEWEN  =     60616.84828685
  -Hartree energ DENC   =    -72427.74177935
  -exchange      EXHF   =         0.00000000
  -V(xc)+E(xc)   XCENC  =     -2092.72975060
[...]
 -0.000  -0.000   0.000   0.000  -0.000   0.011  -0.000   0.000
 -0.000   0.000   0.000   0.000   0.000  -0.000   0.011  -0.000
  0.000  -0.000  -0.000   0.000   0.000   0.000  -0.000   0.011
  0.000   0.000   0.000  -0.000   0.001   0.000  -0.000   0.000
 -0.000  -0.000  -0.014   0.001  -0.000  -0.000  -0.000  -0.000
 -0.009  -0.000  -0.000  -0.018  -0.000   0.000  -0.000  -0.000
 -0.000  -0.000  -0.000   0.000  -0.013  -0.000   0.000  -0.000
  0.001  -0.000  -0.000   0.000   0.000   0.000  -0.000   0.000
 total augmentation occupancy for first ion, spin component:           1
  1.936   0.188   0.004   0.200   0.001  -0.005   0.035   0.002  -0.001  -0.001   0.006  -0.000  -0.001
  0.188   1.282   0.003  -0.916  -0.003  -0.011   0.355  -0.014   0.003  -0.000  -0.021   0.002   0.001
  0.004   0.003   1.342  -0.012  -0.002  -0.468   0.004  -0.000  -0.002  -0.116   0.002   0.001  -0.043
  0.200  -0.916  -0.012   1.488   0.003   0.005  -0.526  -0.000   0.001   0.004  -0.037   0.001   0.004
  0.001  -0.003  -0.002   0.003   1.320  -0.000  -0.001  -0.455  -0.043   0.001   0.001  -0.111   0.001
 -0.005  -0.011  -0.468   0.005  -0.000   0.281  -0.001   0.002  -0.001   0.037   0.001  -0.000   0.010
  0.035   0.355   0.004  -0.526  -0.001  -0.001   0.273   0.001  -0.000  -0.002   0.043  -0.000  -0.000
  0.002  -0.014  -0.000  -0.000  -0.455   0.002   0.001   0.282   0.005  -0.000   0.001   0.035  -0.001
 -0.001   0.003  -0.002   0.001  -0.043  -0.001  -0.000   0.005   0.019   0.000  -0.000  -0.001  -0.000
 -0.001  -0.000  -0.116   0.004   0.001   0.037  -0.002  -0.000   0.000   0.017  -0.001   0.000  -0.000
  0.006  -0.021   0.002  -0.037   0.001   0.001   0.043   0.001  -0.000  -0.001   0.018  -0.000   0.000
 -0.000   0.002   0.001   0.001  -0.111  -0.000  -0.000   0.035  -0.001   0.000  -0.000   0.017   0.000
 -0.001   0.001  -0.043   0.004   0.001   0.010  -0.000  -0.001  -0.000  -0.000   0.000   0.000   0.019


------------------------ aborting loop because EDIFF is reached ----------------------------------------


    CHARGE:  cpu time    1.2031: real time    1.2041
    FORLOC:  cpu time    0.0815: real time    0.0815
    FORNL :  cpu time   14.2856: real time   14.3138
    STRESS:  cpu time   74.7526: real time   74.9610
    FORCOR:  cpu time    0.3470: real time    0.3474
    FORHAR:  cpu time    0.1415: real time    0.1416
    MIXING:  cpu time    0.0079: real time    0.0079
    OFIELD:  cpu time    0.0000: real time    0.0000

  Number of pair interactions contributing to vdW energy:  262168
  Edisp (eV):  -18.67178
    FORVDW:  cpu time    0.0290: real time    0.0290

  FORCE on cell =-STRESS in cart. coord.  units (eV):
  Direction    XX          YY          ZZ          XY          YZ          ZX
  --------------------------------------------------------------------------------------
  Alpha Z   238.13649   238.13649   238.13649
  Ewald   69893.90159 69810.13567-78908.40655     3.19091   -41.43660    19.17082
  Hartree 72225.21930 72199.99659-71823.77659     1.64595    -4.45770     5.21730
  E(xc)   -1347.57970 -1346.59485 -1365.25133    -0.04866     1.66878    -0.14090
  Local  ************************145687.11930    -4.94357    45.90399   -23.42208
  n-local  3533.16591  3533.81713  3711.08408    -1.27800   -12.02819     0.82460
  augment  -759.91915  -761.37787  -799.89670     0.36105     2.01481     0.06538
  Kinetic  3280.40459  3265.34971  3234.43046     3.52732    -6.22205     3.11616
  Fock        0.00000     0.00000     0.00000     0.00000     0.00000     0.00000
  vdW       -11.70815   -11.81023    -8.94774    -0.02275     0.64058     0.40897
  -------------------------------------------------------------------------------------
  Total     -12.85704   -30.09561   -35.50858     2.43225   -13.91638     5.24027
  in kB      -6.83526   -15.99990   -18.87763     1.29307    -7.39844     2.78591
  external pressure =      -13.90 kB  Pullay stress =        0.00 kB

  kinetic pressure (ideal gas correction) =      0.25 kB
  total pressure  =    -13.65 kB
  Total+kin.    -6.671     -15.781     -18.497       1.324      -7.337       2.777

 VOLUME and BASIS-vectors are now :
 -----------------------------------------------------------------------------
  energy-cutoff  :      550.00
  volume of cell :     3013.68
      direct lattice vectors                 reciprocal lattice vectors
    10.552558508  0.000000000  0.000000000     0.094763748  0.054390718 -0.000947407
    -5.341619408  9.306585692  0.000000000     0.000000000  0.107450792 -0.002485928
    -0.100692256  0.709949205 30.686572656     0.000000000  0.000000000  0.032587543

  length of vectors
    10.552558508 10.730584100 30.694949229     0.109267634  0.107479544  0.032587543


 FORCES acting on ions
    electron-ion (+dipol)            ewald-force                    non-local-force                 convergence-correction
 -----------------------------------------------------------------------------------------------
   0.222E+01 0.242E+01 -.815E+03   -.228E+01 -.239E+01 0.821E+03   -.573E-01 -.421E+00 -.564E+01   -.242E-03 -.802E-04 -.424E-03
   0.176E+00 0.377E+01 -.816E+03   -.153E+00 -.373E+01 0.821E+03   -.679E-01 -.690E+00 -.592E+01   0.107E-03 -.211E-03 -.425E-03
   0.188E+01 -.206E+01 -.814E+03   -.194E+01 0.213E+01 0.820E+03   -.416E-01 0.470E-02 -.597E+01   -.474E-04 0.172E-03 -.308E-03
   -.872E+00 -.406E+00 -.817E+03   0.823E+00 0.390E+00 0.822E+03   0.127E+00 -.483E-01 -.592E+01   -.661E-04 -.794E-04 -.360E-03
   -.412E-01 -.209E+01 -.817E+03   0.600E-01 0.211E+01 0.822E+03   -.533E-01 -.175E-01 -.594E+01   -.165E-03 0.470E-04 -.441E-03
   -.125E+01 0.414E+00 -.817E+03   0.131E+01 -.324E+00 0.822E+03   -.606E-01 -.355E+00 -.568E+01   0.128E-03 -.860E-05 -.435E-03
   -.276E+01 0.323E+00 -.816E+03   0.282E+01 -.232E+00 0.821E+03   0.787E-01 -.422E+00 -.566E+01   0.310E-03 -.971E-04 -.265E-03
   -.503E+00 -.142E+01 -.816E+03   0.484E+00 0.143E+01 0.821E+03   -.576E-01 -.546E-01 -.603E+01   0.457E-04 -.274E-04 -.169E-03
   -.274E+00 -.110E+01 -.816E+03   0.298E+00 0.115E+01 0.821E+03   -.108E+00 -.958E-01 -.566E+01   -.908E-04 0.291E-03 -.300E-03
   -.158E+01 -.200E+01 0.982E+02   0.152E+01 0.205E+01 -.929E+02   0.226E+00 0.537E-01 -.588E+01   0.232E-03 0.179E-03 -.435E-03
   0.118E+01 -.947E+00 0.980E+02   -.122E+01 0.103E+01 -.927E+02   -.688E-01 -.250E+00 -.559E+01   0.199E-04 -.893E-04 -.343E-03
   -.138E+01 0.166E+01 0.986E+02   0.134E+01 -.165E+01 -.933E+02   0.754E-01 -.329E+00 -.616E+01   -.682E-04 0.694E-05 -.451E-03
   0.144E+00 0.270E+01 0.993E+02   -.251E+00 -.263E+01 -.940E+02   0.128E+00 -.480E+00 -.549E+01   -.482E-04 -.390E-03 -.427E-03
   0.174E+01 -.187E+00 0.975E+02   -.181E+01 0.270E+00 -.922E+02   -.437E-01 -.251E+00 -.561E+01   -.273E-03 0.344E-03 -.533E-03
   0.230E+01 0.178E+01 0.990E+02   -.239E+01 -.175E+01 -.936E+02   0.539E-01 -.390E+00 -.592E+01   0.211E-03 -.210E-04 -.399E-03
   -.605E+00 -.259E+01 0.968E+02   0.531E+00 0.266E+01 -.915E+02   0.211E+00 -.320E-02 -.585E+01   -.151E-03 0.693E-04 -.427E-03
   -.180E+01 -.185E+01 0.994E+02   0.181E+01 0.198E+01 -.941E+02   -.251E-01 -.182E+00 -.606E+01   0.232E-03 0.296E-03 -.464E-03
   -.861E+00 0.120E+01 0.986E+02   0.817E+00 -.123E+01 -.932E+02   0.432E-01 -.255E+00 -.569E+01   -.150E-03 -.398E-03 -.454E-03
   0.643E+00 0.196E+01 -.989E+02   -.619E+00 -.203E+01 0.935E+02   -.592E-01 0.326E-01 0.556E+01   -.209E-04 -.127E-03 0.515E-03
   0.942E+00 -.429E+01 -.996E+02   -.886E+00 0.426E+01 0.943E+02   -.127E+00 0.426E+00 0.586E+01   0.967E-04 0.153E-03 0.357E-03
   -.102E+01 -.556E+00 -.989E+02   0.110E+01 0.459E+00 0.936E+02   -.758E-01 0.429E+00 0.592E+01   0.156E-03 0.801E-04 0.284E-03
   -.259E+01 -.545E+00 -.976E+02   0.260E+01 0.427E+00 0.924E+02   0.206E+00 0.394E+00 0.584E+01   -.655E-04 -.196E-03 0.376E-03
   0.153E+00 -.344E+01 -.988E+02   -.750E-01 0.338E+01 0.935E+02   -.181E+00 0.401E+00 0.584E+01   -.184E-03 0.796E-04 0.386E-03
   0.243E+01 -.583E+00 -.983E+02   -.239E+01 0.499E+00 0.931E+02   -.290E+00 0.359E+00 0.573E+01   -.114E-03 -.103E-03 0.370E-03
   -.311E+00 -.144E+01 -.999E+02   0.355E+00 0.137E+01 0.946E+02   -.378E-01 0.306E+00 0.576E+01   0.983E-04 -.610E-04 0.362E-03
   -.169E+01 -.351E+01 -.995E+02   0.174E+01 0.342E+01 0.942E+02   -.923E-01 0.505E+00 0.592E+01   0.856E-04 0.114E-04 0.114E-03
   -.109E+01 -.125E+01 -.969E+02   0.118E+01 0.118E+01 0.917E+02   -.160E+00 0.379E+00 0.583E+01   -.514E-04 0.128E-03 0.356E-03
   -.166E+00 -.115E+01 0.815E+03   0.179E+00 0.105E+01 -.821E+03   -.721E-01 0.419E+00 0.590E+01   0.196E-03 0.125E-03 0.496E-03
   0.120E+01 -.761E-01 0.818E+03   -.119E+01 -.268E-01 -.824E+03   -.134E+00 0.267E+00 0.538E+01   -.571E-05 -.241E-03 0.532E-03
   0.440E-01 -.287E+01 0.814E+03   -.447E-01 0.276E+01 -.820E+03   -.114E+00 0.445E+00 0.564E+01   -.265E-03 0.666E-04 0.581E-03
   -.240E+01 -.406E+00 0.818E+03   0.237E+01 0.318E+00 -.823E+03   0.207E+00 0.327E+00 0.604E+01   0.466E-04 -.253E-03 0.549E-03
   0.108E+01 0.843E+00 0.819E+03   -.109E+01 -.941E+00 -.824E+03   -.162E+00 0.184E+00 0.588E+01   -.299E-03 0.980E-04 0.685E-03
   0.202E+01 -.254E+01 0.814E+03   -.206E+01 0.246E+01 -.819E+03   -.735E-01 0.254E+00 0.583E+01   0.113E-03 0.472E-04 0.614E-03
   0.136E+01 -.362E+01 0.818E+03   -.135E+01 0.356E+01 -.823E+03   -.138E+00 0.503E+00 0.586E+01   -.244E-03 0.231E-03 0.538E-03
   -.189E+01 0.620E+00 0.815E+03   0.193E+01 -.722E+00 -.821E+03   -.157E-03 0.273E+00 0.571E+01   0.315E-03 0.155E-03 0.579E-03
   -.219E+01 -.385E+01 0.817E+03   0.223E+01 0.375E+01 -.822E+03   0.975E-01 0.508E+00 0.547E+01   0.124E-03 -.269E-03 0.642E-03
   -.222E+00 0.201E+01 -.459E+03   0.243E+00 -.204E+01 0.459E+03   0.579E-01 -.112E-01 0.224E-01   0.124E-03 0.109E-03 0.361E-03
   -.684E+00 -.190E+01 -.459E+03   0.701E+00 0.194E+01 0.459E+03   0.202E+00 0.218E+00 0.107E+00   0.266E-03 -.428E-04 0.189E-03
   -.175E+01 0.344E+01 -.456E+03   0.177E+01 -.354E+01 0.456E+03   0.262E+00 -.388E+00 0.889E-01   0.931E-04 0.178E-03 0.138E-03
   0.562E+00 0.623E+01 -.454E+03   -.556E+00 -.634E+01 0.454E+03   -.126E+00 -.369E+00 0.308E+00   -.187E-03 -.108E-03 0.124E-03
   0.221E+01 -.336E+01 -.458E+03   -.218E+01 0.347E+01 0.458E+03   0.703E-02 0.349E+00 0.221E+00   -.130E-03 0.171E-04 0.246E-03
   0.154E+01 0.176E+01 -.455E+03   -.151E+01 -.172E+01 0.455E+03   0.170E+00 0.279E-01 -.143E+00   0.104E-03 -.507E-05 -.108E-03
   0.210E+01 0.296E+00 -.458E+03   -.218E+01 -.291E+00 0.458E+03   -.177E-01 0.173E+00 -.104E+00   0.309E-04 -.148E-03 0.874E-04
   -.168E+01 0.915E+00 -.460E+03   0.171E+01 -.981E+00 0.460E+03   0.183E+00 -.288E+00 0.488E-01   -.967E-04 -.479E-04 0.116E-03
   -.583E+00 0.362E+01 -.458E+03   0.671E+00 -.369E+01 0.458E+03   0.182E+00 -.302E+00 0.765E-01   -.154E-03 0.444E-04 0.174E-03
   0.571E+00 0.325E+01 0.455E+03   -.597E+00 -.325E+01 -.455E+03   -.122E+00 -.273E+00 -.204E+00   0.219E-04 -.127E-03 -.107E-03
   -.179E+01 0.468E+01 0.458E+03   0.189E+01 -.476E+01 -.458E+03   0.213E+00 -.318E+00 -.527E-01   0.797E-04 0.491E-04 -.108E-03
   0.129E+01 -.323E+01 0.458E+03   -.127E+01 0.325E+01 -.458E+03   0.516E-01 0.295E+00 0.356E+00   0.354E-04 0.991E-04 0.680E-04
   0.338E+01 0.489E+00 0.456E+03   -.344E+01 -.433E+00 -.456E+03   -.251E+00 0.842E-02 -.437E+00   -.113E-03 -.132E-03 -.163E-03
   -.125E+01 0.210E+01 0.457E+03   0.124E+01 -.206E+01 -.457E+03   0.182E+00 0.617E-01 -.369E+00   0.134E-04 0.121E-03 -.155E-03
   0.377E+01 0.140E+01 0.454E+03   -.382E+01 -.146E+01 -.454E+03   -.280E+00 0.702E-01 -.791E-01   -.142E-03 -.482E-04 0.125E-03
   -.540E+00 -.616E+00 0.456E+03   0.508E+00 0.625E+00 -.456E+03   -.436E-01 -.174E+00 -.212E+00   0.234E-04 0.119E-04 -.118E-03
   0.266E+01 0.327E+01 0.460E+03   -.267E+01 -.336E+01 -.461E+03   -.120E+00 -.267E+00 0.198E+00   -.413E-04 0.978E-04 -.148E-03
   -.367E+01 0.170E+01 0.461E+03   0.372E+01 -.178E+01 -.461E+03   0.130E+00 0.106E-02 0.566E+00   0.125E-03 -.857E-04 -.475E-04
 -----------------------------------------------------------------------------------------------
   0.172E+00 -.104E+01 0.296E+00   -.200E-13 0.151E-13 -.625E-12   -.172E+00 0.104E+01 -.298E+00   0.190E-04 -.880E-04 0.195E-02
 
 
 POSITION                                       TOTAL-FORCE (eV/Angst)
 -----------------------------------------------------------------------------------
      1.70465      1.53414     20.91969        -0.103038     -0.371633     -0.374803
     -0.09374      4.65997     20.95736        -0.041338     -0.617501     -0.694599
     -1.87242      7.70928     20.94579        -0.096875      0.080891     -0.747260
      5.19411      1.50882     20.95820         0.074769     -0.058085     -0.719024
      3.41897      4.60597     20.95497        -0.036538      0.009968     -0.704938
      1.63636      7.72258     20.94185         0.005235     -0.252781     -0.458974
      8.70279      1.52139     20.92845         0.135239     -0.319529     -0.385069
      6.94604      4.61459     20.96364        -0.071672     -0.037805     -0.804976
      5.16452      7.71275     20.93053        -0.084094     -0.042530     -0.438002
      0.51234      1.32594     13.43847         0.144970      0.106914     -0.455197
     -1.24197      4.44231     13.41232        -0.116553     -0.163393     -0.209036
     -3.03405      7.55643     13.45293         0.009772     -0.310436     -0.769420
      4.05356      1.36414     13.41675         0.009645     -0.389452     -0.101938
      2.27700      4.43707     13.42292        -0.126804     -0.162367     -0.228315
      0.49574      7.55027     13.42968        -0.045087     -0.354157     -0.446208
      7.55881      1.32588     13.44717         0.116347      0.064545     -0.473024
      5.79390      4.43042     13.43853        -0.036782     -0.047733     -0.669198
      4.02552      7.54824     13.41651        -0.011548     -0.271560     -0.250206
      1.69553      1.47403     17.27149        -0.018462     -0.032886      0.128215
     -0.08892      4.50991     17.25546        -0.055554      0.375082      0.457441
     -1.86549      7.63802     17.24446         0.025877      0.325825      0.524779
      5.20312      1.44947     17.24065         0.228732      0.273160      0.496202
      3.44202      4.53949     17.24917        -0.082564      0.328042      0.489510
      1.66349      7.63202     17.25712        -0.222994      0.268913      0.363955
      8.71782      1.42404     17.26468         0.020604      0.221236      0.356748
      6.94946      4.52339     17.24592        -0.028501      0.395273      0.558106
      5.16937      7.64577     17.23666        -0.050905      0.305708      0.477328
      0.55171      1.26095      9.74575        -0.054956      0.305913      0.661970
     -1.22534      4.37624      9.76209        -0.117287      0.160646      0.089419
     -3.00109      7.46932      9.76301        -0.109069      0.321610      0.327872
      4.04839      1.25564      9.71643         0.175483      0.228523      0.862704
      2.29908      4.38324      9.72709        -0.159278      0.086399      0.676584
      0.52664      7.47398      9.76349        -0.096633      0.168401      0.526067
      7.59855      1.23385      9.73323        -0.124906      0.426847      0.646029
      5.78170      4.35746      9.75859         0.038971      0.163391      0.387632
      4.00324      7.46096      9.76841         0.123641      0.387617      0.173605
      5.14493      9.74720     19.09354         0.075075     -0.036052      0.089454
      8.68793      3.52375     19.09584         0.223961      0.264833      0.150125
      6.90686      6.66847     19.08703         0.295301     -0.488424      0.130659
      3.46820      0.46948     19.07250        -0.138016     -0.493373      0.408916
      1.67129      3.52923     19.08690         0.023600      0.464931      0.296387
     -0.12014      6.63707     19.10440         0.192897      0.060556     -0.231635
      1.61721      9.72898     19.10405        -0.096765      0.187138     -0.123328
      5.18086      3.56207     19.10198         0.211864     -0.353305      0.127018
      3.39606      6.66232     19.09269         0.260742     -0.388604      0.170538
      2.31523      0.28549     11.60744        -0.160621     -0.299795     -0.216383
      0.51035      3.39372     11.58808         0.320697     -0.410015     -0.037379
     -1.25885      6.44827     11.57256         0.076093      0.344260      0.429224
      5.83912      0.27121     11.61524        -0.321501      0.048322     -0.561752
      4.02098      3.35593     11.60588         0.191119      0.109199     -0.474410
      2.28938      6.45814     11.60072        -0.361001      0.020048     -0.028601
      9.33811      0.27188     11.60729        -0.062201     -0.166836     -0.283434
      7.56809      3.37058     11.57583        -0.147716     -0.357296      0.212030
      5.76970      6.46823     11.55640         0.199068     -0.079744      0.669522
 -----------------------------------------------------------------------------------
    total drift:                                0.000444     -0.001101      0.000930


--------------------------------------------------------------------------------------------------------



  FREE ENERGIE OF THE ION-ELECTRON SYSTEM (eV)
  ---------------------------------------------------
  free  energy   TOTEN  =      -342.22449055 eV

  energy  without entropy=     -342.22449055  energy(sigma->0) =     -342.22449055
 
 d Force = 0.4372391E-02[ 0.178E-02, 0.697E-02]  d Energy = 0.4464040E-02-0.916E-04
 d Force =-0.2869939E+02[-0.287E+02,-0.287E+02]  d Ewald  =-0.2869939E+02 0.211E-09


--------------------------------------------------------------------------------------------------------


    POTLOK:  cpu time    0.3241: real time    0.3244


--------------------------------------------------------------------------------------------------------


           RANDOM_SEED =         244730407              324                0
   IONSTEP:  cpu time    0.0001: real time    0.0001

  ENERGY OF THE ELECTRON-ION-THERMOSTAT SYSTEM (eV)
  ---------------------------------------------------
% ion-electron   TOTEN  =      -342.224491  see above
  kinetic energy EKIN   =         0.716319
  kin. lattice  EKIN_LAT=         0.000000  (temperature  104.56 K)
  nose potential ES     =         0.020461
  nose kinetic   EPS    =         0.000910
  ---------------------------------------------------
  total energy   ETOTAL =      -341.486800 eV

  maximum distance moved by ions :      0.63E-03


 mean value of Nose-termostat <S>:     1.019 mean value of <T> :   104.560
 mean temperature <T/S>/<1/S>  :   104.560

    WAVPRE:  cpu time    0.1122: real time    0.1150
    FEWALD:  cpu time    0.0009: real time    0.0009
    ORTHCH:  cpu time    8.3715: real time    8.3852
    POTLOK:  cpu time    0.3268: real time    0.3271
    EDDIAG:  cpu time    2.6226: real time    2.6298
     LOOP+:  cpu time  555.4392: real time  556.9637
    4ORBIT:  cpu time    0.0000: real time    0.0000

 total amount of memory used by VASP MPI-rank0   380415. kBytes
=======================================================================

   base      :      30000. kBytes
   nonl-proj :     203489. kBytes
   fftplans  :      19943. kBytes
   grid      :      90496. kBytes
   one-center:        839. kBytes
   wavefun   :      35648. kBytes
 
  
  
 General timing and accounting informations for this job:
 ========================================================
  
                  Total CPU time used (sec):     6222.410
                            User time (sec):     6208.720
                          System time (sec):       13.690
                         Elapsed time (sec):     6241.349
  
                   Maximum memory used (kb):      843344.
                   Average memory used (kb):           0.
  
                          Minor page faults:       456901
                          Major page faults:            0
                 Voluntary context switches:          578
