 vasp.6.1.1 19Jun20 (build Dec 21 2021 08:45:49) complex                        
  
 executed on             LinuxIFC date 2023.10.07  03:45:36
 running on   40 total cores
 distrk:  each k-point on   40 cores,    1 groups
 distr:  one band on NCORE=   1 cores,   40 groups


--------------------------------------------------------------------------------------------------------


 INCAR:
 POTCAR:   PAW_PBE Te 08Apr2002                   
 POTCAR:   PAW_PBE Mo 08Apr2002                   
 -----------------------------------------------------------------------------
|                                                                             |
|           W    W    AA    RRRRR   N    N  II  N    N   GGGG   !!!           |
|           W    W   A  A   R    R  NN   N  II  NN   N  G    G  !!!           |
|           W    W  A    A  R    R  N N  N  II  N N  N  G       !!!           |
|           W WW W  AAAAAA  RRRRR   N  N N  II  N  N N  G  GGG   !            |
|           WW  WW  A    A  R   R   N   NN  II  N   NN  G    G                |
|           W    W  A    A  R    R  N    N  II  N    N   GGGG   !!!           |
|                                                                             |
|     For optimal performance we recommend to set                             |
|       NCORE = 4 - approx SQRT(number of cores).                             |
|     NCORE specifies how many cores store one orbital (NPAR=cpu/NCORE).      |
|     This setting can greatly improve the performance of VASP for DFT.       |
|     The default, NCORE=1 might be grossly inefficient on modern             |
|     multi-core architectures or massively parallel machines. Do your        |
|     own testing!!!!                                                         |
|     Unfortunately you need to use the default for GW and RPA                |
|     calculations (for HF NCORE is supported but not extensively tested      |
|     yet).                                                                   |
|                                                                             |
 -----------------------------------------------------------------------------

 POTCAR:   PAW_PBE Te 08Apr2002                   
   VRHFIN =Te: s2p4                                                                                 
   LEXCH  = PE                                                                                      
   EATOM  =   223.2721 eV,   16.4100 Ry                                                             
                                                                                                    
   TITEL  = PAW_PBE Te 08Apr2002                                                                    
   LULTRA =        F    use ultrasoft PP ?                                                          
   IUNSCR =        1    unscreen: 0-lin 1-nonlin 2-no                                               
   RPACOR =    2.200    partial core radius                                                         
   POMASS =  127.600; ZVAL   =    6.000    mass and valenz                                          
   RCORE  =    2.300    outmost cutoff radius                                                       
   RWIGS  =    2.900; RWIGS  =    1.535    wigner-seitz radius (au A)                               
   ENMAX  =  174.982; ENMIN  =  131.236 eV                                                          
   ICORE  =        3    local potential                                                             
   LCOR   =        T    correct aug charges                                                         
   LPAW   =        T    paw PP                                                                      
   EAUG   =  368.792                                                                                
   DEXC   =    -.169                                                                                
   RMAX   =    3.486    core radius for proj-oper                                                   
   RAUG   =    1.300    factor for augmentation sphere                                              
   RDEP   =    2.397    radius for radial grids                                                     
   QCUT   =   -3.586; QGAM   =    7.172    optimization parameters                                  
                                                                                                    
   Description                                                                                      
     l     E      TYP  RCUT    TYP  RCUT                                                            
     0   .000     23  2.300                                                                         
     0   .000     23  2.300                                                                         
     1   .000     23  2.300                                                                         
     1   .000     23  2.300                                                                         
     2   .000     23  2.300                                                                         
     3  -.100     23  2.300                                                                         
  local pseudopotential read in
  partial core-charges read in
  atomic valenz-charges read in
  non local Contribution for L=           0  read in
    real space projection operators read in
  non local Contribution for L=           0  read in
    real space projection operators read in
  non local Contribution for L=           1  read in
    real space projection operators read in
  non local Contribution for L=           1  read in
    real space projection operators read in
  non local Contribution for L=           2  read in
    real space projection operators read in
    PAW grid and wavefunctions read in
 
   number of l-projection  operators is LMAX  =           5
   number of lm-projection operators is LMMAX =          13
 
 POTCAR:   PAW_PBE Mo 08Apr2002                   
   VRHFIN =Mo: 4p5s4d                                                                               
   LEXCH  = PE                                                                                      
   EATOM  =   217.5180 eV,   15.9871 Ry                                                             
                                                                                                    
   TITEL  = PAW_PBE Mo 08Apr2002                                                                    
   LULTRA =        F    use ultrasoft PP ?                                                          
   IUNSCR =        1    unscreen: 0-lin 1-nonlin 2-no                                               
   RPACOR =    2.200    partial core radius                                                         
   POMASS =   95.940; ZVAL   =    6.000    mass and valenz                                          
   RCORE  =    2.750    outmost cutoff radius                                                       
   RWIGS  =    2.750; RWIGS  =    1.455    wigner-seitz radius (au A)                               
   ENMAX  =  224.584; ENMIN  =  168.438 eV                                                          
   RCLOC  =    2.111    cutoff for local pot                                                        
   LCOR   =        T    correct aug charges                                                         
   LPAW   =        T    paw PP                                                                      
   EAUG   =  345.278                                                                                
   DEXC   =    -.088                                                                                
   RMAX   =    3.077    core radius for proj-oper                                                   
   RAUG   =    1.300    factor for augmentation sphere                                              
   RDEP   =    2.815    radius for radial grids                                                     
   QCUT   =   -4.063; QGAM   =    8.126    optimization parameters                                  
                                                                                                    
   Description                                                                                      
     l     E      TYP  RCUT    TYP  RCUT                                                            
     2   .000     23  2.500                                                                         
     2   .000     23  2.500                                                                         
     0   .000     23  2.600                                                                         
     0  1.000     23  2.600                                                                         
     1   .400     23  2.750                                                                         
     1  2.000     23  2.750                                                                         
     3   .000      7   .000                                                                         
  local pseudopotential read in
  partial core-charges read in
  atomic valenz-charges read in
  non local Contribution for L=           2  read in
    real space projection operators read in
  non local Contribution for L=           2  read in
    real space projection operators read in
  non local Contribution for L=           0  read in
    real space projection operators read in
  non local Contribution for L=           0  read in
    real space projection operators read in
  non local Contribution for L=           1  read in
    real space projection operators read in
  non local Contribution for L=           1  read in
    real space projection operators read in
    PAW grid and wavefunctions read in
 
   number of l-projection  operators is LMAX  =           6
   number of lm-projection operators is LMMAX =          18
 
 -----------------------------------------------------------------------------
|                                                                             |
|               ----> ADVICE to this user running VASP <----                  |
|                                                                             |
|     You have a (more or less) 'large supercell' and for larger cells it     |
|     might be more efficient to use real-space projection operators.         |
|     Therefore, try LREAL= Auto in the INCAR file.                           |
|     Mind: If you want to do very accurate calculations, keep the            |
|     reciprocal projection scheme (i.e. LREAL=.FALSE.).                      |
|                                                                             |
 -----------------------------------------------------------------------------

 PAW_PBE Te 08Apr2002                   :
 energy of atom  1       EATOM= -223.2721
 kinetic energy error for atom=    0.0006 (will be added to EATOM!!)
 PAW_PBE Mo 08Apr2002                   :
 energy of atom  2       EATOM= -217.5180
 kinetic energy error for atom=    0.0009 (will be added to EATOM!!)
 
 
 POSCAR: Te Mo
  positions in cartesian coordinates
  No initial velocities read in
 exchange correlation table for  LEXCH =        8
   RHO(1)=    0.500       N(1)  =     2000
   RHO(2)=  100.500       N(2)  =     4000
 


--------------------------------------------------------------------------------------------------------


 ion  position               nearest neighbor table
   1  0.222  0.111  0.683-  40 2.70  37 2.73  41 2.75   4 3.49   7 3.49   9 3.54   5 3.54   3 3.56
                             2 3.57  19 3.62
   2  0.222  0.444  0.683-  41 2.70  38 2.73  42 2.76   8 3.48   5 3.50   7 3.55   6 3.55   1 3.57
                             3 3.57  20 3.63
   3  0.223  0.778  0.683-  42 2.70  39 2.74  40 2.76   6 3.49   9 3.49   4 3.54   8 3.55   1 3.56
                             2 3.57  21 3.64
   4  0.556  0.111  0.683-  43 2.70  40 2.74  44 2.75   7 3.48   1 3.49   8 3.53   3 3.54   6 3.56
                             5 3.57  22 3.63
   5  0.556  0.445  0.683-  44 2.70  41 2.74  45 2.76   8 3.49   2 3.50   9 3.54   1 3.54   4 3.57
                             6 3.57  23 3.63
   6  0.556  0.779  0.683-  45 2.70  42 2.74  43 2.75   3 3.49   9 3.49   7 3.53   2 3.55   4 3.56
                             5 3.57  24 3.64
   7  0.888  0.110  0.683-  37 2.70  43 2.73  38 2.76   4 3.48   1 3.49   6 3.53   2 3.55   9 3.56
                             8 3.56  25 3.63
   8  0.889  0.444  0.683-  38 2.70  44 2.74  39 2.76   2 3.48   5 3.49   4 3.53   3 3.55   7 3.56
                             9 3.58  26 3.64
   9  0.889  0.778  0.683-  39 2.70  45 2.73  37 2.75   6 3.49   3 3.49   5 3.54   1 3.54   7 3.56
                             8 3.58  27 3.63
  10  0.222  0.222  0.438-  49 2.70  46 2.74  50 2.76  13 3.49  16 3.50  14 3.54  18 3.55  12 3.56
                            11 3.57  28 3.63
  11  0.222  0.556  0.438-  50 2.70  47 2.74  51 2.75  14 3.49  17 3.49  15 3.53  16 3.55  10 3.57
                            12 3.57  29 3.62
  12  0.223  0.890  0.438-  51 2.70  48 2.74  49 2.75  15 3.49  18 3.49  13 3.54  17 3.55  10 3.56
                            11 3.57  30 3.63
  13  0.556  0.223  0.438-  52 2.70  49 2.75  53 2.75  16 3.48  10 3.49  17 3.53  12 3.54  14 3.56
                            15 3.58  31 3.64
  14  0.555  0.556  0.438-  53 2.70  50 2.73  54 2.76  11 3.49  17 3.49  18 3.54  10 3.54  15 3.56
                            13 3.56  32 3.62
  15  0.555  0.888  0.438-  54 2.70  51 2.74  52 2.76  12 3.49  18 3.49  11 3.53  16 3.54  14 3.56
                            13 3.58  33 3.63
  16  0.888  0.221  0.438-  46 2.70  52 2.74  47 2.76  13 3.48  10 3.50  15 3.54  11 3.55  18 3.57
                            17 3.57  34 3.63
  17  0.889  0.556  0.438-  47 2.70  53 2.73  48 2.75  11 3.49  14 3.49  13 3.53  12 3.55  18 3.56
                            16 3.57  35 3.63
  18  0.889  0.888  0.438-  48 2.70  54 2.74  46 2.77  15 3.49  12 3.49  14 3.54  10 3.55  17 3.56
                            16 3.57  36 3.63
  19  0.223  0.111  0.562-  37 2.69  41 2.74  40 2.75  22 3.48  25 3.50  27 3.54  23 3.54  21 3.56
                            20 3.57   1 3.62
  20  0.222  0.444  0.562-  38 2.70  42 2.74  41 2.75  23 3.49  26 3.49  25 3.54  24 3.54  21 3.57
                            19 3.57   2 3.63
  21  0.222  0.778  0.562-  39 2.69  40 2.74  42 2.76  27 3.49  24 3.49  22 3.54  26 3.54  19 3.56
                            20 3.57   3 3.64
  22  0.555  0.111  0.562-  40 2.69  44 2.74  43 2.76  19 3.48  25 3.49  21 3.54  26 3.54  24 3.57
                            23 3.57   4 3.63
  23  0.556  0.445  0.562-  41 2.70  45 2.74  44 2.76  20 3.49  26 3.50  27 3.54  19 3.54  24 3.57
                            22 3.57   5 3.63
  24  0.555  0.778  0.562-  42 2.70  43 2.74  45 2.76  21 3.49  27 3.49  20 3.54  25 3.54  22 3.57
                            23 3.57   6 3.64
  25  0.889  0.111  0.562-  43 2.69  38 2.73  37 2.75  22 3.49  19 3.50  20 3.54  24 3.54  26 3.56
                            27 3.57   7 3.63
  26  0.889  0.444  0.562-  44 2.70  39 2.75  38 2.76  20 3.49  23 3.50  21 3.54  22 3.54  25 3.56
                            27 3.57   8 3.64
  27  0.889  0.778  0.562-  45 2.69  37 2.74  39 2.76  21 3.49  24 3.49  19 3.54  23 3.54  25 3.57
                            26 3.57   9 3.63
  28  0.222  0.223  0.317-  46 2.69  50 2.73  49 2.76  34 3.48  31 3.50  32 3.54  36 3.55  29 3.56
                            30 3.57  10 3.63
  29  0.223  0.556  0.317-  47 2.70  51 2.73  50 2.75  32 3.49  35 3.50  33 3.54  34 3.54  28 3.56
                            30 3.57  11 3.62
  30  0.223  0.889  0.317-  48 2.71  49 2.74  51 2.76  33 3.49  36 3.50  31 3.53  35 3.55  29 3.57
                            28 3.57  12 3.63
  31  0.555  0.222  0.317-  49 2.70  53 2.75  52 2.75  34 3.49  28 3.50  30 3.53  35 3.54  33 3.56
                            32 3.57  13 3.64
  32  0.556  0.556  0.317-  50 2.69  54 2.73  53 2.76  29 3.49  35 3.49  36 3.53  28 3.54  33 3.57
                            31 3.57  14 3.62
  33  0.556  0.889  0.317-  51 2.69  52 2.73  54 2.76  30 3.49  36 3.49  29 3.54  34 3.54  31 3.56
                            32 3.57  15 3.63
  34  0.889  0.222  0.317-  52 2.70  47 2.74  46 2.75  28 3.48  31 3.49  33 3.54  29 3.54  36 3.57
                            35 3.57  16 3.63
  35  0.889  0.556  0.317-  53 2.69  48 2.73  47 2.76  32 3.49  29 3.50  31 3.54  30 3.55  36 3.57
                            34 3.57  17 3.63
  36  0.888  0.889  0.317-  54 2.68  46 2.74  48 2.76  33 3.49  30 3.50  32 3.53  28 3.55  34 3.57
                            35 3.57  18 3.63
  37  0.000  0.000  0.622-  19 2.69   7 2.70   1 2.73  27 2.74   9 2.75  25 2.75  40 3.49  43 3.49

  38  1.000  0.333  0.622-  20 2.70   8 2.70  25 2.73   2 2.73  26 2.76   7 2.76  41 3.49  44 3.49

  39  0.000  0.667  0.622-  21 2.69   9 2.70   3 2.74  26 2.75  27 2.76   8 2.76  42 3.49  45 3.49

  40  0.333  1.000  0.622-  22 2.69   1 2.70   4 2.74  21 2.74  19 2.75   3 2.76  37 3.49  43 3.49

  41  0.333  0.333  0.622-  23 2.70   2 2.70  19 2.74   5 2.74   1 2.75  20 2.75  38 3.49  44 3.49

  42  0.333  0.667  0.622-  24 2.70   3 2.70  20 2.74   6 2.74  21 2.76   2 2.76  39 3.49
  43  0.667  1.000  0.622-  25 2.69   4 2.70   7 2.73  24 2.74   6 2.75  22 2.76  40 3.49  37 3.49

  44  0.667  0.333  0.622-  26 2.70   5 2.70   8 2.74  22 2.74   4 2.75  23 2.76  38 3.49  41 3.49

  45  0.667  0.667  0.622-  27 2.69   6 2.70   9 2.73  23 2.74   5 2.76  24 2.76  39 3.49
  46  0.000  0.111  0.378-  28 2.69  16 2.70  10 2.74  36 2.74  34 2.75  18 2.77  49 3.49
  47  1.000  0.444  0.378-  29 2.70  17 2.70  34 2.74  11 2.74  16 2.76  35 2.76  53 3.49  50 3.49

  48  1.000  0.777  0.378-  18 2.70  30 2.71  35 2.73  12 2.74  17 2.75  36 2.76  54 3.48
  49  0.333  0.111  0.378-  31 2.70  10 2.70  30 2.74  13 2.75  12 2.75  28 2.76  52 3.48  46 3.49

  50  0.333  0.444  0.378-  32 2.69  11 2.70  28 2.73  14 2.73  29 2.75  10 2.76  47 3.49
  51  0.333  0.777  0.378-  33 2.69  12 2.70  29 2.73  15 2.74  11 2.75  30 2.76
  52  0.666  0.111  0.378-  13 2.70  34 2.70  33 2.73  16 2.74  31 2.75  15 2.76  49 3.48
  53  0.667  0.444  0.378-  35 2.69  14 2.70  17 2.73  31 2.75  13 2.75  32 2.76  47 3.49
  54  0.667  0.778  0.377-  36 2.68  15 2.70  32 2.73  18 2.74  33 2.76  14 2.76  48 3.48
 

IMPORTANT INFORMATION: All symmetrisations will be switched off!
NOSYMM: (Re-)initialisation of all symmetry stuff for point group C_1.


----------------------------------------------------------------------------------------

                                     Primitive cell                                     

  volume of cell :    2918.7962

  direct lattice vectors                    reciprocal lattice vectors
    10.471121963  0.000000000  0.000000000     0.095500750  0.054637332 -0.001720780
    -5.312369371  9.285505716  0.000000000     0.000000000  0.107694727  0.000612907
     0.638651547 -0.170846057 30.019606018     0.000000000  0.000000000  0.033311563

  length of vectors
    10.471121963 10.697751387 30.026884781     0.110039049  0.107696471  0.033311563

  position of ions in fractional coordinates (direct lattice)
     0.222289975  0.111176931  0.682679620
     0.221557787  0.444129906  0.682744870
     0.222595852  0.778439234  0.683043731
     0.556004396  0.111469373  0.682673781
     0.555866121  0.444880182  0.682891967
     0.555813812  0.778546612  0.682925371
     0.887996190  0.110149368  0.682801513
     0.888902850  0.443797257  0.682942320
     0.888861877  0.778055934  0.682688362
     0.222426859  0.222318520  0.438110387
     0.222402319  0.555681434  0.438139669
     0.223013151  0.889708563  0.437940557
     0.556221605  0.222843738  0.438344842
     0.555464099  0.555526213  0.438111846
     0.555141742  0.887892491  0.438216532
     0.887933394  0.221476138  0.438057954
     0.888960651  0.555600762  0.438044219
     0.888528587  0.888262865  0.438346918
     0.222665700  0.110713052  0.562059973
     0.222323372  0.444258733  0.561827190
     0.222074282  0.777859084  0.561860418
     0.555037465  0.111084760  0.561738425
     0.555509794  0.444669789  0.561872858
     0.555419038  0.777955919  0.561846326
     0.888876272  0.111449185  0.562025959
     0.889181459  0.444199186  0.561684849
     0.888904404  0.777865504  0.561874617
     0.222095087  0.222974149  0.317279681
     0.222789929  0.555740159  0.317443591
     0.222848103  0.889448026  0.317085364
     0.555403434  0.221779689  0.317047725
     0.555693730  0.555879576  0.317411643
     0.555571607  0.889179389  0.317265500
     0.888988615  0.222341236  0.317245907
     0.888818781  0.555704258  0.317315279
     0.888313010  0.888754380  0.317305522
     0.000189480  0.000088001  0.622270970
     0.999852532  0.333010964  0.622261346
     0.000099399  0.666759750  0.622354180
     0.333321649  0.999807128  0.622305496
     0.333291660  0.333348655  0.622340136
     0.333163843  0.666591752  0.622311908
     0.666742573  0.999997456  0.622334251
     0.666758252  0.333424055  0.622346073
     0.666712060  0.666623854  0.622330491
     0.000082292  0.111330400  0.377626878
     0.999936919  0.443892625  0.377712949
     0.999773397  0.776997618  0.377798145
     0.333373343  0.111232006  0.377623618
     0.333494049  0.444415915  0.377662047
     0.333476789  0.777223269  0.377586710
     0.665699050  0.110756985  0.377632293
     0.667024345  0.444121747  0.377867208
     0.667467134  0.777926246  0.377447222

  ion indices of the primitive-cell ions
   primitive index   ion index
                 1           1
                 2           2
                 3           3
                 4           4
                 5           5
                 6           6
                 7           7
                 8           8
                 9           9
                10          10
                11          11
                12          12
                13          13
                14          14
                15          15
                16          16
                17          17
                18          18
                19          19
                20          20
                21          21
                22          22
                23          23
                24          24
                25          25
                26          26
                27          27
                28          28
                29          29
                30          30
                31          31
                32          32
                33          33
                34          34
                35          35
                36          36
                37          37
                38          38
                39          39
                40          40
                41          41
                42          42
                43          43
                44          44
                45          45
                46          46
                47          47
                48          48
                49          49
                50          50
                51          51
                52          52
                53          53
                54          54

----------------------------------------------------------------------------------------

 
 

Automatic generation of k-mesh.
 generate k-points for:    3    3    1
Space group operators:
 irot       det(A)        alpha          n_x          n_y          n_z        tau_x        tau_y        tau_z
    1     1.000000     0.000000     1.000000     0.000000     0.000000     0.000000     0.000000     0.000000
 
 Subroutine IBZKPT returns following result:
 ===========================================
 
 Found      5 irreducible k-points:
 
 Following reciprocal coordinates:
            Coordinates               Weight
  0.000000  0.000000  0.000000      1.000000
  0.333333 -0.000000 -0.000000      2.000000
  0.000000  0.333333 -0.000000      2.000000
  0.333333  0.333333 -0.000000      2.000000
 -0.333333  0.333333 -0.000000      2.000000
 
 Following cartesian coordinates:
            Coordinates               Weight
  0.000000  0.000000  0.000000      1.000000
  0.031834  0.018212 -0.000574      2.000000
  0.000000  0.035898  0.000204      2.000000
  0.031834  0.054111 -0.000369      2.000000
 -0.031834  0.017686  0.000778      2.000000
 


--------------------------------------------------------------------------------------------------------




 Dimension of arrays:
   k-points           NKPTS =      5   k-points in BZ     NKDIM =      5   number of bands    NBANDS=    200
   number of dos      NEDOS =    301   number of ions     NIONS =     54
   non local maximal  LDIM  =      6   non local SUM 2l+1 LMDIM =     18
   total plane-waves  NPLWV = ******
   max r-space proj   IRMAX =      1   max aug-charges    IRDMAX=  35672
   dimension x,y,z NGX =    80 NGY =   84 NGZ =  240
   dimension x,y,z NGXF=   160 NGYF=  168 NGZF=  480
   support grid    NGXF=   160 NGYF=  168 NGZF=  480
   ions per type =              36  18
   NGX,Y,Z   is equivalent  to a cutoff of  12.70, 13.05, 13.29 a.u.
   NGXF,Y,Z  is equivalent  to a cutoff of  25.40, 26.11, 26.58 a.u.

 SYSTEM =  dpgen_md                                
 POSCAR =  Te Mo                                   

 Startparameter for this run:
   NWRITE =      2    write-flag & timer
   PREC   = a         normal or accurate (medium, high low for compatibility)
   ISTART =      0    job   : 0-new  1-cont  2-samecut
   ICHARG =      2    charge: 1-file 2-atom 10-const
   ISPIN  =      1    spin polarized calculation?
   LNONCOLLINEAR =      F non collinear calculations
   LSORBIT =      F    spin-orbit coupling
   INIWAV =      1    electr: 0-lowe 1-rand  2-diag
   LASPH  =      F    aspherical Exc in radial PAW
   METAGGA=      F    non-selfconsistent MetaGGA calc.

 Electronic Relaxation 1
   ENCUT  =  550.0 eV  40.42 Ry    6.36 a.u.  20.02 20.46 57.42*2*pi/ulx,y,z
   ENINI  =  550.0     initial cutoff
   ENAUG  =  368.8 eV  augmentation charge cutoff
   NELM   =    100;   NELMIN=  6; NELMDL= -5     # of ELM steps 
   EDIFF  = 0.1E-05   stopping-criterion for ELM
   LREAL  =      F    real-space projection
   NLSPLINE    = F    spline interpolate recip. space projectors
   LCOMPAT=      F    compatible to vasp.4.4
   GGA_COMPAT  = T    GGA compatible to vasp.4.4-vasp.4.6
   LMAXPAW     = -100 max onsite density
   LMAXMIX     =    2 max onsite mixed and CHGCAR
   VOSKOWN=      0    Vosko Wilk Nusair interpolation
   ROPT   =    0.00000   0.00000
 Ionic relaxation
   EDIFFG = 0.1E-04   stopping-criterion for IOM
   NSW    =     10    number of steps for IOM
   NBLOCK =      1;   KBLOCK =      1    inner block; outer block 
   IBRION =      0    ionic relax: 0-MD 1-quasi-New 2-CG
   NFREE  =      0    steps in history (QN), initial steepest desc. (CG)
   ISIF   =      2    stress and relaxation
   IWAVPR =     11    prediction:  0-non 1-charg 2-wave 3-comb
   ISYM   =      0    0-nonsym 1-usesym 2-fastsym
   LCORR  =      T    Harris-Foulkes like correction to forces

   POTIM  = 2.0000    time-step for ionic-motion
   TEIN   =  100.0    initial temperature
   TEBEG  =  100.0;   TEEND  = 100.0 temperature during run
   SMASS  =   0.04    Nose mass-parameter (am)
   estimated Nose-frequenzy (Omega)   =  0.79E+14 period in steps = 0.40E+02 mass=   0.327E-28a.u.
   SCALEE = 1.0000    scale energy and forces
   NPACO  =    256;   APACO  = 16.0  distance and # of slots for P.C.
   PSTRESS=    0.0 pullay stress

  Mass of Ions in am
   POMASS = 127.60 95.94
  Ionic Valenz
   ZVAL   =   6.00  6.00
  Atomic Wigner-Seitz radii
   RWIGS  =  -1.00 -1.00
  virtual crystal weights 
   VCA    =   1.00  1.00
   NELECT =     324.0000    total number of electrons
   NUPDOWN=      -1.0000    fix difference up-down

 DOS related values:
   EMIN   =  10.00;   EMAX   =-10.00  energy-range for DOS
   EFERMI =   0.00
   ISMEAR =     0;   SIGMA  =   0.10  broadening in eV -4-tet -1-fermi 0-gaus

 Electronic relaxation 2 (details)
   IALGO  =     68    algorithm
   LDIAG  =      T    sub-space diagonalisation (order eigenvalues)
   LSUBROT=      F    optimize rotation matrix (better conditioning)
   TURBO    =      0    0=normal 1=particle mesh
   IRESTART =      0    0=no restart 2=restart with 2 vectors
   NREBOOT  =      0    no. of reboots
   NMIN     =      0    reboot dimension
   EREF     =   0.00    reference energy to select bands
   IMIX   =      4    mixing-type and parameters
     AMIX     =   0.40;   BMIX     =  1.00
     AMIX_MAG =   1.60;   BMIX_MAG =  1.00
     AMIN     =   0.10
     WC   =   100.;   INIMIX=   1;  MIXPRE=   1;  MAXMIX= -45

 Intra band minimization:
   WEIMIN = 0.0010     energy-eigenvalue tresh-hold
   EBREAK =  0.13E-08  absolut break condition
   DEPER  =   0.30     relativ break condition  

   TIME   =   0.40     timestep for ELM

  volume/ion in A,a.u.               =      54.05       364.76
  Fermi-wavevector in a.u.,A,eV,Ry     =   0.786784  1.486805  8.422391  0.619028
  Thomas-Fermi vector in A             =   1.891392
 
 Write flags
   LWAVE        =      F    write WAVECAR
   LDOWNSAMPLE  =      F    k-point downsampling of WAVECAR
   LCHARG       =      F    write CHGCAR
   LVTOT        =      F    write LOCPOT, total local potential
   LVHAR        =      F    write LOCPOT, Hartree potential only
   LELF         =      F    write electronic localiz. function (ELF)
   LORBIT       =      0    0 simple, 1 ext, 2 COOP (PROOUT), +10 PAW based schemes


 Dipole corrections
   LMONO  =      F    monopole corrections only (constant potential shift)
   LDIPOL =      F    correct potential (dipole corrections)
   IDIPOL =      0    1-x, 2-y, 3-z, 4-all directions 
   EPSILON=  1.0000000 bulk dielectric constant

 Exchange correlation treatment:
   GGA     =    --    GGA type
   LEXCH   =     8    internal setting for exchange type
   VOSKOWN=      0    Vosko Wilk Nusair interpolation
   LHFCALC =     F    Hartree Fock is set to
   LHFONE  =     F    Hartree Fock one center treatment
   AEXX    =    0.0000 exact exchange contribution

 Linear response parameters
   LEPSILON=     F    determine dielectric tensor
   LRPA    =     F    only Hartree local field effects (RPA)
   LNABLA  =     F    use nabla operator in PAW spheres
   LVEL    =     F    velocity operator in full k-point grid
   LINTERFAST=   F  fast interpolation
   KINTER  =     0    interpolate to denser k-point grid
   CSHIFT  =0.1000    complex shift for real part using Kramers Kronig
   OMEGAMAX=  -1.0    maximum frequency
   DEG_THRESHOLD= 0.2000000E-02 threshold for treating states as degnerate
   RTIME   =   -0.100 relaxation time in fs
  (WPLASMAI=    0.000 imaginary part of plasma frequency in eV, 0.658/RTIME)
   DFIELD  = 0.0000000 0.0000000 0.0000000 field for delta impulse in time
 
 Orbital magnetization related:
   ORBITALMAG=     F  switch on orbital magnetization
   LCHIMAG   =     F  perturbation theory with respect to B field
   DQ        =  0.001000  dq finite difference perturbation B field
   LLRAUG    =     F  two centre corrections for induced B field



--------------------------------------------------------------------------------------------------------


 molecular dynamics for ions
   using nose mass (canonical ensemble)
 charge density and potential will be updated during run
 non-spin polarized calculation
 RMM-DIIS sequential band-by-band and
  variant of blocked Davidson during initial phase
 perform sub-space diagonalisation
    before iterative eigenvector-optimisation
 modified Broyden-mixing scheme, WC =      100.0
 initial mixing is a Kerker type mixing with AMIX =  0.4000 and BMIX =      1.0000
 Hartree-type preconditioning will be used
 using additional bands           38
 reciprocal scheme for non local part
 use partial core corrections
 calculate Harris-corrections to forces 
   (improved forces if not selfconsistent)
 use gradient corrections 
 use of overlap-Matrix (Vanderbilt PP)
 Gauss-broadening in eV      SIGMA  =   0.10


--------------------------------------------------------------------------------------------------------


  energy-cutoff  :      550.00
  volume of cell :     2918.80
      direct lattice vectors                 reciprocal lattice vectors
    10.471121963  0.000000000  0.000000000     0.095500750  0.054637332 -0.001720780
    -5.312369371  9.285505716  0.000000000     0.000000000  0.107694727  0.000612907
     0.638651547 -0.170846057 30.019606018     0.000000000  0.000000000  0.033311563

  length of vectors
    10.471121963 10.697751387 30.026884781     0.110039049  0.107696471  0.033311563


 
 k-points in units of 2pi/SCALE and weight: read from INCAR                         
   0.00000000  0.00000000  0.00000000       0.111
   0.03183358  0.01821244 -0.00057359       0.222
   0.00000000  0.03589824  0.00020430       0.222
   0.03183358  0.05411069 -0.00036929       0.222
  -0.03183358  0.01768580  0.00077790       0.222
 
 k-points in reciprocal lattice and weights: read from INCAR                         
   0.00000000  0.00000000  0.00000000       0.111
   0.33333333 -0.00000000 -0.00000000       0.222
   0.00000000  0.33333333 -0.00000000       0.222
   0.33333333  0.33333333 -0.00000000       0.222
  -0.33333333  0.33333333 -0.00000000       0.222
 
 position of ions in fractional coordinates (direct lattice) 
   0.22228997  0.11117693  0.68267962
   0.22155779  0.44412991  0.68274487
   0.22259585  0.77843923  0.68304373
   0.55600440  0.11146937  0.68267378
   0.55586612  0.44488018  0.68289197
   0.55581381  0.77854661  0.68292537
   0.88799619  0.11014937  0.68280151
   0.88890285  0.44379726  0.68294232
   0.88886188  0.77805593  0.68268836
   0.22242686  0.22231852  0.43811039
   0.22240232  0.55568143  0.43813967
   0.22301315  0.88970856  0.43794056
   0.55622160  0.22284374  0.43834484
   0.55546410  0.55552621  0.43811185
   0.55514174  0.88789249  0.43821653
   0.88793339  0.22147614  0.43805795
   0.88896065  0.55560076  0.43804422
   0.88852859  0.88826286  0.43834692
   0.22266570  0.11071305  0.56205997
   0.22232337  0.44425873  0.56182719
   0.22207428  0.77785908  0.56186042
   0.55503746  0.11108476  0.56173843
   0.55550979  0.44466979  0.56187286
   0.55541904  0.77795592  0.56184633
   0.88887627  0.11144919  0.56202596
   0.88918146  0.44419919  0.56168485
   0.88890440  0.77786550  0.56187462
   0.22209509  0.22297415  0.31727968
   0.22278993  0.55574016  0.31744359
   0.22284810  0.88944803  0.31708536
   0.55540343  0.22177969  0.31704773
   0.55569373  0.55587958  0.31741164
   0.55557161  0.88917939  0.31726550
   0.88898862  0.22234124  0.31724591
   0.88881878  0.55570426  0.31731528
   0.88831301  0.88875438  0.31730552
   0.00018948  0.00008800  0.62227097
   0.99985253  0.33301096  0.62226135
   0.00009940  0.66675975  0.62235418
   0.33332165  0.99980713  0.62230550
   0.33329166  0.33334866  0.62234014
   0.33316384  0.66659175  0.62231191
   0.66674257  0.99999746  0.62233425
   0.66675825  0.33342406  0.62234607
   0.66671206  0.66662385  0.62233049
   0.00008229  0.11133040  0.37762688
   0.99993692  0.44389262  0.37771295
   0.99977340  0.77699762  0.37779815
   0.33337334  0.11123201  0.37762362
   0.33349405  0.44441591  0.37766205
   0.33347679  0.77722327  0.37758671
   0.66569905  0.11075699  0.37763229
   0.66702435  0.44412175  0.37786721
   0.66746713  0.77792625  0.37744722
 
 position of ions in cartesian coordinates  (Angst):
   2.17300691  0.91570091 20.49377322
   0.39661257  4.00732652 20.49573202
  -1.36830149  7.11150663 20.50470370
   5.66581403  0.91841738 20.49359795
   3.89330410  4.01426807 20.50014780
   2.12021838  7.11252391 20.50115057
   9.14923452  0.90613864 20.49743241
   7.38635737  4.00420396 20.50165937
   5.61006058  7.10800821 20.49403567
   1.42782055  1.98949046 13.15190121
  -0.34336464  5.08492869 13.15278023
  -2.11157120  8.18657353 13.14680297
   4.92038563  1.99432732 13.15893946
   3.14497269  5.08349215 13.15194500
   1.37601168  8.16966323 13.15508764
   8.40086221  1.98167747 13.15032720
   6.63661655  5.08419592 13.14991489
   4.86506171  8.17308007 13.15900177
   2.10237154  0.93200095 16.87281894
   0.32672046  4.02918105 16.86583090
  -1.44807485  7.12682333 16.86682839
   5.58049682  0.93550738 16.86316622
   3.81340161  4.03299011 16.86720184
   2.04189531  7.12772491 16.86640534
   9.07441136  0.93884213 16.87179786
   7.30969825  4.02865244 16.86155787
   5.53435964  7.12688052 16.86725464
   1.34369486  2.01622176  9.52461103
  -0.41670064  5.10609444  9.52953153
  -2.18909972  8.20480195  9.51877769
   4.84000450  2.00517021  9.51764779
   3.06841462  5.10739445  9.52857246
   1.29643080  8.20227674  9.52418530
   8.33015903  2.01035061  9.52359713
   6.55747747  5.10578300  9.52567967
   4.78288999  8.19832348  9.52538676
   0.39893089 -0.10549541 18.68032937
   9.09790873  2.98586431 18.68004043
  -3.14356580  6.08487471 18.68282728
  -1.42365676  9.17739636 18.68136582
   2.11652492  2.98898649 18.68240568
   0.34485809  6.08332199 18.68155831
   2.06664167  9.17915874 18.68222904
   5.60789752  2.98968560 18.68258391
   3.83732348  6.08361690 18.68211616
  -0.34939453  0.96924300 11.33621011
   8.35356680  4.05723674 11.33879391
   6.58233220  7.15027050 11.34135147
   3.14105734  0.96832992 11.33611222
   1.37234981  4.06210445 11.33726586
  -0.39587463  7.15240190 11.33500426
   6.62340938  0.96391763 11.33637266
   4.86647998  4.05933789 11.34342471
   3.09755546  7.15895323 11.33081689
 


--------------------------------------------------------------------------------------------------------


 k-point   1 :   0.0000 0.0000 0.0000  plane waves:   85505
 k-point   2 :   0.3333-0.0000-0.0000  plane waves:   85502
 k-point   3 :   0.0000 0.3333-0.0000  plane waves:   85420
 k-point   4 :   0.3333 0.3333-0.0000  plane waves:   85492
 k-point   5 :  -0.3333 0.3333-0.0000  plane waves:   85498

 maximum and minimum number of plane-waves per node :     85505    85420

 maximum number of plane-waves:     85505
 maximum index in each direction: 
   IXMAX=   20   IYMAX=   20   IZMAX=   57
   IXMIN=  -20   IYMIN=  -20   IZMIN=  -57


 serial   3D FFT for wavefunctions
 parallel 3D FFT for charge:
    minimum data exchange during FFTs selected (reduces bandwidth)


 total amount of memory used by VASP MPI-rank0   362523. kBytes
=======================================================================

   base      :      30000. kBytes
   nonl-proj :     197038. kBytes
   fftplans  :      17372. kBytes
   grid      :      82746. kBytes
   one-center:        839. kBytes
   wavefun   :      34528. kBytes
 
     INWAV:  cpu time    0.0001: real time    0.0001
 Broyden mixing: mesh for mixing (old mesh)
   NGX = 41   NGY = 41   NGZ =115
  (NGX  =160   NGY  =168   NGZ  =480)
  gives a total of 193315 points

 initial charge density was supplied:
 charge density of overlapping atoms calculated
 number of electron     324.0000000 magnetization 
 keeping initial charge density in first step


--------------------------------------------------------------------------------------------------------


 Maximum index for augmentation-charges         1195 (set IRDMAX)


--------------------------------------------------------------------------------------------------------


 First call to EWALD:  gamma=   0.124
 Maximum number of real-space cells 4x 4x 2
 Maximum number of reciprocal cells 2x 2x 5

    FEWALD:  cpu time    0.0021: real time    0.0021


--------------------------------------- Iteration      1(   1)  ---------------------------------------


    POTLOK:  cpu time    0.3186: real time    0.3202
    SETDIJ:  cpu time    0.0116: real time    0.0118
     EDDAV:  cpu time   48.8984: real time   49.0440
       DOS:  cpu time    0.0008: real time    0.0010
    --------------------------------------------
      LOOP:  cpu time   49.2294: real time   49.3770

 eigenvalue-minimisations  :  2000
 total energy-change (2. order) : 0.2102262E+04  (-0.1148184E+05)
 number of electron     324.0000000 magnetization 
 augmentation part      324.0000000 magnetization 

 Free energy of the ion-electron system (eV)
  ---------------------------------------------------
  alpha Z        PSCENC =       245.87745648
  Ewald energy   TEWEN  =     59600.03517977
  -Hartree energ DENC   =    -71281.14490541
  -exchange      EXHF   =         0.00000000
  -V(xc)+E(xc)   XCENC  =     -2101.50542546
  PAW double counting   =      7476.04436201    -4809.59211051
  entropy T*S    EENTRO =        -0.12656641
  eigenvalues    EBANDS =      1019.59162616
  atomic energy  EATOM  =     11953.08265402
  Solvation  Ediel_sol  =         0.00000000
  ---------------------------------------------------
  free energy    TOTEN  =      2102.26227066 eV

  energy without entropy =     2102.38883708  energy(sigma->0) =     2102.32555387


--------------------------------------------------------------------------------------------------------




--------------------------------------- Iteration      1(   2)  ---------------------------------------


     EDDAV:  cpu time   66.0862: real time   66.2653
       DOS:  cpu time    0.0006: real time    0.0006
    --------------------------------------------
      LOOP:  cpu time   66.0868: real time   66.2659

 eigenvalue-minimisations  :  2920
 total energy-change (2. order) :-0.2193713E+04  (-0.2121145E+04)
 number of electron     324.0000000 magnetization 
 augmentation part      324.0000000 magnetization 

 Free energy of the ion-electron system (eV)
  ---------------------------------------------------
  alpha Z        PSCENC =       245.87745648
  Ewald energy   TEWEN  =     59600.03517977
  -Hartree energ DENC   =    -71281.14490541
  -exchange      EXHF   =         0.00000000
  -V(xc)+E(xc)   XCENC  =     -2101.50542546
  PAW double counting   =      7476.04436201    -4809.59211051
  entropy T*S    EENTRO =        -0.01967213
  eigenvalues    EBANDS =     -1174.22827362
  atomic energy  EATOM  =     11953.08265402
  Solvation  Ediel_sol  =         0.00000000
  ---------------------------------------------------
  free energy    TOTEN  =       -91.45073484 eV

  energy without entropy =      -91.43106271  energy(sigma->0) =      -91.44089877


--------------------------------------------------------------------------------------------------------




--------------------------------------- Iteration      1(   3)  ---------------------------------------


     EDDAV:  cpu time   59.3544: real time   59.5389
       DOS:  cpu time    0.0004: real time    0.0004
    --------------------------------------------
      LOOP:  cpu time   59.3548: real time   59.5393

 eigenvalue-minimisations  :  2560
 total energy-change (2. order) :-0.2335162E+03  (-0.2299491E+03)
 number of electron     324.0000000 magnetization 
 augmentation part      324.0000000 magnetization 

 Free energy of the ion-electron system (eV)
  ---------------------------------------------------
  alpha Z        PSCENC =       245.87745648
  Ewald energy   TEWEN  =     59600.03517977
  -Hartree energ DENC   =    -71281.14490541
  -exchange      EXHF   =         0.00000000
  -V(xc)+E(xc)   XCENC  =     -2101.50542546
  PAW double counting   =      7476.04436201    -4809.59211051
  entropy T*S    EENTRO =        -0.00000000
  eigenvalues    EBANDS =     -1407.76413514
  atomic energy  EATOM  =     11953.08265402
  Solvation  Ediel_sol  =         0.00000000
  ---------------------------------------------------
  free energy    TOTEN  =      -324.96692423 eV

  energy without entropy =     -324.96692423  energy(sigma->0) =     -324.96692423


--------------------------------------------------------------------------------------------------------




--------------------------------------- Iteration      1(   4)  ---------------------------------------


     EDDAV:  cpu time   69.7899: real time   70.0392
       DOS:  cpu time    0.0004: real time    0.0004
    --------------------------------------------
      LOOP:  cpu time   69.7903: real time   70.0396

 eigenvalue-minimisations  :  3120
 total energy-change (2. order) :-0.1133982E+02  (-0.1125626E+02)
 number of electron     324.0000000 magnetization 
 augmentation part      324.0000000 magnetization 

 Free energy of the ion-electron system (eV)
  ---------------------------------------------------
  alpha Z        PSCENC =       245.87745648
  Ewald energy   TEWEN  =     59600.03517977
  -Hartree energ DENC   =    -71281.14490541
  -exchange      EXHF   =         0.00000000
  -V(xc)+E(xc)   XCENC  =     -2101.50542546
  PAW double counting   =      7476.04436201    -4809.59211051
  entropy T*S    EENTRO =        -0.00000000
  eigenvalues    EBANDS =     -1419.10396005
  atomic energy  EATOM  =     11953.08265402
  Solvation  Ediel_sol  =         0.00000000
  ---------------------------------------------------
  free energy    TOTEN  =      -336.30674914 eV

  energy without entropy =     -336.30674914  energy(sigma->0) =     -336.30674914


--------------------------------------------------------------------------------------------------------




--------------------------------------- Iteration      1(   5)  ---------------------------------------


     EDDAV:  cpu time   68.2839: real time   68.4863
       DOS:  cpu time    0.0004: real time    0.0004
    CHARGE:  cpu time    1.1798: real time    1.1812
    MIXING:  cpu time    0.0077: real time    0.0080
    --------------------------------------------
      LOOP:  cpu time   69.4718: real time   69.6759

 eigenvalue-minimisations  :  3040
 total energy-change (2. order) :-0.3119821E+00  (-0.3111635E+00)
 number of electron     324.0000000 magnetization 
 augmentation part      -25.6419537 magnetization 

 Broyden mixing:
  rms(total) = 0.19242E+01    rms(broyden)= 0.19242E+01
  rms(prec ) = 0.20371E+01
  weight for this iteration     100.00

 Free energy of the ion-electron system (eV)
  ---------------------------------------------------
  alpha Z        PSCENC =       245.87745648
  Ewald energy   TEWEN  =     59600.03517977
  -Hartree energ DENC   =    -71281.14490541
  -exchange      EXHF   =         0.00000000
  -V(xc)+E(xc)   XCENC  =     -2101.50542546
  PAW double counting   =      7476.04436201    -4809.59211051
  entropy T*S    EENTRO =        -0.00000000
  eigenvalues    EBANDS =     -1419.41594211
  atomic energy  EATOM  =     11953.08265402
  Solvation  Ediel_sol  =         0.00000000
  ---------------------------------------------------
  free energy    TOTEN  =      -336.61873120 eV

  energy without entropy =     -336.61873120  energy(sigma->0) =     -336.61873120


--------------------------------------------------------------------------------------------------------




--------------------------------------- Iteration      1(   6)  ---------------------------------------


    POTLOK:  cpu time    0.2725: real time    0.2728
    SETDIJ:  cpu time    0.0110: real time    0.0110
    EDDIAG:  cpu time    2.5460: real time    2.5530
  RMM-DIIS:  cpu time   41.5059: real time   41.6161
    ORTHCH:  cpu time    0.2279: real time    0.2281
       DOS:  cpu time    0.0004: real time    0.0004
    CHARGE:  cpu time    1.1770: real time    1.1781
    MIXING:  cpu time    0.0107: real time    0.0109
    --------------------------------------------
      LOOP:  cpu time   45.7514: real time   45.8704

 eigenvalue-minimisations  :  2133
 total energy-change (2. order) : 0.8962694E+01  (-0.5686026E+01)
 number of electron     324.0000000 magnetization 
 augmentation part      -19.9029436 magnetization 

 Broyden mixing:
  rms(total) = 0.71214E+00    rms(broyden)= 0.71213E+00
  rms(prec ) = 0.82792E+00
  weight for this iteration     100.00

 eigenvalues of (default mixing * dielectric matrix)
  average eigenvalue GAMMA=   1.0324
  1.0324

 Free energy of the ion-electron system (eV)
  ---------------------------------------------------
  alpha Z        PSCENC =       245.87745648
  Ewald energy   TEWEN  =     59600.03517977
  -Hartree energ DENC   =    -71256.01978781
  -exchange      EXHF   =         0.00000000
  -V(xc)+E(xc)   XCENC  =     -2094.95806328
  PAW double counting   =      7670.00229665    -5014.83483301
  entropy T*S    EENTRO =        -0.00000000
  eigenvalues    EBANDS =     -1430.84094023
  atomic energy  EATOM  =     11953.08265402
  Solvation  Ediel_sol  =         0.00000000
  ---------------------------------------------------
  free energy    TOTEN  =      -327.65603740 eV

  energy without entropy =     -327.65603740  energy(sigma->0) =     -327.65603740


--------------------------------------------------------------------------------------------------------




--------------------------------------- Iteration      1(   7)  ---------------------------------------


    POTLOK:  cpu time    0.2707: real time    0.2710
    SETDIJ:  cpu time    0.0111: real time    0.0111
    EDDIAG:  cpu time    2.5518: real time    2.5587
  RMM-DIIS:  cpu time   39.0350: real time   39.1469
    ORTHCH:  cpu time    0.2171: real time    0.2174
       DOS:  cpu time    0.0005: real time    0.0005
    CHARGE:  cpu time    1.1735: real time    1.1746
    MIXING:  cpu time    0.0078: real time    0.0078
    --------------------------------------------
      LOOP:  cpu time   43.2674: real time   43.3879

 eigenvalue-minimisations  :  2017
 total energy-change (2. order) : 0.3313141E+01  (-0.1078203E+01)
 number of electron     324.0000000 magnetization 
 augmentation part      -21.7571827 magnetization 

 Broyden mixing:
  rms(total) = 0.47264E+00    rms(broyden)= 0.47263E+00
  rms(prec ) = 0.50152E+00
  weight for this iteration     100.00

 eigenvalues of (default mixing * dielectric matrix)
  average eigenvalue GAMMA=   1.4773
  0.7333  2.2213

 Free energy of the ion-electron system (eV)
  ---------------------------------------------------
  alpha Z        PSCENC =       245.87745648
  Ewald energy   TEWEN  =     59600.03517977
  -Hartree energ DENC   =    -71342.01097988
  -exchange      EXHF   =         0.00000000
  -V(xc)+E(xc)   XCENC  =     -2093.72942398
  PAW double counting   =      7953.71376912    -5303.40556629
  entropy T*S    EENTRO =        -0.00000000
  eigenvalues    EBANDS =     -1337.90598587
  atomic energy  EATOM  =     11953.08265402
  Solvation  Ediel_sol  =         0.00000000
  ---------------------------------------------------
  free energy    TOTEN  =      -324.34289662 eV

  energy without entropy =     -324.34289662  energy(sigma->0) =     -324.34289662


--------------------------------------------------------------------------------------------------------




--------------------------------------- Iteration      1(   8)  ---------------------------------------


    POTLOK:  cpu time    0.2770: real time    0.2813
    SETDIJ:  cpu time    0.0110: real time    0.0110
    EDDIAG:  cpu time    2.5544: real time    2.5652
  RMM-DIIS:  cpu time   38.9111: real time   39.0273
    ORTHCH:  cpu time    0.2365: real time    0.2367
       DOS:  cpu time    0.0004: real time    0.0004
    CHARGE:  cpu time    1.1718: real time    1.1771
    MIXING:  cpu time    0.0083: real time    0.0083
    --------------------------------------------
      LOOP:  cpu time   43.1704: real time   43.3074

 eigenvalue-minimisations  :  2015
 total energy-change (2. order) : 0.4462232E+00  (-0.8065422E+00)
 number of electron     324.0000000 magnetization 
 augmentation part      -21.6115513 magnetization 

 Broyden mixing:
  rms(total) = 0.14425E+00    rms(broyden)= 0.14425E+00
  rms(prec ) = 0.16785E+00
  weight for this iteration     100.00

 eigenvalues of (default mixing * dielectric matrix)
  average eigenvalue GAMMA=   1.2380
  2.1603  0.7769  0.7769

 Free energy of the ion-electron system (eV)
  ---------------------------------------------------
  alpha Z        PSCENC =       245.87745648
  Ewald energy   TEWEN  =     59600.03517977
  -Hartree energ DENC   =    -71403.84079989
  -exchange      EXHF   =         0.00000000
  -V(xc)+E(xc)   XCENC  =     -2089.80881085
  PAW double counting   =      8264.05407493    -5620.13697640
  entropy T*S    EENTRO =        -0.00000000
  eigenvalues    EBANDS =     -1273.15945147
  atomic energy  EATOM  =     11953.08265402
  Solvation  Ediel_sol  =         0.00000000
  ---------------------------------------------------
  free energy    TOTEN  =      -323.89667340 eV

  energy without entropy =     -323.89667340  energy(sigma->0) =     -323.89667340


--------------------------------------------------------------------------------------------------------




--------------------------------------- Iteration      1(   9)  ---------------------------------------


    POTLOK:  cpu time    0.2752: real time    0.2754
    SETDIJ:  cpu time    0.0110: real time    0.0110
    EDDIAG:  cpu time    2.5515: real time    2.5623
  RMM-DIIS:  cpu time   43.7481: real time   43.8762
    ORTHCH:  cpu time    0.2159: real time    0.2165
       DOS:  cpu time    0.0004: real time    0.0004
    CHARGE:  cpu time    1.1786: real time    1.1797
    MIXING:  cpu time    0.0071: real time    0.0071
    --------------------------------------------
      LOOP:  cpu time   47.9878: real time   48.1285

 eigenvalue-minimisations  :  2226
 total energy-change (2. order) :-0.2243184E-01  (-0.1387345E+00)
 number of electron     324.0000000 magnetization 
 augmentation part      -21.2488396 magnetization 

 Broyden mixing:
  rms(total) = 0.10107E+00    rms(broyden)= 0.10107E+00
  rms(prec ) = 0.11312E+00
  weight for this iteration     100.00

 eigenvalues of (default mixing * dielectric matrix)
  average eigenvalue GAMMA=   1.1376
  2.0070  1.3697  0.7490  0.4247

 Free energy of the ion-electron system (eV)
  ---------------------------------------------------
  alpha Z        PSCENC =       245.87745648
  Ewald energy   TEWEN  =     59600.03517977
  -Hartree energ DENC   =    -71400.20266567
  -exchange      EXHF   =         0.00000000
  -V(xc)+E(xc)   XCENC  =     -2089.53597707
  PAW double counting   =      8259.17605030    -5615.32020730
  entropy T*S    EENTRO =        -0.00000000
  eigenvalues    EBANDS =     -1277.03159577
  atomic energy  EATOM  =     11953.08265402
  Solvation  Ediel_sol  =         0.00000000
  ---------------------------------------------------
  free energy    TOTEN  =      -323.91910523 eV

  energy without entropy =     -323.91910523  energy(sigma->0) =     -323.91910523


--------------------------------------------------------------------------------------------------------




--------------------------------------- Iteration      1(  10)  ---------------------------------------


    POTLOK:  cpu time    0.2821: real time    0.2824
    SETDIJ:  cpu time    0.0107: real time    0.0108
    EDDIAG:  cpu time    2.5397: real time    2.5424
  RMM-DIIS:  cpu time   45.7758: real time   45.9049
    ORTHCH:  cpu time    0.2283: real time    0.2286
       DOS:  cpu time    0.0005: real time    0.0005
    CHARGE:  cpu time    1.1741: real time    1.1752
    MIXING:  cpu time    0.0081: real time    0.0082
    --------------------------------------------
      LOOP:  cpu time   50.0194: real time   50.1529

 eigenvalue-minimisations  :  2296
 total energy-change (2. order) :-0.2420843E-02  (-0.4639571E-01)
 number of electron     324.0000000 magnetization 
 augmentation part      -21.0032102 magnetization 

 Broyden mixing:
  rms(total) = 0.73880E-01    rms(broyden)= 0.73880E-01
  rms(prec ) = 0.82711E-01
  weight for this iteration     100.00

 eigenvalues of (default mixing * dielectric matrix)
  average eigenvalue GAMMA=   1.2819
  2.3890  1.7666  0.9319  0.9319  0.3900

 Free energy of the ion-electron system (eV)
  ---------------------------------------------------
  alpha Z        PSCENC =       245.87745648
  Ewald energy   TEWEN  =     59600.03517977
  -Hartree energ DENC   =    -71400.84165233
  -exchange      EXHF   =         0.00000000
  -V(xc)+E(xc)   XCENC  =     -2089.32323700
  PAW double counting   =      8267.44067003    -5623.54524468
  entropy T*S    EENTRO =        -0.00000000
  eigenvalues    EBANDS =     -1276.64735238
  atomic energy  EATOM  =     11953.08265402
  Solvation  Ediel_sol  =         0.00000000
  ---------------------------------------------------
  free energy    TOTEN  =      -323.92152608 eV

  energy without entropy =     -323.92152608  energy(sigma->0) =     -323.92152608


--------------------------------------------------------------------------------------------------------




--------------------------------------- Iteration      1(  11)  ---------------------------------------


    POTLOK:  cpu time    0.2824: real time    0.2827
    SETDIJ:  cpu time    0.0111: real time    0.0111
    EDDIAG:  cpu time    2.5234: real time    2.5342
  RMM-DIIS:  cpu time   41.4015: real time   41.5308
    ORTHCH:  cpu time    0.2599: real time    0.2601
       DOS:  cpu time    0.0004: real time    0.0004
    CHARGE:  cpu time    1.1796: real time    1.1806
    MIXING:  cpu time    0.0073: real time    0.0073
    --------------------------------------------
      LOOP:  cpu time   45.6655: real time   45.8073

 eigenvalue-minimisations  :  2124
 total energy-change (2. order) : 0.1266555E-01  (-0.1814396E-01)
 number of electron     324.0000000 magnetization 
 augmentation part      -21.3069321 magnetization 

 Broyden mixing:
  rms(total) = 0.40021E-01    rms(broyden)= 0.40020E-01
  rms(prec ) = 0.45776E-01
  weight for this iteration     100.00

 eigenvalues of (default mixing * dielectric matrix)
  average eigenvalue GAMMA=   1.2003
  2.5567  1.6890  1.2381  0.7819  0.5524  0.3835

 Free energy of the ion-electron system (eV)
  ---------------------------------------------------
  alpha Z        PSCENC =       245.87745648
  Ewald energy   TEWEN  =     59600.03517977
  -Hartree energ DENC   =    -71419.88320255
  -exchange      EXHF   =         0.00000000
  -V(xc)+E(xc)   XCENC  =     -2089.01792480
  PAW double counting   =      8319.85280969    -5676.23822937
  entropy T*S    EENTRO =        -0.00000000
  eigenvalues    EBANDS =     -1257.61760377
  atomic energy  EATOM  =     11953.08265402
  Solvation  Ediel_sol  =         0.00000000
  ---------------------------------------------------
  free energy    TOTEN  =      -323.90886052 eV

  energy without entropy =     -323.90886052  energy(sigma->0) =     -323.90886052


--------------------------------------------------------------------------------------------------------




--------------------------------------- Iteration      1(  12)  ---------------------------------------


    POTLOK:  cpu time    0.2740: real time    0.2742
    SETDIJ:  cpu time    0.0186: real time    0.0186
    EDDIAG:  cpu time    2.5374: real time    2.5401
  RMM-DIIS:  cpu time   49.1264: real time   49.2856
    ORTHCH:  cpu time    0.2312: real time    0.2316
       DOS:  cpu time    0.0004: real time    0.0004
    CHARGE:  cpu time    1.1725: real time    1.1776
    MIXING:  cpu time    0.0075: real time    0.0076
    --------------------------------------------
      LOOP:  cpu time   53.3680: real time   53.5357

 eigenvalue-minimisations  :  2503
 total energy-change (2. order) :-0.5900358E-04  (-0.4661852E-02)
 number of electron     324.0000000 magnetization 
 augmentation part      -21.3156462 magnetization 

 Broyden mixing:
  rms(total) = 0.29302E-01    rms(broyden)= 0.29302E-01
  rms(prec ) = 0.33673E-01
  weight for this iteration     100.00

 eigenvalues of (default mixing * dielectric matrix)
  average eigenvalue GAMMA=   1.1849
  2.5052  1.6976  1.6976  0.8125  0.8125  0.4015  0.3670

 Free energy of the ion-electron system (eV)
  ---------------------------------------------------
  alpha Z        PSCENC =       245.87745648
  Ewald energy   TEWEN  =     59600.03517977
  -Hartree energ DENC   =    -71423.56442944
  -exchange      EXHF   =         0.00000000
  -V(xc)+E(xc)   XCENC  =     -2088.91530984
  PAW double counting   =      8324.71627358    -5681.13646048
  entropy T*S    EENTRO =        -0.00000000
  eigenvalues    EBANDS =     -1254.00428362
  atomic energy  EATOM  =     11953.08265402
  Solvation  Ediel_sol  =         0.00000000
  ---------------------------------------------------
  free energy    TOTEN  =      -323.90891953 eV

  energy without entropy =     -323.90891953  energy(sigma->0) =     -323.90891953


--------------------------------------------------------------------------------------------------------




--------------------------------------- Iteration      1(  13)  ---------------------------------------


    POTLOK:  cpu time    0.2792: real time    0.2795
    SETDIJ:  cpu time    0.0110: real time    0.0110
    EDDIAG:  cpu time    2.5416: real time    2.5478
  RMM-DIIS:  cpu time   46.2508: real time   46.3886
    ORTHCH:  cpu time    0.2168: real time    0.2170
       DOS:  cpu time    0.0004: real time    0.0004
    CHARGE:  cpu time    1.1848: real time    1.1860
    MIXING:  cpu time    0.0085: real time    0.0085
    --------------------------------------------
      LOOP:  cpu time   50.4931: real time   50.6389

 eigenvalue-minimisations  :  2358
 total energy-change (2. order) : 0.2147795E-02  (-0.2861925E-02)
 number of electron     324.0000000 magnetization 
 augmentation part      -21.1929525 magnetization 

 Broyden mixing:
  rms(total) = 0.10328E-01    rms(broyden)= 0.10328E-01
  rms(prec ) = 0.13554E-01
  weight for this iteration     100.00

 eigenvalues of (default mixing * dielectric matrix)
  average eigenvalue GAMMA=   1.3386
  2.6704  2.6704  1.7289  1.2518  0.8076  0.8076  0.4041  0.3685

 Free energy of the ion-electron system (eV)
  ---------------------------------------------------
  alpha Z        PSCENC =       245.87745648
  Ewald energy   TEWEN  =     59600.03517977
  -Hartree energ DENC   =    -71425.32348046
  -exchange      EXHF   =         0.00000000
  -V(xc)+E(xc)   XCENC  =     -2088.83370113
  PAW double counting   =      8318.90373924    -5675.29074821
  entropy T*S    EENTRO =        -0.00000000
  eigenvalues    EBANDS =     -1252.35787145
  atomic energy  EATOM  =     11953.08265402
  Solvation  Ediel_sol  =         0.00000000
  ---------------------------------------------------
  free energy    TOTEN  =      -323.90677173 eV

  energy without entropy =     -323.90677173  energy(sigma->0) =     -323.90677173


--------------------------------------------------------------------------------------------------------




--------------------------------------- Iteration      1(  14)  ---------------------------------------


    POTLOK:  cpu time    0.2883: real time    0.2886
    SETDIJ:  cpu time    0.0110: real time    0.0110
    EDDIAG:  cpu time    2.5417: real time    2.5485
  RMM-DIIS:  cpu time   43.6607: real time   43.7950
    ORTHCH:  cpu time    0.2130: real time    0.2132
       DOS:  cpu time    0.0004: real time    0.0004
    CHARGE:  cpu time    1.1805: real time    1.1818
    MIXING:  cpu time    0.0101: real time    0.0101
    --------------------------------------------
      LOOP:  cpu time   47.9057: real time   48.0486

 eigenvalue-minimisations  :  2237
 total energy-change (2. order) :-0.4801911E-03  (-0.6794514E-03)
 number of electron     324.0000000 magnetization 
 augmentation part      -21.2071944 magnetization 

 Broyden mixing:
  rms(total) = 0.59421E-02    rms(broyden)= 0.59421E-02
  rms(prec ) = 0.77646E-02
  weight for this iteration     100.00

 eigenvalues of (default mixing * dielectric matrix)
  average eigenvalue GAMMA=   1.3027
  3.2274  2.5613  1.5177  1.5177  0.8055  0.8055  0.5165  0.4034  0.3693

 Free energy of the ion-electron system (eV)
  ---------------------------------------------------
  alpha Z        PSCENC =       245.87745648
  Ewald energy   TEWEN  =     59600.03517977
  -Hartree energ DENC   =    -71434.97101696
  -exchange      EXHF   =         0.00000000
  -V(xc)+E(xc)   XCENC  =     -2088.78664297
  PAW double counting   =      8316.92460851    -5673.21491908
  entropy T*S    EENTRO =        -0.00000000
  eigenvalues    EBANDS =     -1242.85457170
  atomic energy  EATOM  =     11953.08265402
  Solvation  Ediel_sol  =         0.00000000
  ---------------------------------------------------
  free energy    TOTEN  =      -323.90725192 eV

  energy without entropy =     -323.90725192  energy(sigma->0) =     -323.90725192


--------------------------------------------------------------------------------------------------------




--------------------------------------- Iteration      1(  15)  ---------------------------------------


    POTLOK:  cpu time    0.2755: real time    0.2758
    SETDIJ:  cpu time    0.0111: real time    0.0111
    EDDIAG:  cpu time    2.5362: real time    2.5432
  RMM-DIIS:  cpu time   52.5723: real time   52.7195
    ORTHCH:  cpu time    0.2287: real time    0.2289
       DOS:  cpu time    0.0004: real time    0.0004
    CHARGE:  cpu time    1.1832: real time    1.1845
    MIXING:  cpu time    0.0090: real time    0.0090
    --------------------------------------------
      LOOP:  cpu time   56.8164: real time   56.9724

 eigenvalue-minimisations  :  2688
 total energy-change (2. order) :-0.5839968E-03  (-0.2616400E-03)
 number of electron     324.0000000 magnetization 
 augmentation part      -21.2065497 magnetization 

 Broyden mixing:
  rms(total) = 0.41832E-02    rms(broyden)= 0.41832E-02
  rms(prec ) = 0.54653E-02
  weight for this iteration     100.00

 eigenvalues of (default mixing * dielectric matrix)
  average eigenvalue GAMMA=   1.2933
  3.4532  2.4469  1.6862  1.6862  0.8879  0.8068  0.8068  0.4070  0.3675  0.3844

 Free energy of the ion-electron system (eV)
  ---------------------------------------------------
  alpha Z        PSCENC =       245.87745648
  Ewald energy   TEWEN  =     59600.03517977
  -Hartree energ DENC   =    -71437.43212776
  -exchange      EXHF   =         0.00000000
  -V(xc)+E(xc)   XCENC  =     -2088.77062378
  PAW double counting   =      8316.89381745    -5673.17407009
  entropy T*S    EENTRO =        -0.00000000
  eigenvalues    EBANDS =     -1240.42012202
  atomic energy  EATOM  =     11953.08265402
  Solvation  Ediel_sol  =         0.00000000
  ---------------------------------------------------
  free energy    TOTEN  =      -323.90783592 eV

  energy without entropy =     -323.90783592  energy(sigma->0) =     -323.90783592


--------------------------------------------------------------------------------------------------------




--------------------------------------- Iteration      1(  16)  ---------------------------------------


    POTLOK:  cpu time    0.2868: real time    0.2872
    SETDIJ:  cpu time    0.0144: real time    0.0144
    EDDIAG:  cpu time    2.5421: real time    2.5447
  RMM-DIIS:  cpu time   46.1791: real time   46.3015
    ORTHCH:  cpu time    0.2193: real time    0.2195
       DOS:  cpu time    0.0004: real time    0.0004
    CHARGE:  cpu time    1.1767: real time    1.1819
    MIXING:  cpu time    0.0091: real time    0.0091
    --------------------------------------------
      LOOP:  cpu time   50.4279: real time   50.5586

 eigenvalue-minimisations  :  2350
 total energy-change (2. order) :-0.9541949E-03  (-0.5440045E-04)
 number of electron     324.0000000 magnetization 
 augmentation part      -21.2078693 magnetization 

 Broyden mixing:
  rms(total) = 0.28585E-02    rms(broyden)= 0.28585E-02
  rms(prec ) = 0.39643E-02
  weight for this iteration     100.00

 eigenvalues of (default mixing * dielectric matrix)
  average eigenvalue GAMMA=   1.3443
  3.8198  2.3912  1.9577  1.9577  0.8078  0.8078  0.9866  0.9112  0.4046  0.3773
  0.3656

 Free energy of the ion-electron system (eV)
  ---------------------------------------------------
  alpha Z        PSCENC =       245.87745648
  Ewald energy   TEWEN  =     59600.03517977
  -Hartree energ DENC   =    -71439.33472821
  -exchange      EXHF   =         0.00000000
  -V(xc)+E(xc)   XCENC  =     -2088.75734561
  PAW double counting   =      8316.92948545    -5673.21723644
  entropy T*S    EENTRO =        -0.00000000
  eigenvalues    EBANDS =     -1238.52425558
  atomic energy  EATOM  =     11953.08265402
  Solvation  Ediel_sol  =         0.00000000
  ---------------------------------------------------
  free energy    TOTEN  =      -323.90879011 eV

  energy without entropy =     -323.90879011  energy(sigma->0) =     -323.90879011


--------------------------------------------------------------------------------------------------------




--------------------------------------- Iteration      1(  17)  ---------------------------------------


    POTLOK:  cpu time    0.3019: real time    0.3022
    SETDIJ:  cpu time    0.0160: real time    0.0160
    EDDIAG:  cpu time    2.5231: real time    2.5256
  RMM-DIIS:  cpu time   43.0820: real time   43.1935
    ORTHCH:  cpu time    0.2274: real time    0.2277
       DOS:  cpu time    0.0004: real time    0.0004
    CHARGE:  cpu time    1.1787: real time    1.1797
    MIXING:  cpu time    0.0082: real time    0.0082
    --------------------------------------------
      LOOP:  cpu time   47.3378: real time   47.4533

 eigenvalue-minimisations  :  2176
 total energy-change (2. order) :-0.1424355E-02  (-0.3865161E-04)
 number of electron     324.0000000 magnetization 
 augmentation part      -21.2117574 magnetization 

 Broyden mixing:
  rms(total) = 0.23976E-02    rms(broyden)= 0.23976E-02
  rms(prec ) = 0.29848E-02
  weight for this iteration     100.00

 eigenvalues of (default mixing * dielectric matrix)
  average eigenvalue GAMMA=   1.3766
  4.4315  2.6040  2.3473  1.4852  1.4852  0.9525  0.8100  0.8100  0.4570  0.4038
  0.3719  0.3613

 Free energy of the ion-electron system (eV)
  ---------------------------------------------------
  alpha Z        PSCENC =       245.87745648
  Ewald energy   TEWEN  =     59600.03517977
  -Hartree energ DENC   =    -71442.45718330
  -exchange      EXHF   =         0.00000000
  -V(xc)+E(xc)   XCENC  =     -2088.74429127
  PAW double counting   =      8316.07127858    -5672.36118398
  entropy T*S    EENTRO =        -0.00000000
  eigenvalues    EBANDS =     -1235.41412478
  atomic energy  EATOM  =     11953.08265402
  Solvation  Ediel_sol  =         0.00000000
  ---------------------------------------------------
  free energy    TOTEN  =      -323.91021447 eV

  energy without entropy =     -323.91021447  energy(sigma->0) =     -323.91021447


--------------------------------------------------------------------------------------------------------




--------------------------------------- Iteration      1(  18)  ---------------------------------------


    POTLOK:  cpu time    0.2860: real time    0.2863
    SETDIJ:  cpu time    0.0111: real time    0.0112
    EDDIAG:  cpu time    2.5297: real time    2.5365
  RMM-DIIS:  cpu time   42.9672: real time   43.1000
    ORTHCH:  cpu time    0.2087: real time    0.2163
       DOS:  cpu time    0.0004: real time    0.0004
    CHARGE:  cpu time    1.1887: real time    1.1897
    MIXING:  cpu time    0.0138: real time    0.0138
    --------------------------------------------
      LOOP:  cpu time   47.2056: real time   47.3542

 eigenvalue-minimisations  :  2171
 total energy-change (2. order) :-0.7647467E-03  (-0.2119251E-04)
 number of electron     324.0000000 magnetization 
 augmentation part      -21.2122068 magnetization 

 Broyden mixing:
  rms(total) = 0.16084E-02    rms(broyden)= 0.16084E-02
  rms(prec ) = 0.19999E-02
  weight for this iteration     100.00

 eigenvalues of (default mixing * dielectric matrix)
  average eigenvalue GAMMA=   1.4155
  5.0328  2.8673  2.3048  1.6744  1.6744  0.9225  0.8240  0.8240  0.7469  0.4048
  0.3980  0.3686  0.3593

 Free energy of the ion-electron system (eV)
  ---------------------------------------------------
  alpha Z        PSCENC =       245.87745648
  Ewald energy   TEWEN  =     59600.03517977
  -Hartree energ DENC   =    -71444.05583493
  -exchange      EXHF   =         0.00000000
  -V(xc)+E(xc)   XCENC  =     -2088.73883868
  PAW double counting   =      8315.56619277    -5671.85468460
  entropy T*S    EENTRO =        -0.00000000
  eigenvalues    EBANDS =     -1233.82310406
  atomic energy  EATOM  =     11953.08265402
  Solvation  Ediel_sol  =         0.00000000
  ---------------------------------------------------
  free energy    TOTEN  =      -323.91097922 eV

  energy without entropy =     -323.91097922  energy(sigma->0) =     -323.91097922


--------------------------------------------------------------------------------------------------------




--------------------------------------- Iteration      1(  19)  ---------------------------------------


    POTLOK:  cpu time    0.2763: real time    0.2777
    SETDIJ:  cpu time    0.0176: real time    0.0176
    EDDIAG:  cpu time    2.5564: real time    2.5591
  RMM-DIIS:  cpu time   44.9604: real time   45.0986
    ORTHCH:  cpu time    0.2193: real time    0.2195
       DOS:  cpu time    0.0004: real time    0.0004
    CHARGE:  cpu time    1.1762: real time    1.1813
    MIXING:  cpu time    0.0084: real time    0.0084
    --------------------------------------------
      LOOP:  cpu time   49.2151: real time   49.3627

 eigenvalue-minimisations  :  2291
 total energy-change (2. order) :-0.5745881E-03  (-0.8408604E-05)
 number of electron     324.0000000 magnetization 
 augmentation part      -21.2093051 magnetization 

 Broyden mixing:
  rms(total) = 0.97609E-03    rms(broyden)= 0.97609E-03
  rms(prec ) = 0.12229E-02
  weight for this iteration     100.00

 eigenvalues of (default mixing * dielectric matrix)
  average eigenvalue GAMMA=   1.5170
  6.1260  3.0876  2.4034  1.8616  1.8616  1.0431  1.0431  0.8094  0.8094  0.6671
  0.4057  0.3938  0.3692  0.3576

 Free energy of the ion-electron system (eV)
  ---------------------------------------------------
  alpha Z        PSCENC =       245.87745648
  Ewald energy   TEWEN  =     59600.03517977
  -Hartree energ DENC   =    -71444.93026773
  -exchange      EXHF   =         0.00000000
  -V(xc)+E(xc)   XCENC  =     -2088.73656958
  PAW double counting   =      8315.49687443    -5671.78382927
  entropy T*S    EENTRO =        -0.00000000
  eigenvalues    EBANDS =     -1232.95305193
  atomic energy  EATOM  =     11953.08265402
  Solvation  Ediel_sol  =         0.00000000
  ---------------------------------------------------
  free energy    TOTEN  =      -323.91155380 eV

  energy without entropy =     -323.91155380  energy(sigma->0) =     -323.91155380


--------------------------------------------------------------------------------------------------------




--------------------------------------- Iteration      1(  20)  ---------------------------------------


    POTLOK:  cpu time    0.2833: real time    0.2836
    SETDIJ:  cpu time    0.0108: real time    0.0108
    EDDIAG:  cpu time    2.5397: real time    2.5423
  RMM-DIIS:  cpu time   42.3186: real time   42.4322
    ORTHCH:  cpu time    0.2196: real time    0.2272
       DOS:  cpu time    0.0004: real time    0.0004
    CHARGE:  cpu time    1.1828: real time    1.1839
    MIXING:  cpu time    0.0159: real time    0.0159
    --------------------------------------------
      LOOP:  cpu time   46.5711: real time   46.6963

 eigenvalue-minimisations  :  2141
 total energy-change (2. order) :-0.4926613E-03  (-0.8303409E-05)
 number of electron     324.0000000 magnetization 
 augmentation part      -21.2067890 magnetization 

 Broyden mixing:
  rms(total) = 0.57297E-03    rms(broyden)= 0.57297E-03
  rms(prec ) = 0.68232E-03
  weight for this iteration     100.00

 eigenvalues of (default mixing * dielectric matrix)
  average eigenvalue GAMMA=   1.5368
  6.7150  3.2027  2.4792  1.8009  1.8009  1.1996  1.1996  0.8091  0.8091  0.8235
  0.6871  0.4056  0.3942  0.3694  0.3568

 Free energy of the ion-electron system (eV)
  ---------------------------------------------------
  alpha Z        PSCENC =       245.87745648
  Ewald energy   TEWEN  =     59600.03517977
  -Hartree energ DENC   =    -71445.49043751
  -exchange      EXHF   =         0.00000000
  -V(xc)+E(xc)   XCENC  =     -2088.73616005
  PAW double counting   =      8315.96731151    -5672.25577114
  entropy T*S    EENTRO =        -0.00000000
  eigenvalues    EBANDS =     -1232.39227955
  atomic energy  EATOM  =     11953.08265402
  Solvation  Ediel_sol  =         0.00000000
  ---------------------------------------------------
  free energy    TOTEN  =      -323.91204647 eV

  energy without entropy =     -323.91204647  energy(sigma->0) =     -323.91204647


--------------------------------------------------------------------------------------------------------




--------------------------------------- Iteration      1(  21)  ---------------------------------------


    POTLOK:  cpu time    0.2757: real time    0.2759
    SETDIJ:  cpu time    0.0108: real time    0.0108
    EDDIAG:  cpu time    2.5457: real time    2.5483
  RMM-DIIS:  cpu time   43.4913: real time   43.5938
    ORTHCH:  cpu time    0.2399: real time    0.2401
       DOS:  cpu time    0.0004: real time    0.0004
    CHARGE:  cpu time    1.1858: real time    1.1870
    MIXING:  cpu time    0.0092: real time    0.0092
    --------------------------------------------
      LOOP:  cpu time   47.7588: real time   47.8655

 eigenvalue-minimisations  :  2181
 total energy-change (2. order) :-0.1225957E-03  (-0.1788411E-05)
 number of electron     324.0000000 magnetization 
 augmentation part      -21.2076803 magnetization 

 Broyden mixing:
  rms(total) = 0.41405E-03    rms(broyden)= 0.41405E-03
  rms(prec ) = 0.50520E-03
  weight for this iteration     100.00

 eigenvalues of (default mixing * dielectric matrix)
  average eigenvalue GAMMA=   1.5449
  7.1868  3.2941  2.5297  1.8943  1.7953  1.7953  1.0016  1.0016  0.8063  0.8063
  0.6800  0.3567  0.3691  0.3941  0.4038  0.4038

 Free energy of the ion-electron system (eV)
  ---------------------------------------------------
  alpha Z        PSCENC =       245.87745648
  Ewald energy   TEWEN  =     59600.03517977
  -Hartree energ DENC   =    -71445.66574929
  -exchange      EXHF   =         0.00000000
  -V(xc)+E(xc)   XCENC  =     -2088.73706171
  PAW double counting   =      8316.09154563    -5672.38053366
  entropy T*S    EENTRO =        -0.00000000
  eigenvalues    EBANDS =     -1232.21566032
  atomic energy  EATOM  =     11953.08265402
  Solvation  Ediel_sol  =         0.00000000
  ---------------------------------------------------
  free energy    TOTEN  =      -323.91216906 eV

  energy without entropy =     -323.91216906  energy(sigma->0) =     -323.91216906


--------------------------------------------------------------------------------------------------------




--------------------------------------- Iteration      1(  22)  ---------------------------------------


    POTLOK:  cpu time    0.2861: real time    0.2864
    SETDIJ:  cpu time    0.0142: real time    0.0142
    EDDIAG:  cpu time    2.5413: real time    2.5522
  RMM-DIIS:  cpu time   33.1902: real time   33.2859
    ORTHCH:  cpu time    0.2097: real time    0.2099
       DOS:  cpu time    0.0004: real time    0.0004
    CHARGE:  cpu time    1.1793: real time    1.1839
    MIXING:  cpu time    0.0089: real time    0.0089
    --------------------------------------------
      LOOP:  cpu time   37.4300: real time   37.5418

 eigenvalue-minimisations  :  1583
 total energy-change (2. order) :-0.8106207E-04  (-0.6466260E-06)
 number of electron     324.0000000 magnetization 
 augmentation part      -21.2087645 magnetization 

 Broyden mixing:
  rms(total) = 0.22321E-03    rms(broyden)= 0.22321E-03
  rms(prec ) = 0.27433E-03
  weight for this iteration     100.00

[...]
  0.000   0.000   0.000  -0.000   0.000   0.011   0.000  -0.000
 -0.000   0.000  -0.000   0.000   0.000   0.000   0.011  -0.000
 -0.000  -0.000   0.000   0.000   0.000  -0.000  -0.000   0.011
  0.001  -0.000   0.001   0.000   0.000  -0.000  -0.000   0.000
  0.000   0.000  -0.014  -0.000   0.000  -0.000   0.000  -0.000
 -0.009  -0.000   0.000  -0.018  -0.000  -0.000  -0.000   0.000
  0.000  -0.000   0.000   0.001  -0.014  -0.000  -0.000  -0.000
  0.001   0.000   0.001  -0.000   0.001   0.000   0.000  -0.000
 total augmentation occupancy for first ion, spin component:           1
  1.935   0.198   0.001   0.199   0.002   0.002   0.035  -0.008  -0.001   0.001   0.006  -0.001  -0.001
  0.198   1.306  -0.008  -0.921   0.017   0.009   0.360  -0.005  -0.000   0.001  -0.021  -0.001   0.005
  0.001  -0.008   1.337   0.001  -0.010  -0.469  -0.005   0.009   0.003  -0.114  -0.001   0.003  -0.042
  0.199  -0.921   0.001   1.494  -0.018  -0.005  -0.528   0.006   0.005  -0.003  -0.036   0.003   0.000
  0.002   0.017  -0.010  -0.018   1.330   0.009   0.006  -0.469  -0.045   0.003  -0.001  -0.115   0.002
  0.002   0.009  -0.469  -0.005   0.009   0.287   0.001  -0.001  -0.002   0.038  -0.001  -0.001   0.007
  0.035   0.360  -0.005  -0.528   0.006   0.001   0.277  -0.002   0.000   0.001   0.043  -0.002  -0.000
 -0.008  -0.005   0.009   0.006  -0.469  -0.001  -0.002   0.296   0.008  -0.001   0.001   0.036  -0.002
 -0.001  -0.000   0.003   0.005  -0.045  -0.002   0.000   0.008   0.019  -0.000   0.001  -0.000  -0.000
  0.001   0.001  -0.114  -0.003   0.003   0.038   0.001  -0.001  -0.000   0.017   0.000  -0.000  -0.000
  0.006  -0.021  -0.001  -0.036  -0.001  -0.001   0.043   0.001   0.001   0.000   0.019  -0.001  -0.001
 -0.001  -0.001   0.003   0.003  -0.115  -0.001  -0.002   0.036  -0.000  -0.000  -0.001   0.018  -0.001
 -0.001   0.005  -0.042   0.000   0.002   0.007  -0.000  -0.002  -0.000  -0.000  -0.001  -0.001   0.020


------------------------ aborting loop because EDIFF is reached ----------------------------------------


    CHARGE:  cpu time    1.1802: real time    1.1851
    FORLOC:  cpu time    0.0821: real time    0.0821
    FORNL :  cpu time   13.8366: real time   13.8783
    STRESS:  cpu time   70.3833: real time   70.5670
    FORCOR:  cpu time    0.3189: real time    0.3191
    FORHAR:  cpu time    0.1367: real time    0.1369
    MIXING:  cpu time    0.0074: real time    0.0074
    OFIELD:  cpu time    0.0000: real time    0.0000

  Number of pair interactions contributing to vdW energy:  269401
  Edisp (eV):  -19.02439
    FORVDW:  cpu time    0.0295: real time    0.0295

  FORCE on cell =-STRESS in cart. coord.  units (eV):
  Direction    XX          YY          ZZ          XY          YZ          ZX
  --------------------------------------------------------------------------------------
  Alpha Z   245.87746   245.87746   245.87746
  Ewald   68794.14393 68750.83369-77898.13653     1.52817    -1.03360   -30.50908
  Hartree 71120.07797 71107.14381-70734.57831    -0.45068    -2.88200    -1.38363
  E(xc)   -1353.87469 -1352.96046 -1372.25176    -0.27028    -0.51855     1.62466
  Local  ************************143571.62043    -1.21821     3.11842    31.80051
  n-local  3547.96439  3553.14355  3732.86388    -0.28101     4.12717   -11.72532
  augment  -759.23216  -761.50313  -800.73500     0.23126    -0.88299     2.06221
  Kinetic  3294.93292  3273.94102  3259.34480     3.09214    -0.72928    -4.71234
  Fock        0.00000     0.00000     0.00000     0.00000     0.00000     0.00000
  vdW       -12.56369   -12.49492    -9.36308    -0.13099    -0.77063     0.94238
  -------------------------------------------------------------------------------------
  Total       4.50780   -13.95313    -5.35812     2.50041     0.42854   -11.90061
  in kB       2.47441    -7.65911    -2.94116     1.37252     0.23523    -6.53245
  external pressure =       -2.71 kB  Pullay stress =        0.00 kB

  kinetic pressure (ideal gas correction) =      0.21 kB
  total pressure  =     -2.50 kB
  Total+kin.     2.694      -7.402      -2.796       1.373       0.222      -6.491

 VOLUME and BASIS-vectors are now :
 -----------------------------------------------------------------------------
  energy-cutoff  :      550.00
  volume of cell :     2918.80
      direct lattice vectors                 reciprocal lattice vectors
    10.471121963  0.000000000  0.000000000     0.095500750  0.054637332 -0.001720780
    -5.312369371  9.285505716  0.000000000     0.000000000  0.107694727  0.000612907
     0.638651547 -0.170846057 30.019606018     0.000000000  0.000000000  0.033311563

  length of vectors
    10.471121963 10.697751387 30.026884781     0.110039049  0.107696471  0.033311563


 FORCES acting on ions
    electron-ion (+dipol)            ewald-force                    non-local-force                 convergence-correction
 -----------------------------------------------------------------------------------------------
   0.179E+01 -.899E+00 -.821E+03   -.175E+01 0.879E+00 0.826E+03   -.356E+00 0.102E+00 -.556E+01   0.185E-03 -.753E-03 0.394E-03
   0.305E+00 0.165E+01 -.820E+03   -.233E+00 -.171E+01 0.826E+03   -.235E+00 -.137E+00 -.522E+01   -.309E-03 0.531E-04 0.851E-03
   0.379E+01 -.362E+00 -.825E+03   -.374E+01 0.324E+00 0.830E+03   -.528E+00 0.607E-01 -.536E+01   -.720E-03 0.267E-03 0.356E-03
   0.230E+01 -.167E+01 -.823E+03   -.227E+01 0.165E+01 0.828E+03   -.346E+00 0.110E+00 -.541E+01   -.472E-03 0.479E-03 0.555E-03
   -.300E+00 -.260E+00 -.824E+03   0.360E+00 0.210E+00 0.830E+03   -.262E+00 0.720E-01 -.541E+01   0.865E-03 0.134E-02 -.471E-03
   0.144E+01 -.404E+00 -.823E+03   -.135E+01 0.321E+00 0.828E+03   -.533E+00 0.158E+00 -.530E+01   0.151E-02 -.752E-03 0.419E-04
   -.296E+01 -.302E+01 -.825E+03   0.308E+01 0.299E+01 0.830E+03   -.153E+00 0.258E+00 -.564E+01   0.245E-03 -.125E-03 0.648E-03
   0.742E+00 -.449E+01 -.822E+03   -.686E+00 0.446E+01 0.827E+03   -.367E+00 0.394E+00 -.560E+01   -.606E-03 0.266E-03 -.123E-03
   -.251E+01 -.462E+00 -.820E+03   0.265E+01 0.404E+00 0.826E+03   -.307E+00 0.117E+00 -.549E+01   -.725E-03 -.786E-03 -.954E-03
   -.418E+01 -.810E+00 0.101E+03   0.423E+01 0.836E+00 -.957E+02   0.149E+00 -.260E-01 -.563E+01   0.249E-03 -.315E-03 -.845E-03
   -.752E+00 -.301E+01 0.102E+03   0.794E+00 0.307E+01 -.963E+02   -.161E+00 0.973E-01 -.557E+01   0.773E-03 0.275E-03 0.223E-03
   -.121E+01 -.327E+01 0.103E+03   0.128E+01 0.333E+01 -.979E+02   -.194E+00 0.305E-01 -.538E+01   0.717E-03 0.112E-02 -.214E-03
   -.442E+00 -.133E+01 0.103E+03   0.418E+00 0.133E+01 -.978E+02   -.515E-01 0.169E+00 -.580E+01   0.851E-04 -.821E-03 -.128E-02
   0.165E+00 0.123E+01 0.102E+03   -.103E+00 -.130E+01 -.969E+02   -.337E+00 0.881E-01 -.544E+01   -.216E-03 -.949E-04 -.661E-04
   0.389E+01 -.383E+01 0.101E+03   -.388E+01 0.386E+01 -.954E+02   -.466E+00 0.300E+00 -.552E+01   -.590E-04 0.796E-03 -.101E-02
   0.406E+01 0.919E+00 0.101E+03   -.415E+01 -.945E+00 -.961E+02   -.276E+00 -.798E-01 -.556E+01   -.327E-03 -.131E-02 -.468E-03
   0.226E+01 0.916E+00 0.100E+03   -.229E+01 -.889E+00 -.951E+02   -.424E+00 -.121E+00 -.538E+01   -.569E-03 -.423E-03 0.112E-02
   -.167E+00 -.199E+01 0.101E+03   0.160E+00 0.200E+01 -.953E+02   -.149E+00 0.144E+00 -.554E+01   -.712E-03 0.820E-03 0.280E-03
   -.335E+01 0.139E+01 -.101E+03   0.338E+01 -.144E+01 0.960E+02   0.276E+00 -.156E+00 0.562E+01   0.130E-03 -.681E-03 -.102E-03
   -.193E+01 -.436E+01 -.102E+03   0.190E+01 0.437E+01 0.964E+02   0.413E+00 0.255E+00 0.552E+01   -.278E-03 -.359E-04 -.432E-03
   -.781E+00 -.552E+00 -.102E+03   0.762E+00 0.488E+00 0.964E+02   0.149E+00 0.234E-01 0.548E+01   -.616E-03 0.253E-03 0.271E-03
   -.210E+01 0.201E+01 -.102E+03   0.209E+01 -.214E+01 0.965E+02   0.443E+00 -.813E-01 0.561E+01   -.442E-03 0.402E-03 0.650E-04
   -.908E+00 -.553E+00 -.102E+03   0.818E+00 0.530E+00 0.963E+02   0.269E+00 -.837E-01 0.517E+01   0.836E-03 0.138E-02 0.944E-03
   0.132E+01 -.180E+01 -.102E+03   -.140E+01 0.176E+01 0.966E+02   0.164E+00 0.979E-01 0.562E+01   0.144E-02 -.726E-03 0.384E-03
   0.238E+01 0.103E+01 -.100E+03   -.251E+01 -.112E+01 0.949E+02   0.932E-01 -.742E-01 0.524E+01   0.311E-03 -.103E-03 -.341E-03
   -.144E+01 -.310E+01 -.102E+03   0.137E+01 0.307E+01 0.964E+02   0.429E+00 0.182E+00 0.552E+01   -.577E-03 0.233E-03 0.687E-03
   -.248E+01 0.154E+01 -.102E+03   0.249E+01 -.160E+01 0.964E+02   0.172E+00 -.190E+00 0.538E+01   -.776E-03 -.755E-03 0.141E-02
   -.331E+01 -.159E+01 0.822E+03   0.320E+01 0.154E+01 -.828E+03   0.649E+00 0.230E+00 0.535E+01   0.322E-03 -.363E-03 0.447E-03
   -.204E-01 -.108E+01 0.823E+03   -.190E-01 0.115E+01 -.828E+03   0.667E-01 -.227E+00 0.528E+01   0.863E-03 0.329E-03 -.644E-03
   0.114E+01 0.390E+00 0.822E+03   -.120E+01 -.411E+00 -.828E+03   0.108E+00 -.220E+00 0.562E+01   0.785E-03 0.116E-02 -.135E-03
   -.451E+00 -.213E+01 0.822E+03   0.312E+00 0.216E+01 -.827E+03   0.419E+00 0.441E-01 0.563E+01   0.988E-04 -.867E-03 0.770E-03
   -.294E+01 -.167E+01 0.823E+03   0.289E+01 0.162E+01 -.828E+03   0.468E+00 0.264E+00 0.517E+01   -.243E-03 -.193E-03 -.198E-03
   -.281E-02 0.133E+01 0.823E+03   -.327E-03 -.126E+01 -.829E+03   0.144E+00 -.423E+00 0.530E+01   -.555E-04 0.953E-03 0.658E-03
   -.123E+01 0.146E+01 0.822E+03   0.114E+01 -.141E+01 -.828E+03   0.438E+00 -.501E+00 0.528E+01   -.413E-03 -.140E-02 0.458E-04
   0.344E+00 -.269E+01 0.823E+03   -.463E+00 0.277E+01 -.829E+03   0.232E+00 -.251E-01 0.521E+01   -.570E-03 -.482E-03 -.136E-02
   -.252E+01 0.134E+01 0.823E+03   0.241E+01 -.138E+01 -.828E+03   0.481E+00 -.169E+00 0.549E+01   -.682E-03 0.869E-03 -.350E-03
   -.268E+01 0.974E+00 -.457E+03   0.269E+01 -.941E+00 0.457E+03   0.245E+00 0.689E-01 0.596E+00   0.616E-04 -.118E-02 0.565E-03
   0.129E+01 0.821E+00 -.460E+03   -.137E+01 -.926E+00 0.460E+03   -.132E-01 -.111E+00 0.354E+00   -.544E-03 0.219E-03 0.472E-03
   -.274E+00 0.317E+01 -.463E+03   0.344E+00 -.326E+01 0.463E+03   0.122E+00 -.227E+00 0.126E+00   -.122E-02 -.566E-05 0.461E-03
   0.203E+01 0.167E+01 -.464E+03   -.205E+01 -.172E+01 0.464E+03   -.123E-01 0.671E-01 -.167E+00   -.338E-03 0.639E-05 0.389E-03
   0.101E+01 0.348E+01 -.464E+03   -.103E+01 -.354E+01 0.464E+03   -.871E-01 -.853E-01 0.162E-01   0.772E-03 0.425E-03 0.410E-03
   0.570E+00 0.121E+01 -.464E+03   -.515E+00 -.121E+01 0.464E+03   0.193E+00 -.237E-01 -.460E+00   0.389E-03 0.792E-04 0.328E-03
   0.255E+01 0.189E+01 -.463E+03   -.256E+01 -.192E+01 0.463E+03   -.303E-01 -.891E-01 -.294E+00   0.408E-03 -.332E-03 0.325E-03
   -.154E+00 0.153E+01 -.464E+03   0.139E+00 -.160E+01 0.464E+03   0.288E-01 -.651E-01 0.145E+00   -.137E-03 0.107E-02 0.423E-03
   -.129E+01 0.148E+01 -.461E+03   0.135E+01 -.150E+01 0.461E+03   0.285E+00 0.498E-01 0.105E+00   0.933E-03 -.502E-04 0.424E-03
   0.119E+01 0.370E+01 0.459E+03   -.133E+01 -.381E+01 -.459E+03   -.379E+00 0.676E-01 -.390E-01   -.307E-03 -.655E-04 -.405E-03
   0.856E+00 0.937E+00 0.463E+03   -.838E+00 -.871E+00 -.463E+03   0.129E+00 0.292E+00 0.173E+00   0.179E-03 -.935E-03 -.306E-03
   0.119E+01 -.143E+01 0.462E+03   -.123E+01 0.147E+01 -.463E+03   0.635E-01 0.459E+00 -.310E+00   -.125E-03 0.992E-03 -.361E-03
   0.263E+00 -.225E+00 0.460E+03   -.359E+00 0.269E+00 -.460E+03   -.305E+00 0.839E-01 0.502E-01   0.509E-03 0.313E-03 -.388E-03
   -.767E+00 0.353E+01 0.463E+03   0.731E+00 -.366E+01 -.463E+03   -.196E+00 -.132E+00 0.314E+00   0.508E-03 -.372E-03 -.324E-03
   0.127E+00 -.907E+00 0.462E+03   -.842E-01 0.965E+00 -.462E+03   0.222E+00 0.217E+00 0.938E-01   0.925E-03 0.118E-02 -.369E-03
   0.323E+01 -.482E+00 0.461E+03   -.328E+01 0.512E+00 -.460E+03   -.241E+00 0.373E+00 0.317E+00   -.381E-03 -.502E-03 -.345E-03
   0.780E+00 0.568E+01 0.462E+03   -.792E+00 -.580E+01 -.462E+03   0.168E+00 -.285E+00 0.184E+00   -.683E-03 -.107E-02 -.283E-03
   -.448E+00 0.193E+01 0.466E+03   0.485E+00 -.197E+01 -.466E+03   -.356E-01 -.174E+00 0.509E-01   -.659E-03 0.738E-03 -.329E-03
 -----------------------------------------------------------------------------------------------
   -.574E+00 -.117E+01 0.809E-01   0.538E-14 0.344E-13 -.568E-13   0.574E+00 0.117E+01 -.805E-01   0.335E-03 0.510E-03 0.184E-02
 
 
 POSITION                                       TOTAL-FORCE (eV/Angst)
 -----------------------------------------------------------------------------------
      2.16209      0.91578     20.48961        -0.309087      0.080218     -0.214173
      0.38672      4.03133     20.46304        -0.159787     -0.177840      0.196607
     -1.35376      7.11842     20.51164        -0.466193      0.027587     -0.021299
      5.66576      0.92345     20.50264        -0.299255      0.093437     -0.065333
      3.88839      4.02382     20.49997        -0.193944      0.026771     -0.055599
      2.14395      7.11173     20.49298        -0.419183      0.076603      0.067912
      9.14546      0.90275     20.52245        -0.029969      0.225902     -0.381001
      7.39578      3.98007     20.50341        -0.295188      0.355022     -0.274489
      5.59891      7.12040     20.48081        -0.169677      0.061028     -0.153057
      1.40064      2.02097     13.17189         0.173057      0.031170     -0.208367
     -0.36315      5.07536     13.15137        -0.131520      0.175929     -0.099524
     -2.13774      8.18406     13.13667        -0.127763      0.102978      0.106087
      4.91761      1.98499     13.16438        -0.079322      0.188405     -0.339924
      3.14894      5.11332     13.14511        -0.272642      0.042240     -0.010779
      1.38301      8.14581     13.15667        -0.449468      0.336731     -0.093632
      8.42240      2.00236     13.15948        -0.354176     -0.081486     -0.099037
      6.65353      5.08949     13.15315        -0.441641     -0.069987      0.063180
      4.85582      8.17505     13.16903        -0.165516      0.171611     -0.142606
      2.10466      0.95258     16.85159         0.310400     -0.211305      0.141269
      0.31965      4.00451     16.86379         0.381473      0.234200      0.021899
     -1.42510      7.12060     16.86906         0.140101     -0.054382      0.050234
      5.56836      0.94454     16.86702         0.423479     -0.217225      0.155883
      3.82620      4.03723     16.88595         0.188650     -0.113937     -0.299399
      2.04881      7.11679     16.86807         0.092220      0.043509      0.153026
      9.08420      0.94061     16.86534        -0.018148     -0.182757     -0.205566
      7.28962      4.01226     16.86035         0.358876      0.133004      0.045700
      5.54088      7.13465     16.86956         0.192932     -0.261297     -0.141821
      1.33647      1.98659      9.52825         0.523333      0.176560      0.011298
     -0.39889      5.11400      9.53753         0.030485     -0.150093     -0.137831
     -2.18527      8.21450      9.51739         0.042403     -0.228736      0.227552
      4.85002      1.99923      9.50890         0.275398      0.068816      0.271455
      3.05870      5.09598      9.53662         0.411611      0.211961     -0.224206
      1.30354      8.22540      9.52230         0.133754     -0.346112     -0.052162
      8.34007      2.04251      9.53259         0.339795     -0.432044     -0.071054
      6.57489      5.09077      9.53497         0.111112      0.054673     -0.144477
      4.78581      8.22277      9.51971         0.365758     -0.193582      0.167154
      5.52936      9.17706     18.63479         0.279618      0.092916      0.783141
      9.09149      2.97237     18.65422        -0.092149     -0.201060      0.492085
      7.32205      6.08850     18.67625         0.172042     -0.330013      0.193931
     -1.42533      9.16402     18.69343        -0.040860      0.024161     -0.174754
      2.12324      2.98991     18.67775        -0.122432     -0.168129      0.092228
      0.33138      6.08226     18.70772         0.250829     -0.029293     -0.593393
      7.38140     -0.10356     18.70300        -0.060206     -0.139150     -0.420583
      5.59888      2.98620     18.67892         0.019092     -0.138222      0.248615
      3.81657      6.07241     18.67226         0.346663      0.027880      0.109431
     -0.31847      0.96224     11.35417        -0.524378     -0.051444     -0.009834
      8.34326      4.03477     11.33199         0.155738      0.344485      0.201090
      6.56988      7.11707     11.35653         0.026759      0.510989     -0.466777
      3.15639      0.96125     11.34004        -0.392883      0.114362      0.102899
      1.37813      4.06614     11.32543        -0.245204     -0.275147      0.415918
     -0.41909      7.13659     11.33271         0.271745      0.267614      0.113040
      6.65686      0.93269     11.32565        -0.308780      0.412283      0.486653
      4.85328      4.07297     11.32999         0.156663     -0.429024      0.230291
      3.08704      7.17111     11.33139        -0.003859     -0.231330     -0.045624
 -----------------------------------------------------------------------------------
    total drift:                                0.000759     -0.000547      0.002277


--------------------------------------------------------------------------------------------------------



  FREE ENERGIE OF THE ION-ELECTRON SYSTEM (eV)
  ---------------------------------------------------
  free  energy   TOTEN  =      -342.77679228 eV

  energy  without entropy=     -342.77679228  energy(sigma->0) =     -342.77679228
 
 d Force =-0.2866045E-01[-0.308E-01,-0.265E-01]  d Energy =-0.2864506E-01-0.154E-04
 d Force =-0.6479774E+01[-0.649E+01,-0.647E+01]  d Ewald  =-0.6479772E+01-0.150E-05


--------------------------------------------------------------------------------------------------------


    POTLOK:  cpu time    0.2955: real time    0.2957


--------------------------------------------------------------------------------------------------------


           RANDOM_SEED =         194977012              324                0
   IONSTEP:  cpu time    0.0001: real time    0.0001

  ENERGY OF THE ELECTRON-ION-THERMOSTAT SYSTEM (eV)
  ---------------------------------------------------
% ion-electron   TOTEN  =      -342.776792  see above
  kinetic energy EKIN   =         0.555561
  kin. lattice  EKIN_LAT=         0.000000  (temperature   81.09 K)
  nose potential ES     =        -0.022673
  nose kinetic   EPS    =         0.003142
  ---------------------------------------------------
  total energy   ETOTAL =      -342.240763 eV

  maximum distance moved by ions :      0.47E-03


 mean value of Nose-termostat <S>:     0.975 mean value of <T> :    81.094
 mean temperature <T/S>/<1/S>  :    81.094

    WAVPRE:  cpu time    0.1036: real time    0.1068
    FEWALD:  cpu time    0.0042: real time    0.0042
    ORTHCH:  cpu time    7.9015: real time    7.9230
    POTLOK:  cpu time    0.2984: real time    0.2987
    EDDIAG:  cpu time    2.5192: real time    2.5257
     LOOP+:  cpu time  470.8354: real time  472.1895
    4ORBIT:  cpu time    0.0000: real time    0.0000

 total amount of memory used by VASP MPI-rank0   362523. kBytes
=======================================================================

   base      :      30000. kBytes
   nonl-proj :     197038. kBytes
   fftplans  :      17372. kBytes
   grid      :      82746. kBytes
   one-center:        839. kBytes
   wavefun   :      34528. kBytes
 
  
  
 General timing and accounting informations for this job:
 ========================================================
  
                  Total CPU time used (sec):     5697.612
                            User time (sec):     5684.648
                          System time (sec):       12.964
                         Elapsed time (sec):     5713.512
  
                   Maximum memory used (kb):      806852.
                   Average memory used (kb):           0.
  
                          Minor page faults:       371287
                          Major page faults:            0
                 Voluntary context switches:          729
