 vasp.6.1.1 19Jun20 (build Dec 21 2021 08:45:49) complex                        
  
 executed on             LinuxIFC date 2023.10.08  03:16:30
 running on   40 total cores
 distrk:  each k-point on   40 cores,    1 groups
 distr:  one band on NCORE=   1 cores,   40 groups


--------------------------------------------------------------------------------------------------------


 INCAR:
 POTCAR:   PAW_PBE Te 08Apr2002                   
 POTCAR:   PAW_PBE Mo 08Apr2002                   
 -----------------------------------------------------------------------------
|                                                                             |
|           W    W    AA    RRRRR   N    N  II  N    N   GGGG   !!!           |
|           W    W   A  A   R    R  NN   N  II  NN   N  G    G  !!!           |
|           W    W  A    A  R    R  N N  N  II  N N  N  G       !!!           |
|           W WW W  AAAAAA  RRRRR   N  N N  II  N  N N  G  GGG   !            |
|           WW  WW  A    A  R   R   N   NN  II  N   NN  G    G                |
|           W    W  A    A  R    R  N    N  II  N    N   GGGG   !!!           |
|                                                                             |
|     For optimal performance we recommend to set                             |
|       NCORE = 4 - approx SQRT(number of cores).                             |
|     NCORE specifies how many cores store one orbital (NPAR=cpu/NCORE).      |
|     This setting can greatly improve the performance of VASP for DFT.       |
|     The default, NCORE=1 might be grossly inefficient on modern             |
|     multi-core architectures or massively parallel machines. Do your        |
|     own testing!!!!                                                         |
|     Unfortunately you need to use the default for GW and RPA                |
|     calculations (for HF NCORE is supported but not extensively tested      |
|     yet).                                                                   |
|                                                                             |
 -----------------------------------------------------------------------------

 POTCAR:   PAW_PBE Te 08Apr2002                   
   VRHFIN =Te: s2p4                                                                                 
   LEXCH  = PE                                                                                      
   EATOM  =   223.2721 eV,   16.4100 Ry                                                             
                                                                                                    
   TITEL  = PAW_PBE Te 08Apr2002                                                                    
   LULTRA =        F    use ultrasoft PP ?                                                          
   IUNSCR =        1    unscreen: 0-lin 1-nonlin 2-no                                               
   RPACOR =    2.200    partial core radius                                                         
   POMASS =  127.600; ZVAL   =    6.000    mass and valenz                                          
   RCORE  =    2.300    outmost cutoff radius                                                       
   RWIGS  =    2.900; RWIGS  =    1.535    wigner-seitz radius (au A)                               
   ENMAX  =  174.982; ENMIN  =  131.236 eV                                                          
   ICORE  =        3    local potential                                                             
   LCOR   =        T    correct aug charges                                                         
   LPAW   =        T    paw PP                                                                      
   EAUG   =  368.792                                                                                
   DEXC   =    -.169                                                                                
   RMAX   =    3.486    core radius for proj-oper                                                   
   RAUG   =    1.300    factor for augmentation sphere                                              
   RDEP   =    2.397    radius for radial grids                                                     
   QCUT   =   -3.586; QGAM   =    7.172    optimization parameters                                  
                                                                                                    
   Description                                                                                      
     l     E      TYP  RCUT    TYP  RCUT                                                            
     0   .000     23  2.300                                                                         
     0   .000     23  2.300                                                                         
     1   .000     23  2.300                                                                         
     1   .000     23  2.300                                                                         
     2   .000     23  2.300                                                                         
     3  -.100     23  2.300                                                                         
  local pseudopotential read in
  partial core-charges read in
  atomic valenz-charges read in
  non local Contribution for L=           0  read in
    real space projection operators read in
  non local Contribution for L=           0  read in
    real space projection operators read in
  non local Contribution for L=           1  read in
    real space projection operators read in
  non local Contribution for L=           1  read in
    real space projection operators read in
  non local Contribution for L=           2  read in
    real space projection operators read in
    PAW grid and wavefunctions read in
 
   number of l-projection  operators is LMAX  =           5
   number of lm-projection operators is LMMAX =          13
 
 POTCAR:   PAW_PBE Mo 08Apr2002                   
   VRHFIN =Mo: 4p5s4d                                                                               
   LEXCH  = PE                                                                                      
   EATOM  =   217.5180 eV,   15.9871 Ry                                                             
                                                                                                    
   TITEL  = PAW_PBE Mo 08Apr2002                                                                    
   LULTRA =        F    use ultrasoft PP ?                                                          
   IUNSCR =        1    unscreen: 0-lin 1-nonlin 2-no                                               
   RPACOR =    2.200    partial core radius                                                         
   POMASS =   95.940; ZVAL   =    6.000    mass and valenz                                          
   RCORE  =    2.750    outmost cutoff radius                                                       
   RWIGS  =    2.750; RWIGS  =    1.455    wigner-seitz radius (au A)                               
   ENMAX  =  224.584; ENMIN  =  168.438 eV                                                          
   RCLOC  =    2.111    cutoff for local pot                                                        
   LCOR   =        T    correct aug charges                                                         
   LPAW   =        T    paw PP                                                                      
   EAUG   =  345.278                                                                                
   DEXC   =    -.088                                                                                
   RMAX   =    3.077    core radius for proj-oper                                                   
   RAUG   =    1.300    factor for augmentation sphere                                              
   RDEP   =    2.815    radius for radial grids                                                     
   QCUT   =   -4.063; QGAM   =    8.126    optimization parameters                                  
                                                                                                    
   Description                                                                                      
     l     E      TYP  RCUT    TYP  RCUT                                                            
     2   .000     23  2.500                                                                         
     2   .000     23  2.500                                                                         
     0   .000     23  2.600                                                                         
     0  1.000     23  2.600                                                                         
     1   .400     23  2.750                                                                         
     1  2.000     23  2.750                                                                         
     3   .000      7   .000                                                                         
  local pseudopotential read in
  partial core-charges read in
  atomic valenz-charges read in
  non local Contribution for L=           2  read in
    real space projection operators read in
  non local Contribution for L=           2  read in
    real space projection operators read in
  non local Contribution for L=           0  read in
    real space projection operators read in
  non local Contribution for L=           0  read in
    real space projection operators read in
  non local Contribution for L=           1  read in
    real space projection operators read in
  non local Contribution for L=           1  read in
    real space projection operators read in
    PAW grid and wavefunctions read in
 
   number of l-projection  operators is LMAX  =           6
   number of lm-projection operators is LMMAX =          18
 
 -----------------------------------------------------------------------------
|                                                                             |
|               ----> ADVICE to this user running VASP <----                  |
|                                                                             |
|     You have a (more or less) 'large supercell' and for larger cells it     |
|     might be more efficient to use real-space projection operators.         |
|     Therefore, try LREAL= Auto in the INCAR file.                           |
|     Mind: If you want to do very accurate calculations, keep the            |
|     reciprocal projection scheme (i.e. LREAL=.FALSE.).                      |
|                                                                             |
 -----------------------------------------------------------------------------

 PAW_PBE Te 08Apr2002                   :
 energy of atom  1       EATOM= -223.2721
 kinetic energy error for atom=    0.0006 (will be added to EATOM!!)
 PAW_PBE Mo 08Apr2002                   :
 energy of atom  2       EATOM= -217.5180
 kinetic energy error for atom=    0.0009 (will be added to EATOM!!)
 
 
 POSCAR: Te Mo
  positions in cartesian coordinates
  No initial velocities read in
 exchange correlation table for  LEXCH =        8
   RHO(1)=    0.500       N(1)  =     2000
   RHO(2)=  100.500       N(2)  =     4000
 


--------------------------------------------------------------------------------------------------------


 ion  position               nearest neighbor table
   1  0.111  0.222  0.313-  41 2.67  38 2.69  37 2.70   7 3.42   4 3.43   2 3.44   3 3.44   9 3.52
                             5 3.52  19 3.59
   2  0.111  0.555  0.313-  42 2.67  39 2.69  38 2.71   5 3.41   8 3.42   1 3.44   3 3.45   6 3.51
                             7 3.52  20 3.59
   3  0.112  0.890  0.313-  40 2.67  37 2.68  39 2.72   6 3.42   9 3.42   1 3.44   2 3.45   4 3.51
                             8 3.52  21 3.61
   4  0.445  0.222  0.313-  44 2.67  41 2.68  40 2.70   7 3.42   1 3.43   6 3.44   5 3.45   3 3.51
                             8 3.52  22 3.59
   5  0.444  0.556  0.313-  45 2.67  42 2.68  41 2.71   2 3.41   6 3.43   8 3.43   4 3.45   9 3.51
                             1 3.52  23 3.60
   6  0.444  0.889  0.313-  43 2.67  40 2.69  42 2.70   3 3.42   9 3.42   5 3.43   4 3.44   2 3.51
                             7 3.51  24 3.60
   7  0.778  0.222  0.313-  38 2.67  44 2.69  43 2.71   1 3.42   4 3.42   9 3.44   8 3.45   6 3.51
                             2 3.52  25 3.61
   8  0.778  0.556  0.313-  39 2.67  45 2.69  44 2.71   2 3.42   5 3.43   9 3.44   7 3.45   4 3.52
                             3 3.52  26 3.61
   9  0.778  0.888  0.313-  37 2.67  43 2.70  45 2.70   3 3.42   6 3.42   8 3.44   7 3.44   5 3.51
                             1 3.52  27 3.59
  10  0.111  0.167  0.566-  46 2.66  52 2.69  54 2.71  13 3.42  16 3.42  12 3.44  11 3.44  14 3.51
                            18 3.52  28 3.60
  11  0.111  0.500  0.566-  47 2.67  53 2.69  52 2.72  14 3.42  17 3.42  12 3.44  10 3.44  15 3.52
                            16 3.52  29 3.61
  12  0.111  0.833  0.567-  48 2.67  54 2.68  53 2.70  18 3.42  15 3.42  10 3.44  11 3.44  13 3.51
                            17 3.52  30 3.59
  13  0.444  0.166  0.566-  49 2.67  46 2.69  48 2.71  10 3.42  16 3.42  15 3.43  14 3.44  12 3.51
                            17 3.51  31 3.59
  14  0.444  0.500  0.566-  50 2.66  47 2.68  46 2.71  17 3.42  11 3.42  13 3.44  15 3.45  18 3.51
                            10 3.51  32 3.60
  15  0.445  0.834  0.566-  51 2.67  48 2.68  47 2.71  18 3.42  12 3.42  13 3.43  14 3.45  16 3.51
                            11 3.52  33 3.60
  16  0.778  0.166  0.567-  52 2.68  49 2.68  51 2.70  10 3.42  13 3.42  18 3.43  17 3.45  15 3.51
                            11 3.52  34 3.59
  17  0.778  0.500  0.567-  53 2.67  50 2.68  49 2.70  14 3.42  11 3.42  18 3.44  16 3.45  13 3.51
                            12 3.52  35 3.59
  18  0.777  0.833  0.566-  54 2.68  51 2.68  50 2.71  15 3.42  12 3.42  16 3.43  17 3.44  14 3.51
                            10 3.52  36 3.60
  19  0.111  0.222  0.434-  38 2.65  37 2.70  41 2.72  22 3.42  25 3.42  20 3.44  21 3.44  23 3.51
                            27 3.51   1 3.59
  20  0.111  0.555  0.433-  39 2.64  38 2.70  42 2.72  23 3.42  26 3.43  21 3.44  19 3.44  24 3.51
                            25 3.52   2 3.59
  21  0.111  0.888  0.434-  37 2.65  39 2.70  40 2.73  24 3.42  27 3.43  20 3.44  19 3.44  26 3.51
                            22 3.52   3 3.61
  22  0.444  0.222  0.434-  41 2.64  40 2.70  44 2.72  19 3.42  25 3.42  23 3.43  24 3.44  26 3.52
                            21 3.52   4 3.59
  23  0.444  0.555  0.434-  42 2.65  41 2.70  45 2.73  26 3.41  20 3.42  22 3.43  24 3.45  19 3.51
                            27 3.52   5 3.60
  24  0.444  0.889  0.434-  40 2.65  42 2.70  43 2.72  21 3.42  27 3.42  22 3.44  23 3.45  20 3.51
                            25 3.52   6 3.60
  25  0.778  0.222  0.434-  44 2.64  43 2.70  38 2.72  22 3.42  19 3.42  27 3.43  26 3.45  20 3.52
                            24 3.52   7 3.61
  26  0.778  0.556  0.434-  45 2.64  44 2.71  39 2.72  23 3.41  20 3.43  27 3.44  25 3.45  21 3.51
                            22 3.52   8 3.61
  27  0.778  0.889  0.433-  43 2.63  45 2.70  37 2.72  24 3.42  21 3.43  25 3.43  26 3.44  19 3.51
                            23 3.52   9 3.59
  28  0.111  0.167  0.687-  52 2.64  54 2.70  46 2.72  31 3.42  34 3.43  30 3.44  29 3.44  32 3.51
                            36 3.52  10 3.60
  29  0.111  0.500  0.688-  53 2.65  52 2.70  47 2.73  35 3.41  32 3.42  28 3.44  30 3.44  34 3.52
                            33 3.52  11 3.61
  30  0.111  0.833  0.687-  54 2.63  53 2.69  48 2.72  36 3.42  33 3.42  28 3.44  29 3.44  35 3.51
                            31 3.52  12 3.59
  31  0.444  0.167  0.687-  46 2.64  48 2.70  49 2.72  34 3.42  28 3.42  33 3.44  32 3.44  30 3.52
                            35 3.52  13 3.59
  32  0.444  0.500  0.687-  47 2.64  46 2.70  50 2.72  29 3.42  35 3.43  33 3.44  31 3.44  28 3.51
                            36 3.52  14 3.60
  33  0.444  0.833  0.687-  48 2.64  47 2.70  51 2.72  36 3.42  30 3.42  32 3.44  31 3.44  34 3.51
                            29 3.52  15 3.60
  34  0.777  0.167  0.687-  49 2.63  51 2.70  52 2.72  31 3.42  28 3.43  35 3.44  36 3.44  33 3.51
                            29 3.52  16 3.59
  35  0.778  0.500  0.687-  50 2.64  49 2.70  53 2.72  29 3.41  32 3.43  34 3.44  36 3.44  30 3.51
                            31 3.52  17 3.59
  36  0.778  0.833  0.687-  51 2.64  50 2.71  54 2.72  30 3.42  33 3.42  34 3.44  35 3.44  28 3.52
                            32 3.52  18 3.60
  37  1.000  1.000  0.373-  21 2.65   9 2.67   3 2.68   1 2.70  19 2.70  27 2.72  40 3.42  43 3.42
                            39 3.44  38 3.44
  38  0.999  0.333  0.373-  19 2.65   7 2.67   1 2.69  20 2.70   2 2.71  25 2.72  44 3.41  41 3.43
                            39 3.44  37 3.44
  39  0.999  0.666  0.373-  20 2.64   8 2.67   2 2.69  21 2.70  26 2.72   3 2.72  45 3.41  42 3.43
                            37 3.44  38 3.44
  40  0.333  0.000  0.373-  24 2.65   3 2.67   6 2.69   4 2.70  22 2.70  21 2.73  37 3.42  43 3.42
                            41 3.43  42 3.44
  41  0.333  0.333  0.373-  22 2.64   1 2.67   4 2.68  23 2.70   5 2.71  19 2.72  44 3.42  40 3.43
                            38 3.43  42 3.44
  42  0.333  0.667  0.373-  23 2.65   2 2.67   5 2.68  24 2.70   6 2.70  20 2.72  45 3.42  39 3.43
                            41 3.44  40 3.44
  43  0.666  0.000  0.373-  27 2.63   6 2.67   9 2.70  25 2.70   7 2.71  24 2.72  40 3.42  37 3.42
                            44 3.43  45 3.44
  44  0.667  0.333  0.373-  25 2.64   4 2.67   7 2.69  26 2.71   8 2.71  22 2.72  38 3.41  41 3.42
                            43 3.43  45 3.45
  45  0.667  0.667  0.373-  26 2.64   5 2.67   8 2.69  27 2.70   9 2.70  23 2.73  39 3.41  42 3.42
                            43 3.44  44 3.45
  46  0.333  0.278  0.627-  31 2.64  10 2.66  13 2.69  32 2.70  14 2.71  28 2.72  52 3.41  49 3.43
                            47 3.44  48 3.44
  47  0.334  0.611  0.627-  32 2.64  11 2.67  14 2.68  33 2.70  15 2.71  29 2.73  50 3.41  53 3.42
                            46 3.44  48 3.44
  48  0.333  0.944  0.627-  33 2.64  12 2.67  15 2.68  31 2.70  13 2.71  30 2.72  54 3.42  51 3.42
                            47 3.44  46 3.44
  49  0.667  0.277  0.627-  34 2.63  13 2.67  16 2.68  35 2.70  17 2.70  31 2.72  52 3.42  46 3.43
                            51 3.44  50 3.44
  50  0.666  0.610  0.627-  35 2.64  14 2.66  17 2.68  36 2.71  18 2.71  32 2.72  47 3.41  53 3.43
                            51 3.44  49 3.44
  51  0.667  0.944  0.627-  36 2.64  15 2.67  18 2.68  16 2.70  34 2.70  33 2.72  54 3.42  48 3.42
                            49 3.44  50 3.44
  52  0.000  0.278  0.627-  28 2.64  16 2.68  10 2.69  29 2.70  11 2.72  34 2.72  46 3.41  49 3.42
                            54 3.44  53 3.44
  53  0.000  0.611  0.627-  29 2.65  17 2.67  11 2.69  30 2.69  12 2.70  35 2.72  47 3.42  50 3.43
                            54 3.44  52 3.44
  54  1.000  0.944  0.627-  30 2.63  18 2.68  12 2.68  28 2.70  10 2.71  36 2.72  51 3.42  48 3.42
                            53 3.44  52 3.44
 

IMPORTANT INFORMATION: All symmetrisations will be switched off!
NOSYMM: (Re-)initialisation of all symmetry stuff for point group C_1.


----------------------------------------------------------------------------------------

                                     Primitive cell                                     

  volume of cell :    2773.1268

  direct lattice vectors                    reciprocal lattice vectors
    10.262648379  0.000000000  0.000000000     0.097440735  0.052594663  0.002079385
    -4.901765650  9.081370981  0.000000000     0.000000000  0.110115532  0.000176178
    -0.609273937 -0.047606157 29.754924633     0.000000000  0.000000000  0.033607882

  length of vectors
    10.262648379 10.319816151 29.761199925     0.110748450  0.110115673  0.033607882

  position of ions in fractional coordinates (direct lattice)
     0.111030779  0.222348998  0.312789801
     0.111011778  0.555379910  0.312740345
     0.111789998  0.889662438  0.312613444
     0.444636508  0.222046110  0.312863072
     0.444186629  0.556298232  0.312730575
     0.444316310  0.888503626  0.312798648
     0.777749833  0.221617243  0.312560973
     0.778294309  0.555732022  0.312508395
     0.777910106  0.888403442  0.312671004
     0.111371372  0.166602012  0.566426239
     0.111453036  0.500265010  0.566336519
     0.110825707  0.833439704  0.566508883
     0.444474409  0.166369196  0.566339999
     0.444472774  0.500009866  0.566358928
     0.444739473  0.833989167  0.566362924
     0.777977473  0.166243303  0.566514839
     0.777562949  0.499903651  0.566524962
     0.777187139  0.833103500  0.566233085
     0.111458130  0.222227642  0.433524903
     0.111070217  0.555296365  0.433438390
     0.111024905  0.888313334  0.433817262
     0.444462218  0.222204462  0.433635155
     0.444415566  0.554701305  0.433794476
     0.444201535  0.888771194  0.433757151
     0.777673681  0.222063507  0.433695117
     0.777726260  0.556236111  0.433874103
     0.777594858  0.889462820  0.433407325
     0.111281682  0.166680786  0.687354150
     0.110852502  0.499866832  0.687558368
     0.110735885  0.833314472  0.687034560
     0.444369049  0.166546999  0.687133504
     0.443872467  0.499847859  0.687447495
     0.444449010  0.833318248  0.687252037
     0.777401519  0.166608311  0.687198767
     0.778060778  0.499811663  0.687123367
     0.777767298  0.833345501  0.687267129
     0.999637067  0.999746468  0.372991963
     0.998940563  0.332901863  0.373138854
     0.999086372  0.666302603  0.373327917
     0.333109287  0.000394557  0.373113401
     0.333404230  0.333050775  0.373166937
     0.333474725  0.666806403  0.373228967
     0.666328091  0.000301174  0.373234526
     0.667040118  0.333028255  0.373155190
     0.667094766  0.667012044  0.373145604
     0.332783910  0.277818026  0.626808673
     0.333545050  0.611227961  0.626790588
     0.333275402  0.944388860  0.626841745
     0.666994351  0.277450825  0.626796274
     0.665761636  0.610472379  0.626797059
     0.666811081  0.944374522  0.626757368
     0.000383311  0.277792050  0.627134649
     0.000452024  0.611410442  0.626809291
     0.999944727  0.944346463  0.626784510

  ion indices of the primitive-cell ions
   primitive index   ion index
                 1           1
                 2           2
                 3           3
                 4           4
                 5           5
                 6           6
                 7           7
                 8           8
                 9           9
                10          10
                11          11
                12          12
                13          13
                14          14
                15          15
                16          16
                17          17
                18          18
                19          19
                20          20
                21          21
                22          22
                23          23
                24          24
                25          25
                26          26
                27          27
                28          28
                29          29
                30          30
                31          31
                32          32
                33          33
                34          34
                35          35
                36          36
                37          37
                38          38
                39          39
                40          40
                41          41
                42          42
                43          43
                44          44
                45          45
                46          46
                47          47
                48          48
                49          49
                50          50
                51          51
                52          52
                53          53
                54          54

----------------------------------------------------------------------------------------

 
 

Automatic generation of k-mesh.
 generate k-points for:    3    3    1
Space group operators:
 irot       det(A)        alpha          n_x          n_y          n_z        tau_x        tau_y        tau_z
    1     1.000000     0.000000     1.000000     0.000000     0.000000     0.000000     0.000000     0.000000
 
 Subroutine IBZKPT returns following result:
 ===========================================
 
 Found      5 irreducible k-points:
 
 Following reciprocal coordinates:
            Coordinates               Weight
  0.000000  0.000000  0.000000      1.000000
  0.333333  0.000000 -0.000000      2.000000
  0.000000  0.333333 -0.000000      2.000000
  0.333333  0.333333  0.000000      2.000000
 -0.333333  0.333333  0.000000      2.000000
 
 Following cartesian coordinates:
            Coordinates               Weight
  0.000000  0.000000  0.000000      1.000000
  0.032480  0.017532  0.000693      2.000000
  0.000000  0.036705  0.000059      2.000000
  0.032480  0.054237  0.000752      2.000000
 -0.032480  0.019174 -0.000634      2.000000
 


--------------------------------------------------------------------------------------------------------




 Dimension of arrays:
   k-points           NKPTS =      5   k-points in BZ     NKDIM =      5   number of bands    NBANDS=    200
   number of dos      NEDOS =    301   number of ions     NIONS =     54
   non local maximal  LDIM  =      6   non local SUM 2l+1 LMDIM =     18
   total plane-waves  NPLWV = ******
   max r-space proj   IRMAX =      1   max aug-charges    IRDMAX=  35757
   dimension x,y,z NGX =    80 NGY =   80 NGZ =  240
   dimension x,y,z NGXF=   160 NGYF=  160 NGZF=  480
   support grid    NGXF=   160 NGYF=  160 NGZF=  480
   ions per type =              36  18
   NGX,Y,Z   is equivalent  to a cutoff of  12.96, 12.89, 13.41 a.u.
   NGXF,Y,Z  is equivalent  to a cutoff of  25.92, 25.78, 26.81 a.u.

 SYSTEM =  dpgen_md                                
 POSCAR =  Te Mo                                   

 Startparameter for this run:
   NWRITE =      2    write-flag & timer
   PREC   = a         normal or accurate (medium, high low for compatibility)
   ISTART =      0    job   : 0-new  1-cont  2-samecut
   ICHARG =      2    charge: 1-file 2-atom 10-const
   ISPIN  =      1    spin polarized calculation?
   LNONCOLLINEAR =      F non collinear calculations
   LSORBIT =      F    spin-orbit coupling
   INIWAV =      1    electr: 0-lowe 1-rand  2-diag
   LASPH  =      F    aspherical Exc in radial PAW
   METAGGA=      F    non-selfconsistent MetaGGA calc.

 Electronic Relaxation 1
   ENCUT  =  550.0 eV  40.42 Ry    6.36 a.u.  19.62 19.73 56.91*2*pi/ulx,y,z
   ENINI  =  550.0     initial cutoff
   ENAUG  =  368.8 eV  augmentation charge cutoff
   NELM   =    100;   NELMIN=  6; NELMDL= -5     # of ELM steps 
   EDIFF  = 0.1E-05   stopping-criterion for ELM
   LREAL  =      F    real-space projection
   NLSPLINE    = F    spline interpolate recip. space projectors
   LCOMPAT=      F    compatible to vasp.4.4
   GGA_COMPAT  = T    GGA compatible to vasp.4.4-vasp.4.6
   LMAXPAW     = -100 max onsite density
   LMAXMIX     =    2 max onsite mixed and CHGCAR
   VOSKOWN=      0    Vosko Wilk Nusair interpolation
   ROPT   =    0.00000   0.00000
 Ionic relaxation
   EDIFFG = 0.1E-04   stopping-criterion for IOM
   NSW    =     10    number of steps for IOM
   NBLOCK =      1;   KBLOCK =      1    inner block; outer block 
   IBRION =      0    ionic relax: 0-MD 1-quasi-New 2-CG
   NFREE  =      0    steps in history (QN), initial steepest desc. (CG)
   ISIF   =      2    stress and relaxation
   IWAVPR =     11    prediction:  0-non 1-charg 2-wave 3-comb
   ISYM   =      0    0-nonsym 1-usesym 2-fastsym
   LCORR  =      T    Harris-Foulkes like correction to forces

   POTIM  = 2.0000    time-step for ionic-motion
   TEIN   =  100.0    initial temperature
   TEBEG  =  100.0;   TEEND  = 100.0 temperature during run
   SMASS  =   0.04    Nose mass-parameter (am)
   estimated Nose-frequenzy (Omega)   =  0.79E+14 period in steps = 0.40E+02 mass=   0.327E-28a.u.
   SCALEE = 1.0000    scale energy and forces
   NPACO  =    256;   APACO  = 16.0  distance and # of slots for P.C.
   PSTRESS=    0.0 pullay stress

  Mass of Ions in am
   POMASS = 127.60 95.94
  Ionic Valenz
   ZVAL   =   6.00  6.00
  Atomic Wigner-Seitz radii
   RWIGS  =  -1.00 -1.00
  virtual crystal weights 
   VCA    =   1.00  1.00
   NELECT =     324.0000    total number of electrons
   NUPDOWN=      -1.0000    fix difference up-down

 DOS related values:
   EMIN   =  10.00;   EMAX   =-10.00  energy-range for DOS
   EFERMI =   0.00
   ISMEAR =     0;   SIGMA  =   0.10  broadening in eV -4-tet -1-fermi 0-gaus

 Electronic relaxation 2 (details)
   IALGO  =     68    algorithm
   LDIAG  =      T    sub-space diagonalisation (order eigenvalues)
   LSUBROT=      F    optimize rotation matrix (better conditioning)
   TURBO    =      0    0=normal 1=particle mesh
   IRESTART =      0    0=no restart 2=restart with 2 vectors
   NREBOOT  =      0    no. of reboots
   NMIN     =      0    reboot dimension
   EREF     =   0.00    reference energy to select bands
   IMIX   =      4    mixing-type and parameters
     AMIX     =   0.40;   BMIX     =  1.00
     AMIX_MAG =   1.60;   BMIX_MAG =  1.00
     AMIN     =   0.10
     WC   =   100.;   INIMIX=   1;  MIXPRE=   1;  MAXMIX= -45

 Intra band minimization:
   WEIMIN = 0.0010     energy-eigenvalue tresh-hold
   EBREAK =  0.13E-08  absolut break condition
   DEPER  =   0.30     relativ break condition  

   TIME   =   0.40     timestep for ELM

  volume/ion in A,a.u.               =      51.35       346.56
  Fermi-wavevector in a.u.,A,eV,Ry     =   0.800325  1.512396  8.714814  0.640521
  Thomas-Fermi vector in A             =   1.907599
 
 Write flags
   LWAVE        =      F    write WAVECAR
   LDOWNSAMPLE  =      F    k-point downsampling of WAVECAR
   LCHARG       =      F    write CHGCAR
   LVTOT        =      F    write LOCPOT, total local potential
   LVHAR        =      F    write LOCPOT, Hartree potential only
   LELF         =      F    write electronic localiz. function (ELF)
   LORBIT       =      0    0 simple, 1 ext, 2 COOP (PROOUT), +10 PAW based schemes


 Dipole corrections
   LMONO  =      F    monopole corrections only (constant potential shift)
   LDIPOL =      F    correct potential (dipole corrections)
   IDIPOL =      0    1-x, 2-y, 3-z, 4-all directions 
   EPSILON=  1.0000000 bulk dielectric constant

 Exchange correlation treatment:
   GGA     =    --    GGA type
   LEXCH   =     8    internal setting for exchange type
   VOSKOWN=      0    Vosko Wilk Nusair interpolation
   LHFCALC =     F    Hartree Fock is set to
   LHFONE  =     F    Hartree Fock one center treatment
   AEXX    =    0.0000 exact exchange contribution

 Linear response parameters
   LEPSILON=     F    determine dielectric tensor
   LRPA    =     F    only Hartree local field effects (RPA)
   LNABLA  =     F    use nabla operator in PAW spheres
   LVEL    =     F    velocity operator in full k-point grid
   LINTERFAST=   F  fast interpolation
   KINTER  =     0    interpolate to denser k-point grid
   CSHIFT  =0.1000    complex shift for real part using Kramers Kronig
   OMEGAMAX=  -1.0    maximum frequency
   DEG_THRESHOLD= 0.2000000E-02 threshold for treating states as degnerate
   RTIME   =   -0.100 relaxation time in fs
  (WPLASMAI=    0.000 imaginary part of plasma frequency in eV, 0.658/RTIME)
   DFIELD  = 0.0000000 0.0000000 0.0000000 field for delta impulse in time
 
 Orbital magnetization related:
   ORBITALMAG=     F  switch on orbital magnetization
   LCHIMAG   =     F  perturbation theory with respect to B field
   DQ        =  0.001000  dq finite difference perturbation B field
   LLRAUG    =     F  two centre corrections for induced B field



--------------------------------------------------------------------------------------------------------


 molecular dynamics for ions
   using nose mass (canonical ensemble)
 charge density and potential will be updated during run
 non-spin polarized calculation
 RMM-DIIS sequential band-by-band and
  variant of blocked Davidson during initial phase
 perform sub-space diagonalisation
    before iterative eigenvector-optimisation
 modified Broyden-mixing scheme, WC =      100.0
 initial mixing is a Kerker type mixing with AMIX =  0.4000 and BMIX =      1.0000
 Hartree-type preconditioning will be used
 using additional bands           38
 reciprocal scheme for non local part
 use partial core corrections
 calculate Harris-corrections to forces 
   (improved forces if not selfconsistent)
 use gradient corrections 
 use of overlap-Matrix (Vanderbilt PP)
 Gauss-broadening in eV      SIGMA  =   0.10


--------------------------------------------------------------------------------------------------------


  energy-cutoff  :      550.00
  volume of cell :     2773.13
      direct lattice vectors                 reciprocal lattice vectors
    10.262648379  0.000000000  0.000000000     0.097440735  0.052594663  0.002079385
    -4.901765650  9.081370981  0.000000000     0.000000000  0.110115532  0.000176178
    -0.609273937 -0.047606157 29.754924633     0.000000000  0.000000000  0.033607882

  length of vectors
    10.262648379 10.319816151 29.761199925     0.110748450  0.110115673  0.033607882


 
 k-points in units of 2pi/SCALE and weight: read from INCAR                         
   0.00000000  0.00000000  0.00000000       0.111
   0.03248024  0.01753155  0.00069313       0.222
   0.00000000  0.03670518  0.00005873       0.222
   0.03248024  0.05423673  0.00075185       0.222
  -0.03248024  0.01917362 -0.00063440       0.222
 
 k-points in reciprocal lattice and weights: read from INCAR                         
   0.00000000  0.00000000  0.00000000       0.111
   0.33333333  0.00000000 -0.00000000       0.222
   0.00000000  0.33333333 -0.00000000       0.222
   0.33333333  0.33333333  0.00000000       0.222
  -0.33333333  0.33333333  0.00000000       0.222
 
 position of ions in fractional coordinates (direct lattice) 
   0.11103078  0.22234900  0.31278980
   0.11101178  0.55537991  0.31274034
   0.11179000  0.88966244  0.31261344
   0.44463651  0.22204611  0.31286307
   0.44418663  0.55629823  0.31273058
   0.44431631  0.88850363  0.31279865
   0.77774983  0.22161724  0.31256097
   0.77829431  0.55573202  0.31250839
   0.77791011  0.88840344  0.31267100
   0.11137137  0.16660201  0.56642624
   0.11145304  0.50026501  0.56633652
   0.11082571  0.83343970  0.56650888
   0.44447441  0.16636920  0.56634000
   0.44447277  0.50000987  0.56635893
   0.44473947  0.83398917  0.56636292
   0.77797747  0.16624330  0.56651484
   0.77756295  0.49990365  0.56652496
   0.77718714  0.83310350  0.56623309
   0.11145813  0.22222764  0.43352490
   0.11107022  0.55529636  0.43343839
   0.11102490  0.88831333  0.43381726
   0.44446222  0.22220446  0.43363516
   0.44441557  0.55470130  0.43379448
   0.44420153  0.88877119  0.43375715
   0.77767368  0.22206351  0.43369512
   0.77772626  0.55623611  0.43387410
   0.77759486  0.88946282  0.43340733
   0.11128168  0.16668079  0.68735415
   0.11085250  0.49986683  0.68755837
   0.11073589  0.83331447  0.68703456
   0.44436905  0.16654700  0.68713350
   0.44387247  0.49984786  0.68744749
   0.44444901  0.83331825  0.68725204
   0.77740152  0.16660831  0.68719877
   0.77806078  0.49981166  0.68712337
   0.77776730  0.83334550  0.68726713
   0.99963707  0.99974647  0.37299196
   0.99894056  0.33290186  0.37313885
   0.99908637  0.66630260  0.37332792
   0.33310929  0.00039456  0.37311340
   0.33340423  0.33305078  0.37316694
   0.33347472  0.66680640  0.37322897
   0.66632809  0.00030117  0.37323453
   0.66704012  0.33302826  0.37315519
   0.66709477  0.66701204  0.37314560
   0.33278391  0.27781803  0.62680867
   0.33354505  0.61122796  0.62679059
   0.33327540  0.94438886  0.62684175
   0.66699435  0.27745082  0.62679627
   0.66576164  0.61047238  0.62679706
   0.66681108  0.94437452  0.62675737
   0.00038331  0.27779205  0.62713465
   0.00045202  0.61141044  0.62680929
   0.99994473  0.94434646  0.62678451
 
 position of ions in cartesian coordinates  (Angst):
  -0.14100751  2.00434302  9.30703696
  -1.77361186  5.02872263  9.30556539
  -3.40412256  8.06447233  9.30178947
   3.28411082  2.00158889  9.30921714
   1.64114904  5.03706272  9.30527470
   0.01404545  8.05393990  9.30730019
   6.70502202  1.99770858  9.30022819
   5.07288947  5.03193134  9.29866373
   3.43817012  8.05303617  9.30350215
  -0.01878754  1.48600930 16.85397006
  -1.65343261  4.51613104 16.85130044
  -3.29311995  7.54180583 16.85642911
   3.40092556  1.48389912 16.85140399
   1.76546887  4.51381292 16.85196721
   0.13111522  7.54680265 16.85208611
   6.82406081  1.48274752 16.85660634
   5.18427570  4.51284043 16.85690755
   3.54732915  7.53876577 16.84822278
  -0.20958764  1.99749320 12.89950080
  -1.84614078  5.02221796 12.89692662
  -3.47920778  8.04645056 12.90819994
   3.20796266  1.99727745 12.90278136
   1.57756522  5.01679705 12.90752194
  -0.06214088  8.05061142 12.90641133
   6.62824914  1.99599453 12.90456553
   4.99064390  5.03073140 12.90989122
   3.35618052  8.05690899 12.89600229
  -0.09377235  1.48096776 20.45217093
  -1.73150121  4.50674413 20.45824741
  -3.36686105  7.53493079 20.44266156
   3.32537640  1.47976330 20.44560564
   1.68632614  4.50657711 20.45494840
   0.05776839  7.53495473 20.44913256
   6.74283125  1.48031699 20.44754752
   5.11635818  4.50626383 20.44530400
   3.47835400  7.53520150 20.44958164
   5.13114654  9.06131185 11.09834775
   8.39262505  3.00544161 11.10271848
   6.75975395  6.03316842 11.10834402
   3.18932119 -0.01417937 11.10196112
   1.56171264  3.00679260 11.10355410
  -0.07359356  6.03774832 11.10539977
   6.60941255 -0.01503319 11.10556520
   4.98581799  3.00658865 11.10320456
   3.34927440  6.03961979 11.10291933
   1.67154721  2.49312861 18.65064481
   0.04507217  5.52094878 18.65010671
  -1.59080295  8.54650406 18.65162889
   5.10323893  2.48979451 18.65027589
   3.45819393  5.51408675 18.65029926
   1.83227813  8.54637787 18.64911826
  -1.73983454  2.49287719 18.66034423
  -3.37425031  5.52260506 18.65066320
   5.25123262  8.54612176 18.64992586
 


--------------------------------------------------------------------------------------------------------


 k-point   1 :   0.0000 0.0000 0.0000  plane waves:   81287
 k-point   2 :   0.3333 0.0000-0.0000  plane waves:   81218
 k-point   3 :   0.0000 0.3333-0.0000  plane waves:   81237
 k-point   4 :   0.3333 0.3333 0.0000  plane waves:   81202
 k-point   5 :  -0.3333 0.3333 0.0000  plane waves:   81175

 maximum and minimum number of plane-waves per node :     81287    81175

 maximum number of plane-waves:     81287
 maximum index in each direction: 
   IXMAX=   19   IYMAX=   19   IZMAX=   56
   IXMIN=  -19   IYMIN=  -20   IZMIN=  -56


 serial   3D FFT for wavefunctions
 parallel 3D FFT for charge:
    minimum data exchange during FFTs selected (reduces bandwidth)


 total amount of memory used by VASP MPI-rank0   346377. kBytes
=======================================================================

   base      :      30000. kBytes
   nonl-proj :     187361. kBytes
   fftplans  :      16533. kBytes
   grid      :      78796. kBytes
   one-center:        839. kBytes
   wavefun   :      32848. kBytes
 
     INWAV:  cpu time    0.0000: real time    0.0000
 Broyden mixing: mesh for mixing (old mesh)
   NGX = 39   NGY = 39   NGZ =113
  (NGX  =160   NGY  =160   NGZ  =480)
  gives a total of 171873 points

 initial charge density was supplied:
 charge density of overlapping atoms calculated
 number of electron     324.0000000 magnetization 
 keeping initial charge density in first step


--------------------------------------------------------------------------------------------------------


 Maximum index for augmentation-charges         1188 (set IRDMAX)


--------------------------------------------------------------------------------------------------------


 First call to EWALD:  gamma=   0.126
 Maximum number of real-space cells 4x 4x 2
 Maximum number of reciprocal cells 2x 2x 5

    FEWALD:  cpu time    0.0069: real time    0.0101


--------------------------------------- Iteration      1(   1)  ---------------------------------------


    POTLOK:  cpu time    0.2743: real time    0.2997
    SETDIJ:  cpu time    0.0205: real time    0.0511
     EDDAV:  cpu time   45.8107: real time   46.0039
       DOS:  cpu time    0.0110: real time    0.0230
    --------------------------------------------
      LOOP:  cpu time   46.1164: real time   46.3777

 eigenvalue-minimisations  :  2000
 total energy-change (2. order) : 0.2138497E+04  (-0.1167806E+05)
 number of electron     324.0000000 magnetization 
 augmentation part      324.0000000 magnetization 

 Free energy of the ion-electron system (eV)
  ---------------------------------------------------
  alpha Z        PSCENC =       258.79313919
  Ewald energy   TEWEN  =     58434.52930425
  -Hartree energ DENC   =    -70166.10918668
  -exchange      EXHF   =         0.00000000
  -V(xc)+E(xc)   XCENC  =     -2095.66896758
  PAW double counting   =      7476.04436201    -4809.59211051
  entropy T*S    EENTRO =        -0.11344071
  eigenvalues    EBANDS =      1087.53078897
  atomic energy  EATOM  =     11953.08265402
  Solvation  Ediel_sol  =         0.00000000
  ---------------------------------------------------
  free energy    TOTEN  =      2138.49654295 eV

  energy without entropy =     2138.60998366  energy(sigma->0) =     2138.55326331


--------------------------------------------------------------------------------------------------------




--------------------------------------- Iteration      1(   2)  ---------------------------------------


     EDDAV:  cpu time   64.8991: real time   65.0396
       DOS:  cpu time    0.0006: real time    0.0005
    --------------------------------------------
      LOOP:  cpu time   64.8996: real time   65.0401

 eigenvalue-minimisations  :  3080
 total energy-change (2. order) :-0.2244598E+04  (-0.2175756E+04)
 number of electron     324.0000000 magnetization 
 augmentation part      324.0000000 magnetization 

 Free energy of the ion-electron system (eV)
  ---------------------------------------------------
  alpha Z        PSCENC =       258.79313919
  Ewald energy   TEWEN  =     58434.52930425
  -Hartree energ DENC   =    -70166.10918668
  -exchange      EXHF   =         0.00000000
  -V(xc)+E(xc)   XCENC  =     -2095.66896758
  PAW double counting   =      7476.04436201    -4809.59211051
  entropy T*S    EENTRO =        -0.00003191
  eigenvalues    EBANDS =     -1157.18023650
  atomic energy  EATOM  =     11953.08265402
  Solvation  Ediel_sol  =         0.00000000
  ---------------------------------------------------
  free energy    TOTEN  =      -106.10107372 eV

  energy without entropy =     -106.10104181  energy(sigma->0) =     -106.10105776


--------------------------------------------------------------------------------------------------------




--------------------------------------- Iteration      1(   3)  ---------------------------------------


     EDDAV:  cpu time   53.4762: real time   53.6314
       DOS:  cpu time    0.0004: real time    0.0004
    --------------------------------------------
      LOOP:  cpu time   53.4765: real time   53.6318

 eigenvalue-minimisations  :  2440
 total energy-change (2. order) :-0.2160730E+03  (-0.2127743E+03)
 number of electron     324.0000000 magnetization 
 augmentation part      324.0000000 magnetization 

 Free energy of the ion-electron system (eV)
  ---------------------------------------------------
  alpha Z        PSCENC =       258.79313919
  Ewald energy   TEWEN  =     58434.52930425
  -Hartree energ DENC   =    -70166.10918668
  -exchange      EXHF   =         0.00000000
  -V(xc)+E(xc)   XCENC  =     -2095.66896758
  PAW double counting   =      7476.04436201    -4809.59211051
  entropy T*S    EENTRO =        -0.00000000
  eigenvalues    EBANDS =     -1373.25322479
  atomic energy  EATOM  =     11953.08265402
  Solvation  Ediel_sol  =         0.00000000
  ---------------------------------------------------
  free energy    TOTEN  =      -322.17403010 eV

  energy without entropy =     -322.17403010  energy(sigma->0) =     -322.17403010


--------------------------------------------------------------------------------------------------------




--------------------------------------- Iteration      1(   4)  ---------------------------------------


     EDDAV:  cpu time   65.7623: real time   65.9149
       DOS:  cpu time    0.0004: real time    0.0004
    --------------------------------------------
      LOOP:  cpu time   65.7627: real time   65.9152

 eigenvalue-minimisations  :  3120
 total energy-change (2. order) :-0.1183196E+02  (-0.1175570E+02)
 number of electron     324.0000000 magnetization 
 augmentation part      324.0000000 magnetization 

 Free energy of the ion-electron system (eV)
  ---------------------------------------------------
  alpha Z        PSCENC =       258.79313919
  Ewald energy   TEWEN  =     58434.52930425
  -Hartree energ DENC   =    -70166.10918668
  -exchange      EXHF   =         0.00000000
  -V(xc)+E(xc)   XCENC  =     -2095.66896758
  PAW double counting   =      7476.04436201    -4809.59211051
  entropy T*S    EENTRO =        -0.00000000
  eigenvalues    EBANDS =     -1385.08518660
  atomic energy  EATOM  =     11953.08265402
  Solvation  Ediel_sol  =         0.00000000
  ---------------------------------------------------
  free energy    TOTEN  =      -334.00599190 eV

  energy without entropy =     -334.00599190  energy(sigma->0) =     -334.00599190


--------------------------------------------------------------------------------------------------------




--------------------------------------- Iteration      1(   5)  ---------------------------------------


     EDDAV:  cpu time   63.1137: real time   63.2871
       DOS:  cpu time    0.0004: real time    0.0004
    CHARGE:  cpu time    1.1065: real time    1.1211
    MIXING:  cpu time    0.0165: real time    0.0195
    --------------------------------------------
      LOOP:  cpu time   64.2371: real time   64.4281

 eigenvalue-minimisations  :  2960
 total energy-change (2. order) :-0.2894407E+00  (-0.2890557E+00)
 number of electron     323.9999987 magnetization 
 augmentation part      -24.8431148 magnetization 

 Broyden mixing:
  rms(total) = 0.18063E+01    rms(broyden)= 0.18063E+01
  rms(prec ) = 0.19096E+01
  weight for this iteration     100.00

 Free energy of the ion-electron system (eV)
  ---------------------------------------------------
  alpha Z        PSCENC =       258.79313919
  Ewald energy   TEWEN  =     58434.52930425
  -Hartree energ DENC   =    -70166.10918668
  -exchange      EXHF   =         0.00000000
  -V(xc)+E(xc)   XCENC  =     -2095.66896758
  PAW double counting   =      7476.04436201    -4809.59211051
  entropy T*S    EENTRO =        -0.00000000
  eigenvalues    EBANDS =     -1385.37462728
  atomic energy  EATOM  =     11953.08265402
  Solvation  Ediel_sol  =         0.00000000
  ---------------------------------------------------
  free energy    TOTEN  =      -334.29543259 eV

  energy without entropy =     -334.29543259  energy(sigma->0) =     -334.29543259


--------------------------------------------------------------------------------------------------------




--------------------------------------- Iteration      1(   6)  ---------------------------------------


    POTLOK:  cpu time    0.2367: real time    0.2371
    SETDIJ:  cpu time    0.0112: real time    0.0112
    EDDIAG:  cpu time    2.4183: real time    2.4276
  RMM-DIIS:  cpu time   39.0829: real time   39.1938
    ORTHCH:  cpu time    0.2088: real time    0.2090
       DOS:  cpu time    0.0004: real time    0.0004
    CHARGE:  cpu time    1.1078: real time    1.1092
    MIXING:  cpu time    0.0072: real time    0.0426
    --------------------------------------------
      LOOP:  cpu time   43.0733: real time   43.2308

 eigenvalue-minimisations  :  2095
 total energy-change (2. order) : 0.8928762E+01  (-0.3455915E+01)
 number of electron     323.9999987 magnetization 
 augmentation part      -20.6770000 magnetization 

 Broyden mixing:
  rms(total) = 0.69616E+00    rms(broyden)= 0.69615E+00
  rms(prec ) = 0.78529E+00
  weight for this iteration     100.00

 eigenvalues of (default mixing * dielectric matrix)
  average eigenvalue GAMMA=   1.2222
  1.2222

 Free energy of the ion-electron system (eV)
  ---------------------------------------------------
  alpha Z        PSCENC =       258.79313919
  Ewald energy   TEWEN  =     58434.52930425
  -Hartree energ DENC   =    -70167.49990783
  -exchange      EXHF   =         0.00000000
  -V(xc)+E(xc)   XCENC  =     -2089.33131149
  PAW double counting   =      7777.96366720    -5123.81986395
  entropy T*S    EENTRO =        -0.00000000
  eigenvalues    EBANDS =     -1369.08435156
  atomic energy  EATOM  =     11953.08265402
  Solvation  Ediel_sol  =         0.00000000
  ---------------------------------------------------
  free energy    TOTEN  =      -325.36667017 eV

  energy without entropy =     -325.36667017  energy(sigma->0) =     -325.36667017


--------------------------------------------------------------------------------------------------------




--------------------------------------- Iteration      1(   7)  ---------------------------------------


    POTLOK:  cpu time    0.2426: real time    0.2429
    SETDIJ:  cpu time    0.0111: real time    0.0111
    EDDIAG:  cpu time    2.4172: real time    2.4262
  RMM-DIIS:  cpu time   36.8002: real time   36.8920
    ORTHCH:  cpu time    0.2069: real time    0.2071
       DOS:  cpu time    0.0004: real time    0.0004
    CHARGE:  cpu time    1.1065: real time    1.1118
    MIXING:  cpu time    0.0067: real time    0.0067
    --------------------------------------------
      LOOP:  cpu time   40.7916: real time   40.8983

 eigenvalue-minimisations  :  2005
 total energy-change (2. order) : 0.2749147E+01  (-0.9494968E+00)
 number of electron     323.9999987 magnetization 
 augmentation part      -21.7915632 magnetization 

 Broyden mixing:
  rms(total) = 0.41901E+00    rms(broyden)= 0.41901E+00
  rms(prec ) = 0.44331E+00
  weight for this iteration     100.00

 eigenvalues of (default mixing * dielectric matrix)
  average eigenvalue GAMMA=   1.4844
  0.7815  2.1873

 Free energy of the ion-electron system (eV)
  ---------------------------------------------------
  alpha Z        PSCENC =       258.79313919
  Ewald energy   TEWEN  =     58434.52930425
  -Hartree energ DENC   =    -70253.55157308
  -exchange      EXHF   =         0.00000000
  -V(xc)+E(xc)   XCENC  =     -2086.93902012
  PAW double counting   =      8134.96527713    -5487.80779566
  entropy T*S    EENTRO =        -0.00000000
  eigenvalues    EBANDS =     -1275.68950935
  atomic energy  EATOM  =     11953.08265402
  Solvation  Ediel_sol  =         0.00000000
  ---------------------------------------------------
  free energy    TOTEN  =      -322.61752361 eV

  energy without entropy =     -322.61752361  energy(sigma->0) =     -322.61752361


--------------------------------------------------------------------------------------------------------




--------------------------------------- Iteration      1(   8)  ---------------------------------------


    POTLOK:  cpu time    0.2382: real time    0.2384
    SETDIJ:  cpu time    0.0113: real time    0.0113
    EDDIAG:  cpu time    2.4072: real time    2.4139
  RMM-DIIS:  cpu time   37.3424: real time   37.4424
    ORTHCH:  cpu time    0.2081: real time    0.2083
       DOS:  cpu time    0.0004: real time    0.0004
    CHARGE:  cpu time    1.1073: real time    1.1085
    MIXING:  cpu time    0.0067: real time    0.0067
    --------------------------------------------
      LOOP:  cpu time   41.3216: real time   41.4299

 eigenvalue-minimisations  :  2005
 total energy-change (2. order) : 0.3739190E+00  (-0.5230282E+00)
 number of electron     323.9999987 magnetization 
 augmentation part      -21.3137299 magnetization 

 Broyden mixing:
  rms(total) = 0.97256E-01    rms(broyden)= 0.97256E-01
  rms(prec ) = 0.10897E+00
  weight for this iteration     100.00

 eigenvalues of (default mixing * dielectric matrix)
  average eigenvalue GAMMA=   1.3892
  2.1190  1.2604  0.7883

 Free energy of the ion-electron system (eV)
  ---------------------------------------------------
  alpha Z        PSCENC =       258.79313919
  Ewald energy   TEWEN  =     58434.52930425
  -Hartree energ DENC   =    -70302.80006316
  -exchange      EXHF   =         0.00000000
  -V(xc)+E(xc)   XCENC  =     -2083.27418602
  PAW double counting   =      8438.43700726    -5797.35704348
  entropy T*S    EENTRO =        -0.00000000
  eigenvalues    EBANDS =     -1223.65441663
  atomic energy  EATOM  =     11953.08265402
  Solvation  Ediel_sol  =         0.00000000
  ---------------------------------------------------
  free energy    TOTEN  =      -322.24360457 eV

  energy without entropy =     -322.24360457  energy(sigma->0) =     -322.24360457


--------------------------------------------------------------------------------------------------------




--------------------------------------- Iteration      1(   9)  ---------------------------------------


    POTLOK:  cpu time    0.2394: real time    0.2397
    SETDIJ:  cpu time    0.0112: real time    0.0112
    EDDIAG:  cpu time    2.4033: real time    2.4126
  RMM-DIIS:  cpu time   42.4060: real time   42.5222
    ORTHCH:  cpu time    0.2065: real time    0.2079
       DOS:  cpu time    0.0005: real time    0.0005
    CHARGE:  cpu time    1.1075: real time    1.1086
    MIXING:  cpu time    0.0068: real time    0.0068
    --------------------------------------------
      LOOP:  cpu time   46.3812: real time   46.5094

 eigenvalue-minimisations  :  2259
 total energy-change (2. order) :-0.7997191E-01  (-0.1162525E+00)
 number of electron     323.9999987 magnetization 
 augmentation part      -21.0147147 magnetization 

 Broyden mixing:
  rms(total) = 0.99048E-01    rms(broyden)= 0.99047E-01
  rms(prec ) = 0.11091E+00
  weight for this iteration     100.00

 eigenvalues of (default mixing * dielectric matrix)
  average eigenvalue GAMMA=   1.3240
  2.0401  2.0401  0.7531  0.4626

 Free energy of the ion-electron system (eV)
  ---------------------------------------------------
  alpha Z        PSCENC =       258.79313919
  Ewald energy   TEWEN  =     58434.52930425
  -Hartree energ DENC   =    -70307.54610856
  -exchange      EXHF   =         0.00000000
  -V(xc)+E(xc)   XCENC  =     -2082.84589767
  PAW double counting   =      8458.24469299    -5817.45047932
  entropy T*S    EENTRO =        -0.00000000
  eigenvalues    EBANDS =     -1219.13088138
  atomic energy  EATOM  =     11953.08265402
  Solvation  Ediel_sol  =         0.00000000
  ---------------------------------------------------
  free energy    TOTEN  =      -322.32357648 eV

  energy without entropy =     -322.32357648  energy(sigma->0) =     -322.32357648


--------------------------------------------------------------------------------------------------------




--------------------------------------- Iteration      1(  10)  ---------------------------------------


    POTLOK:  cpu time    0.2400: real time    0.2402
    SETDIJ:  cpu time    0.0111: real time    0.0111
    EDDIAG:  cpu time    2.4010: real time    2.4082
  RMM-DIIS:  cpu time   42.1533: real time   42.2589
    ORTHCH:  cpu time    0.2068: real time    0.2092
       DOS:  cpu time    0.0004: real time    0.0004
    CHARGE:  cpu time    1.1067: real time    1.1077
    MIXING:  cpu time    0.0070: real time    0.0070
    --------------------------------------------
      LOOP:  cpu time   46.1263: real time   46.2428

 eigenvalue-minimisations  :  2275
 total energy-change (2. order) : 0.1388785E-01  (-0.2227287E-01)
 number of electron     323.9999987 magnetization 
 augmentation part      -21.0149880 magnetization 

 Broyden mixing:
  rms(total) = 0.49304E-01    rms(broyden)= 0.49304E-01
  rms(prec ) = 0.57153E-01
  weight for this iteration     100.00

 eigenvalues of (default mixing * dielectric matrix)
  average eigenvalue GAMMA=   1.3440
  2.2920  2.2134  0.9019  0.9019  0.4110

 Free energy of the ion-electron system (eV)
  ---------------------------------------------------
  alpha Z        PSCENC =       258.79313919
  Ewald energy   TEWEN  =     58434.52930425
  -Hartree energ DENC   =    -70315.48910865
  -exchange      EXHF   =         0.00000000
  -V(xc)+E(xc)   XCENC  =     -2082.60694770
  PAW double counting   =      8483.56137045    -5842.83367019
  entropy T*S    EENTRO =        -0.00000000
  eigenvalues    EBANDS =     -1211.34643000
  atomic energy  EATOM  =     11953.08265402
  Solvation  Ediel_sol  =         0.00000000
  ---------------------------------------------------
  free energy    TOTEN  =      -322.30968863 eV

  energy without entropy =     -322.30968863  energy(sigma->0) =     -322.30968863


--------------------------------------------------------------------------------------------------------




--------------------------------------- Iteration      1(  11)  ---------------------------------------


    POTLOK:  cpu time    0.2410: real time    0.2412
    SETDIJ:  cpu time    0.0113: real time    0.0113
    EDDIAG:  cpu time    2.4001: real time    2.4070
  RMM-DIIS:  cpu time   41.8777: real time   42.0074
    ORTHCH:  cpu time    0.2066: real time    0.2068
       DOS:  cpu time    0.0004: real time    0.0005
    CHARGE:  cpu time    1.1037: real time    1.1085
    MIXING:  cpu time    0.0068: real time    0.0068
    --------------------------------------------
      LOOP:  cpu time   45.8477: real time   45.9894

 eigenvalue-minimisations  :  2198
 total energy-change (2. order) : 0.3841146E-02  (-0.1059721E-01)
 number of electron     323.9999987 magnetization 
 augmentation part      -21.2317151 magnetization 

 Broyden mixing:
  rms(total) = 0.24799E-01    rms(broyden)= 0.24799E-01
  rms(prec ) = 0.28681E-01
  weight for this iteration     100.00

 eigenvalues of (default mixing * dielectric matrix)
  average eigenvalue GAMMA=   1.2737
  2.4921  1.9164  1.3850  0.7198  0.7198  0.4091

 Free energy of the ion-electron system (eV)
  ---------------------------------------------------
  alpha Z        PSCENC =       258.79313919
  Ewald energy   TEWEN  =     58434.52930425
  -Hartree energ DENC   =    -70329.13901805
  -exchange      EXHF   =         0.00000000
  -V(xc)+E(xc)   XCENC  =     -2082.41803539
  PAW double counting   =      8517.39561017    -5876.77296918
  entropy T*S    EENTRO =        -0.00000000
  eigenvalues    EBANDS =     -1197.77653249
  atomic energy  EATOM  =     11953.08265402
  Solvation  Ediel_sol  =         0.00000000
  ---------------------------------------------------
  free energy    TOTEN  =      -322.30584748 eV

  energy without entropy =     -322.30584748  energy(sigma->0) =     -322.30584748


--------------------------------------------------------------------------------------------------------




--------------------------------------- Iteration      1(  12)  ---------------------------------------


    POTLOK:  cpu time    0.2382: real time    0.2385
    SETDIJ:  cpu time    0.0112: real time    0.0112
    EDDIAG:  cpu time    2.4066: real time    2.4127
  RMM-DIIS:  cpu time   45.6552: real time   45.7808
    ORTHCH:  cpu time    0.2086: real time    0.2087
       DOS:  cpu time    0.0004: real time    0.0004
    CHARGE:  cpu time    1.1038: real time    1.1050
    MIXING:  cpu time    0.0080: real time    0.0080
    --------------------------------------------
      LOOP:  cpu time   49.6320: real time   49.7654

 eigenvalue-minimisations  :  2456
 total energy-change (2. order) :-0.2380434E-03  (-0.2086808E-02)
 number of electron     323.9999987 magnetization 
 augmentation part      -21.2150870 magnetization 

 Broyden mixing:
  rms(total) = 0.17090E-01    rms(broyden)= 0.17090E-01
  rms(prec ) = 0.20347E-01
  weight for this iteration     100.00

 eigenvalues of (default mixing * dielectric matrix)
  average eigenvalue GAMMA=   1.2929
  2.4812  2.0558  2.0558  0.8218  0.8218  0.4240  0.3900

 Free energy of the ion-electron system (eV)
  ---------------------------------------------------
  alpha Z        PSCENC =       258.79313919
  Ewald energy   TEWEN  =     58434.52930425
  -Hartree energ DENC   =    -70332.25229638
  -exchange      EXHF   =         0.00000000
  -V(xc)+E(xc)   XCENC  =     -2082.34223063
  PAW double counting   =      8519.37342407    -5878.74355510
  entropy T*S    EENTRO =        -0.00000000
  eigenvalues    EBANDS =     -1194.74652494
  atomic energy  EATOM  =     11953.08265402
  Solvation  Ediel_sol  =         0.00000000
  ---------------------------------------------------
  free energy    TOTEN  =      -322.30608552 eV

  energy without entropy =     -322.30608552  energy(sigma->0) =     -322.30608552


--------------------------------------------------------------------------------------------------------




--------------------------------------- Iteration      1(  13)  ---------------------------------------


    POTLOK:  cpu time    0.2404: real time    0.2423
    SETDIJ:  cpu time    0.0111: real time    0.0111
    EDDIAG:  cpu time    2.4173: real time    2.4234
  RMM-DIIS:  cpu time   42.7447: real time   42.8670
    ORTHCH:  cpu time    0.2071: real time    0.2073
       DOS:  cpu time    0.0005: real time    0.0004
    CHARGE:  cpu time    1.1066: real time    1.1077
    MIXING:  cpu time    0.0089: real time    0.0089
    --------------------------------------------
      LOOP:  cpu time   46.7364: real time   46.8681

 eigenvalue-minimisations  :  2307
 total energy-change (2. order) :-0.6153256E-03  (-0.1377564E-02)
 number of electron     323.9999987 magnetization 
 augmentation part      -21.1360189 magnetization 

 Broyden mixing:
  rms(total) = 0.12101E-01    rms(broyden)= 0.12101E-01
  rms(prec ) = 0.14761E-01
  weight for this iteration     100.00

 eigenvalues of (default mixing * dielectric matrix)
  average eigenvalue GAMMA=   1.3896
  2.9796  2.6391  1.6307  1.4306  0.8090  0.8090  0.4314  0.3872

 Free energy of the ion-electron system (eV)
  ---------------------------------------------------
  alpha Z        PSCENC =       258.79313919
  Ewald energy   TEWEN  =     58434.52930425
  -Hartree energ DENC   =    -70335.95928630
  -exchange      EXHF   =         0.00000000
  -V(xc)+E(xc)   XCENC  =     -2082.27010764
  PAW double counting   =      8516.53622601    -5875.84458240
  entropy T*S    EENTRO =        -0.00000000
  eigenvalues    EBANDS =     -1191.17404798
  atomic energy  EATOM  =     11953.08265402
  Solvation  Ediel_sol  =         0.00000000
  ---------------------------------------------------
  free energy    TOTEN  =      -322.30670085 eV

  energy without entropy =     -322.30670085  energy(sigma->0) =     -322.30670085


--------------------------------------------------------------------------------------------------------




--------------------------------------- Iteration      1(  14)  ---------------------------------------


    POTLOK:  cpu time    0.2423: real time    0.2426
    SETDIJ:  cpu time    0.0112: real time    0.0112
    EDDIAG:  cpu time    2.3983: real time    2.4042
  RMM-DIIS:  cpu time   38.3303: real time   38.4198
    ORTHCH:  cpu time    0.2067: real time    0.2071
       DOS:  cpu time    0.0004: real time    0.0004
    CHARGE:  cpu time    1.1032: real time    1.1041
    MIXING:  cpu time    0.0074: real time    0.0074
    --------------------------------------------
      LOOP:  cpu time   42.3000: real time   42.3969

 eigenvalue-minimisations  :  2041
 total energy-change (2. order) :-0.5057340E-03  (-0.3880386E-03)
 number of electron     323.9999987 magnetization 
 augmentation part      -21.1712503 magnetization 

 Broyden mixing:
  rms(total) = 0.48368E-02    rms(broyden)= 0.48368E-02
  rms(prec ) = 0.63833E-02
  weight for this iteration     100.00

 eigenvalues of (default mixing * dielectric matrix)
  average eigenvalue GAMMA=   1.3603
  3.1644  2.5196  1.7052  1.7052  0.7975  0.7975  0.7342  0.4314  0.3875

 Free energy of the ion-electron system (eV)
  ---------------------------------------------------
  alpha Z        PSCENC =       258.79313919
  Ewald energy   TEWEN  =     58434.52930425
  -Hartree energ DENC   =    -70343.53103161
  -exchange      EXHF   =         0.00000000
  -V(xc)+E(xc)   XCENC  =     -2082.26049138
  PAW double counting   =      8516.59739420    -5875.79368495
  entropy T*S    EENTRO =        -0.00000000
  eigenvalues    EBANDS =     -1183.72449030
  atomic energy  EATOM  =     11953.08265402
  Solvation  Ediel_sol  =         0.00000000
  ---------------------------------------------------
  free energy    TOTEN  =      -322.30720658 eV

  energy without entropy =     -322.30720658  energy(sigma->0) =     -322.30720658


--------------------------------------------------------------------------------------------------------




--------------------------------------- Iteration      1(  15)  ---------------------------------------


    POTLOK:  cpu time    0.2408: real time    0.2410
    SETDIJ:  cpu time    0.0114: real time    0.0114
    EDDIAG:  cpu time    2.4192: real time    2.4247
  RMM-DIIS:  cpu time   48.3621: real time   48.4929
    ORTHCH:  cpu time    0.2045: real time    0.2070
       DOS:  cpu time    0.0004: real time    0.0004
    CHARGE:  cpu time    1.1060: real time    1.1071
    MIXING:  cpu time    0.0074: real time    0.0074
    --------------------------------------------
      LOOP:  cpu time   52.3517: real time   52.4918

 eigenvalue-minimisations  :  2573
 total energy-change (2. order) :-0.1002179E-02  (-0.1951324E-03)
 number of electron     323.9999987 magnetization 
 augmentation part      -21.1800561 magnetization 

 Broyden mixing:
  rms(total) = 0.54021E-02    rms(broyden)= 0.54021E-02
  rms(prec ) = 0.64933E-02
  weight for this iteration     100.00

 eigenvalues of (default mixing * dielectric matrix)
  average eigenvalue GAMMA=   1.3389
  3.3227  2.3990  1.9259  1.9259  0.9227  0.7844  0.7844  0.3879  0.4270  0.5093

 Free energy of the ion-electron system (eV)
  ---------------------------------------------------
  alpha Z        PSCENC =       258.79313919
  Ewald energy   TEWEN  =     58434.52930425
  -Hartree energ DENC   =    -70345.54085519
  -exchange      EXHF   =         0.00000000
  -V(xc)+E(xc)   XCENC  =     -2082.24673399
  PAW double counting   =      8516.43723370    -5875.65145302
  entropy T*S    EENTRO =        -0.00000000
  eigenvalues    EBANDS =     -1181.71149772
  atomic energy  EATOM  =     11953.08265402
  Solvation  Ediel_sol  =         0.00000000
  ---------------------------------------------------
  free energy    TOTEN  =      -322.30820876 eV

  energy without entropy =     -322.30820876  energy(sigma->0) =     -322.30820876


--------------------------------------------------------------------------------------------------------




--------------------------------------- Iteration      1(  16)  ---------------------------------------


    POTLOK:  cpu time    0.2441: real time    0.2444
    SETDIJ:  cpu time    0.0122: real time    0.0122
    EDDIAG:  cpu time    2.4037: real time    2.4115
  RMM-DIIS:  cpu time   39.7618: real time   39.8768
    ORTHCH:  cpu time    0.2042: real time    0.2044
       DOS:  cpu time    0.0004: real time    0.0004
    CHARGE:  cpu time    1.1068: real time    1.1080
    MIXING:  cpu time    0.0076: real time    0.0093
    --------------------------------------------
      LOOP:  cpu time   43.7408: real time   43.8669

 eigenvalue-minimisations  :  2120
 total energy-change (2. order) :-0.1205986E-02  (-0.6240564E-04)
 number of electron     323.9999987 magnetization 
 augmentation part      -21.1689651 magnetization 

 Broyden mixing:
  rms(total) = 0.24827E-02    rms(broyden)= 0.24827E-02
  rms(prec ) = 0.34028E-02
  weight for this iteration     100.00

 eigenvalues of (default mixing * dielectric matrix)
  average eigenvalue GAMMA=   1.4482
  4.3246  2.4934  2.4934  1.6146  1.3594  0.7977  0.7977  0.8164  0.4335  0.3879
  0.4113

 Free energy of the ion-electron system (eV)
  ---------------------------------------------------
  alpha Z        PSCENC =       258.79313919
  Ewald energy   TEWEN  =     58434.52930425
  -Hartree energ DENC   =    -70347.93818966
  -exchange      EXHF   =         0.00000000
  -V(xc)+E(xc)   XCENC  =     -2082.22465916
  PAW double counting   =      8515.29878610    -5874.53732777
  entropy T*S    EENTRO =        -0.00000000
  eigenvalues    EBANDS =     -1179.31312173
  atomic energy  EATOM  =     11953.08265402
  Solvation  Ediel_sol  =         0.00000000
  ---------------------------------------------------
  free energy    TOTEN  =      -322.30941475 eV

  energy without entropy =     -322.30941475  energy(sigma->0) =     -322.30941475


--------------------------------------------------------------------------------------------------------




--------------------------------------- Iteration      1(  17)  ---------------------------------------


    POTLOK:  cpu time    0.2428: real time    0.2431
    SETDIJ:  cpu time    0.0123: real time    0.0123
    EDDIAG:  cpu time    2.3968: real time    2.4030
  RMM-DIIS:  cpu time   41.5593: real time   41.6573
    ORTHCH:  cpu time    0.2073: real time    0.2076
       DOS:  cpu time    0.0004: real time    0.0004
    CHARGE:  cpu time    1.1046: real time    1.1057
    MIXING:  cpu time    0.0077: real time    0.0077
    --------------------------------------------
      LOOP:  cpu time   45.5313: real time   45.6371

 eigenvalue-minimisations  :  2219
 total energy-change (2. order) :-0.1498077E-02  (-0.6771748E-04)
 number of electron     323.9999987 magnetization 
 augmentation part      -21.1564209 magnetization 

 Broyden mixing:
  rms(total) = 0.31233E-02    rms(broyden)= 0.31233E-02
  rms(prec ) = 0.35190E-02
  weight for this iteration     100.00

 eigenvalues of (default mixing * dielectric matrix)
  average eigenvalue GAMMA=   1.4567
  4.7243  2.6417  2.3342  1.6611  1.6611  0.9271  0.7793  0.7793  0.7511  0.4305
  0.3877  0.4030

 Free energy of the ion-electron system (eV)
  ---------------------------------------------------
  alpha Z        PSCENC =       258.79313919
  Ewald energy   TEWEN  =     58434.52930425
  -Hartree energ DENC   =    -70351.14851994
  -exchange      EXHF   =         0.00000000
  -V(xc)+E(xc)   XCENC  =     -2082.20541386
  PAW double counting   =      8513.75215833    -5872.99625377
  entropy T*S    EENTRO =        -0.00000000
  eigenvalues    EBANDS =     -1176.11798105
  atomic energy  EATOM  =     11953.08265402
  Solvation  Ediel_sol  =         0.00000000
  ---------------------------------------------------
  free energy    TOTEN  =      -322.31091283 eV

  energy without entropy =     -322.31091283  energy(sigma->0) =     -322.31091283


--------------------------------------------------------------------------------------------------------




--------------------------------------- Iteration      1(  18)  ---------------------------------------


    POTLOK:  cpu time    0.2431: real time    0.2433
    SETDIJ:  cpu time    0.0126: real time    0.0126
    EDDIAG:  cpu time    2.3980: real time    2.4040
  RMM-DIIS:  cpu time   39.7755: real time   39.8876
    ORTHCH:  cpu time    0.2050: real time    0.2053
       DOS:  cpu time    0.0004: real time    0.0004
    CHARGE:  cpu time    1.1083: real time    1.1098
    MIXING:  cpu time    0.0078: real time    0.0078
    --------------------------------------------
      LOOP:  cpu time   43.7507: real time   43.8707

 eigenvalue-minimisations  :  2113
 total energy-change (2. order) :-0.3707453E-03  (-0.1200294E-04)
 number of electron     323.9999987 magnetization 
 augmentation part      -21.1613120 magnetization 

 Broyden mixing:
  rms(total) = 0.14880E-02    rms(broyden)= 0.14880E-02
  rms(prec ) = 0.17445E-02
  weight for this iteration     100.00

 eigenvalues of (default mixing * dielectric matrix)
  average eigenvalue GAMMA=   1.4551
  5.0948  2.7830  2.1112  1.8998  1.8998  0.9916  0.7881  0.7881  0.8047  0.5368
  0.4315  0.3881  0.3989

 Free energy of the ion-electron system (eV)
  ---------------------------------------------------
  alpha Z        PSCENC =       258.79313919
  Ewald energy   TEWEN  =     58434.52930425
  -Hartree energ DENC   =    -70351.85690027
  -exchange      EXHF   =         0.00000000
  -V(xc)+E(xc)   XCENC  =     -2082.20981044
  PAW double counting   =      8513.86745623    -5873.10059613
  entropy T*S    EENTRO =        -0.00000000
  eigenvalues    EBANDS =     -1175.41653041
  atomic energy  EATOM  =     11953.08265402
  Solvation  Ediel_sol  =         0.00000000
  ---------------------------------------------------
  free energy    TOTEN  =      -322.31128357 eV

  energy without entropy =     -322.31128357  energy(sigma->0) =     -322.31128357


--------------------------------------------------------------------------------------------------------




--------------------------------------- Iteration      1(  19)  ---------------------------------------


    POTLOK:  cpu time    0.2417: real time    0.2432
    SETDIJ:  cpu time    0.0112: real time    0.0112
    EDDIAG:  cpu time    2.4050: real time    2.4114
  RMM-DIIS:  cpu time   41.3083: real time   41.4202
    ORTHCH:  cpu time    0.2042: real time    0.2044
       DOS:  cpu time    0.0004: real time    0.0004
    CHARGE:  cpu time    1.1077: real time    1.1089
    MIXING:  cpu time    0.0109: real time    0.0109
    --------------------------------------------
      LOOP:  cpu time   45.2894: real time   45.4105

 eigenvalue-minimisations  :  2232
 total energy-change (2. order) :-0.3621208E-03  (-0.8539934E-05)
 number of electron     323.9999987 magnetization 
 augmentation part      -21.1656695 magnetization 

 Broyden mixing:
  rms(total) = 0.70262E-03    rms(broyden)= 0.70262E-03
  rms(prec ) = 0.89446E-03
  weight for this iteration     100.00

 eigenvalues of (default mixing * dielectric matrix)
  average eigenvalue GAMMA=   1.5893
  6.7002  3.0590  2.3802  1.9958  1.9958  1.0519  1.0519  0.7999  0.7999  0.7729
  0.4355  0.4276  0.3894  0.3894

 Free energy of the ion-electron system (eV)
  ---------------------------------------------------
  alpha Z        PSCENC =       258.79313919
  Ewald energy   TEWEN  =     58434.52930425
  -Hartree energ DENC   =    -70352.37562360
  -exchange      EXHF   =         0.00000000
  -V(xc)+E(xc)   XCENC  =     -2082.21191474
  PAW double counting   =      8514.10296275    -5873.33078091
  entropy T*S    EENTRO =        -0.00000000
  eigenvalues    EBANDS =     -1174.90138665
  atomic energy  EATOM  =     11953.08265402
  Solvation  Ediel_sol  =         0.00000000
  ---------------------------------------------------
  free energy    TOTEN  =      -322.31164569 eV

  energy without entropy =     -322.31164569  energy(sigma->0) =     -322.31164569


--------------------------------------------------------------------------------------------------------




--------------------------------------- Iteration      1(  20)  ---------------------------------------


    POTLOK:  cpu time    0.2482: real time    0.2485
    SETDIJ:  cpu time    0.0113: real time    0.0113
    EDDIAG:  cpu time    2.4073: real time    2.4138
  RMM-DIIS:  cpu time   38.4517: real time   38.5495
    ORTHCH:  cpu time    0.2069: real time    0.2071
       DOS:  cpu time    0.0007: real time    0.0007
    CHARGE:  cpu time    1.1036: real time    1.1078
    MIXING:  cpu time    0.0080: real time    0.0081
    --------------------------------------------
      LOOP:  cpu time   42.4378: real time   42.5467

 eigenvalue-minimisations  :  2065
 total energy-change (2. order) :-0.3605253E-03  (-0.4049744E-05)
 number of electron     323.9999987 magnetization 
 augmentation part      -21.1652378 magnetization 

 Broyden mixing:
  rms(total) = 0.27561E-03    rms(broyden)= 0.27561E-03
  rms(prec ) = 0.36854E-03
  weight for this iteration     100.00

 eigenvalues of (default mixing * dielectric matrix)
  average eigenvalue GAMMA=   1.6351
  6.7642  3.4076  2.5089  2.1278  2.1278  1.4059  1.2765  0.7921  0.7921  0.8423
  0.8423  0.4334  0.4266  0.3887  0.3903

 Free energy of the ion-electron system (eV)
  ---------------------------------------------------
  alpha Z        PSCENC =       258.79313919
  Ewald energy   TEWEN  =     58434.52930425
  -Hartree energ DENC   =    -70353.02273396
  -exchange      EXHF   =         0.00000000
  -V(xc)+E(xc)   XCENC  =     -2082.20967211
  PAW double counting   =      8514.31215750    -5873.54117497
  entropy T*S    EENTRO =        -0.00000000
  eigenvalues    EBANDS =     -1174.25568014
  atomic energy  EATOM  =     11953.08265402
  Solvation  Ediel_sol  =         0.00000000
  ---------------------------------------------------
  free energy    TOTEN  =      -322.31200622 eV

  energy without entropy =     -322.31200622  energy(sigma->0) =     -322.31200622


--------------------------------------------------------------------------------------------------------




--------------------------------------- Iteration      1(  21)  ---------------------------------------


    POTLOK:  cpu time    0.2494: real time    0.2496
    SETDIJ:  cpu time    0.0114: real time    0.0114
    EDDIAG:  cpu time    2.4029: real time    2.4090
  RMM-DIIS:  cpu time   37.2917: real time   37.3857
    ORTHCH:  cpu time    0.2091: real time    0.2093
       DOS:  cpu time    0.0004: real time    0.0004
    CHARGE:  cpu time    1.1013: real time    1.1063
    MIXING:  cpu time    0.0082: real time    0.0082
    --------------------------------------------
      LOOP:  cpu time   41.2744: real time   41.3800

 eigenvalue-minimisations  :  1899
 total energy-change (2. order) :-0.1321209E-03  (-0.1339491E-05)
 number of electron     323.9999987 magnetization 
 augmentation part      -21.1643232 magnetization 

 Broyden mixing:
  rms(total) = 0.41685E-03    rms(broyden)= 0.41685E-03
  rms(prec ) = 0.47634E-03
  weight for this iteration     100.00

 eigenvalues of (default mixing * dielectric matrix)
  average eigenvalue GAMMA=   1.6192
  6.9704  3.5991  2.5779  2.2334  2.2334  1.7060  1.0856  0.7971  0.7971  0.8421
  0.8913  0.5358  0.4325  0.4254  0.3887  0.3910

 Free energy of the ion-electron system (eV)
  ---------------------------------------------------
  alpha Z        PSCENC =       258.79313919
  Ewald energy   TEWEN  =     58434.52930425
  -Hartree energ DENC   =    -70353.21293288
  -exchange      EXHF   =         0.00000000
  -V(xc)+E(xc)   XCENC  =     -2082.20940382
  PAW double counting   =      8514.41796233    -5873.64877035
  entropy T*S    EENTRO =        -0.00000000
  eigenvalues    EBANDS =     -1174.06409107
  atomic energy  EATOM  =     11953.08265402
  Solvation  Ediel_sol  =         0.00000000
  ---------------------------------------------------
  free energy    TOTEN  =      -322.31213834 eV

  energy without entropy =     -322.31213834  energy(sigma->0) =     -322.31213834


--------------------------------------------------------------------------------------------------------




[...]
 -0.000  -0.000   0.000  -0.000  -0.000   0.011   0.000  -0.000
  0.000  -0.000  -0.000   0.000  -0.000   0.000   0.011   0.000
 -0.000  -0.000  -0.000  -0.000   0.000  -0.000   0.000   0.011
 -0.001   0.000   0.000   0.000   0.000  -0.000  -0.000  -0.000
  0.000   0.000   0.016   0.001   0.000   0.000  -0.000  -0.000
 -0.010  -0.000  -0.000   0.021  -0.000   0.000   0.000   0.000
  0.000   0.000   0.000   0.001   0.016  -0.000  -0.000   0.000
  0.001   0.000  -0.001   0.000   0.000  -0.000  -0.000  -0.000
 total augmentation occupancy for first ion, spin component:           1
  1.930   0.250   0.002  -0.197   0.005  -0.005  -0.053  -0.002   0.002   0.002   0.008   0.001  -0.000
  0.250   1.461   0.007   0.963  -0.009  -0.013  -0.391  -0.000  -0.006   0.001  -0.027  -0.001   0.006
  0.002   0.007   1.344   0.008   0.011  -0.501  -0.008  -0.005  -0.004   0.120   0.002   0.002   0.044
 -0.197   0.963   0.008   1.518   0.009  -0.009  -0.568   0.002   0.003   0.004   0.041   0.001   0.002
  0.005  -0.009   0.011   0.009   1.348  -0.005   0.002  -0.507   0.046   0.002   0.001   0.124   0.001
 -0.005  -0.013  -0.501  -0.009  -0.005   0.335   0.002  -0.005  -0.001  -0.042   0.001  -0.001  -0.006
 -0.053  -0.391  -0.008  -0.568   0.002   0.002   0.313  -0.001  -0.000  -0.002  -0.050  -0.000  -0.000
 -0.002  -0.000  -0.005   0.002  -0.507  -0.005  -0.001   0.346  -0.009  -0.001   0.000  -0.041  -0.001
  0.002  -0.006  -0.004   0.003   0.046  -0.001  -0.000  -0.009   0.023   0.000   0.000  -0.000   0.001
  0.002   0.001   0.120   0.004   0.002  -0.042  -0.002  -0.001   0.000   0.020   0.001  -0.000  -0.001
  0.008  -0.027   0.002   0.041   0.001   0.001  -0.050   0.000   0.000   0.001   0.022   0.000  -0.001
  0.001  -0.001   0.002   0.001   0.124  -0.001  -0.000  -0.041  -0.000  -0.000   0.000   0.021   0.000
 -0.000   0.006   0.044   0.002   0.001  -0.006  -0.000  -0.001   0.001  -0.001  -0.001   0.000   0.023


------------------------ aborting loop because EDIFF is reached ----------------------------------------


    CHARGE:  cpu time    1.1097: real time    1.1110
    FORLOC:  cpu time    0.0731: real time    0.0732
    FORNL :  cpu time   12.4536: real time   12.4744
    STRESS:  cpu time   67.5659: real time   67.6839
    FORCOR:  cpu time    0.2748: real time    0.2751
    FORHAR:  cpu time    0.1161: real time    0.1162
    MIXING:  cpu time    0.0069: real time    0.0069
    OFIELD:  cpu time    0.0000: real time    0.0000

  Number of pair interactions contributing to vdW energy:  282811
  Edisp (eV):  -19.18657
    FORVDW:  cpu time    0.0306: real time    0.0306

  FORCE on cell =-STRESS in cart. coord.  units (eV):
  Direction    XX          YY          ZZ          XY          YZ          ZX
  --------------------------------------------------------------------------------------
  Alpha Z   258.79314   258.79314   258.79314
  Ewald   67666.39752 67601.68896-76911.61344   -44.30525    -4.84395    37.72549
  Hartree 69940.54058 69924.23956-69582.43934   -11.03422    -2.67778     4.36385
  E(xc)   -1364.76626 -1363.58718 -1384.63435     0.77163    -0.20365    -1.45043
  Local  ************************141410.16139    53.31909     6.92160   -40.63783
  n-local  3577.99227  3579.10988  3773.19719    -0.29218     1.68748    10.18992
  augment  -758.84581  -760.50377  -803.35859    -0.80222    -0.40298    -1.63324
  Kinetic  3327.99133  3309.56737  3278.98310   -10.61138    -1.40129     6.63400
  Fock        0.00000     0.00000     0.00000     0.00000     0.00000     0.00000
  vdW       -12.48985   -12.65446   -10.22204    -0.05771    -0.30728    -0.38310
  -------------------------------------------------------------------------------------
  Total      46.44209    25.38630    28.86704   -13.01224    -1.22785    14.80866
  in kB      26.83198    14.66697    16.67797    -7.51784    -0.70939     8.55572
  external pressure =       19.39 kB  Pullay stress =        0.00 kB

  kinetic pressure (ideal gas correction) =      0.27 kB
  total pressure  =     19.66 kB
  Total+kin.    27.115      14.852      17.027      -7.510      -0.692       8.630

 VOLUME and BASIS-vectors are now :
 -----------------------------------------------------------------------------
  energy-cutoff  :      550.00
  volume of cell :     2773.13
      direct lattice vectors                 reciprocal lattice vectors
    10.262648379  0.000000000  0.000000000     0.097440735  0.052594663  0.002079385
    -4.901765650  9.081370981  0.000000000     0.000000000  0.110115532  0.000176178
    -0.609273937 -0.047606157 29.754924633     0.000000000  0.000000000  0.033607882

  length of vectors
    10.262648379 10.319816151 29.761199925     0.110748450  0.110115673  0.033607882


 FORCES acting on ions
    electron-ion (+dipol)            ewald-force                    non-local-force                 convergence-correction
 -----------------------------------------------------------------------------------------------
   0.176E+01 0.976E+00 0.842E+03   -.171E+01 -.891E+00 -.848E+03   -.320E+00 -.352E+00 0.469E+01   -.714E-03 0.122E-02 -.609E-04
   0.230E+01 0.717E+00 0.843E+03   -.229E+01 -.661E+00 -.848E+03   -.357E+00 -.135E+00 0.518E+01   -.607E-03 -.137E-02 0.179E-03
   -.213E+01 0.483E+01 0.843E+03   0.215E+01 -.477E+01 -.848E+03   0.169E-01 -.411E+00 0.495E+01   -.802E-03 -.923E-03 -.159E-02
   -.304E+01 -.823E+00 0.843E+03   0.307E+01 0.879E+00 -.849E+03   -.127E+00 0.295E-01 0.459E+01   0.551E-04 0.168E-02 -.859E-03
   -.383E+00 0.159E+01 0.840E+03   0.417E+00 -.155E+01 -.845E+03   -.273E+00 -.252E+00 0.469E+01   0.684E-03 -.574E-03 0.525E-04
   0.495E+00 0.180E+00 0.839E+03   -.443E+00 -.160E+00 -.845E+03   -.259E+00 -.169E-01 0.464E+01   0.601E-04 -.674E-03 -.205E-02
   0.138E+00 -.519E+00 0.839E+03   -.113E+00 0.576E+00 -.845E+03   -.225E+00 -.963E-01 0.485E+01   0.666E-03 0.196E-02 -.964E-05
   -.221E+01 0.225E+01 0.839E+03   0.224E+01 -.223E+01 -.845E+03   -.168E+00 -.110E+00 0.514E+01   -.316E-04 -.349E-03 0.577E-03
   -.938E-01 0.376E+00 0.845E+03   0.613E-01 -.317E+00 -.850E+03   -.954E-01 -.921E-01 0.474E+01   0.614E-03 -.987E-03 -.112E-02
   -.108E+01 0.399E+01 -.905E+02   0.105E+01 -.393E+01 0.852E+02   0.125E+00 -.317E+00 0.510E+01   0.431E-03 -.117E-02 -.902E-04
   0.277E+01 0.158E+01 -.896E+02   -.276E+01 -.160E+01 0.843E+02   -.362E+00 -.250E+00 0.487E+01   -.301E-03 0.742E-03 -.761E-03
   -.221E+01 0.125E+01 -.908E+02   0.223E+01 -.119E+01 0.854E+02   0.139E+00 -.308E+00 0.495E+01   -.890E-03 0.119E-03 0.681E-03
   0.107E+01 0.239E+01 -.899E+02   -.106E+01 -.239E+01 0.846E+02   -.388E+00 -.332E-01 0.510E+01   -.127E-03 -.245E-04 -.164E-03
   -.274E+01 -.470E+00 -.884E+02   0.278E+01 0.399E+00 0.831E+02   0.302E-01 0.205E+00 0.490E+01   0.176E-03 0.310E-04 -.446E-03
   0.157E+00 -.344E+00 -.882E+02   -.160E+00 0.353E+00 0.828E+02   -.958E-01 -.403E-01 0.512E+01   0.229E-03 0.110E-03 0.185E-05
   -.211E+01 0.407E+00 -.926E+02   0.218E+01 -.393E+00 0.871E+02   0.961E-01 0.265E-01 0.516E+01   -.334E-03 -.629E-03 -.418E-03
   -.727E+00 0.341E+00 -.878E+02   0.771E+00 -.323E+00 0.825E+02   -.274E+00 -.627E-01 0.509E+01   0.138E-03 0.424E-03 -.326E-03
   -.141E+01 0.107E+01 -.883E+02   0.139E+01 -.103E+01 0.829E+02   0.982E-01 -.202E+00 0.473E+01   0.598E-03 0.399E-03 0.623E-03
   0.246E+01 0.976E+00 0.889E+02   -.260E+01 -.925E+00 -.836E+02   0.126E+00 -.192E+00 -.507E+01   -.706E-03 0.120E-02 -.625E-03
   -.167E+01 0.598E+00 0.894E+02   0.158E+01 -.529E+00 -.840E+02   0.409E+00 -.833E-01 -.481E+01   -.535E-03 -.130E-02 -.815E-03
   -.359E+01 0.201E+01 0.880E+02   0.350E+01 -.195E+01 -.826E+02   0.541E+00 -.838E-01 -.493E+01   -.698E-03 -.939E-03 0.990E-03
   -.456E+01 0.900E+00 0.874E+02   0.448E+01 -.875E+00 -.821E+02   0.533E+00 -.546E-01 -.470E+01   0.936E-04 0.163E-02 0.330E-03
   0.211E+00 -.207E+01 0.900E+02   -.350E+00 0.221E+01 -.846E+02   0.258E+00 -.570E-02 -.502E+01   0.648E-03 -.461E-03 -.520E-03
   -.257E+01 0.140E+01 0.904E+02   0.254E+01 -.139E+01 -.850E+02   0.410E+00 -.114E+00 -.528E+01   0.138E-03 -.628E-03 0.157E-02
   -.249E+01 0.114E+01 0.896E+02   0.240E+01 -.111E+01 -.842E+02   0.457E+00 -.146E+00 -.515E+01   0.586E-03 0.183E-02 -.494E-03
   -.281E+01 0.255E+01 0.880E+02   0.270E+01 -.247E+01 -.826E+02   0.453E+00 -.277E+00 -.495E+01   -.689E-04 -.293E-03 -.102E-02
   0.107E+01 -.555E+00 0.900E+02   -.127E+01 0.652E+00 -.846E+02   0.373E+00 -.131E+00 -.463E+01   0.584E-03 -.100E-02 0.587E-03
   -.262E+01 0.402E+01 -.843E+03   0.245E+01 -.399E+01 0.848E+03   0.653E+00 -.189E+00 -.485E+01   0.526E-03 -.127E-02 0.882E-03
   -.965E+00 0.129E+00 -.844E+03   0.865E+00 -.880E-01 0.850E+03   0.424E+00 -.173E+00 -.488E+01   -.274E-03 0.835E-03 0.147E-02
   -.626E+00 0.328E+00 -.839E+03   0.468E+00 -.296E+00 0.845E+03   0.411E+00 -.552E-01 -.480E+01   -.788E-03 0.125E-03 0.711E-04
   -.117E+01 0.291E+01 -.840E+03   0.107E+01 -.290E+01 0.845E+03   0.391E+00 -.428E-01 -.487E+01   -.127E-03 -.112E-03 0.920E-03
   -.110E+01 -.119E+01 -.843E+03   0.981E+00 0.120E+01 0.848E+03   0.285E+00 0.159E+00 -.488E+01   0.240E-03 0.119E-03 0.118E-02
   -.152E-01 0.110E+01 -.838E+03   -.144E+00 -.109E+01 0.843E+03   0.380E+00 -.192E+00 -.490E+01   0.263E-03 0.183E-03 0.783E-03
   -.173E+01 0.395E+00 -.840E+03   0.160E+01 -.357E+00 0.845E+03   0.505E+00 0.206E-01 -.514E+01   -.325E-03 -.706E-03 0.121E-02
   -.209E+01 -.224E+01 -.841E+03   0.199E+01 0.228E+01 0.847E+03   0.385E+00 0.239E+00 -.461E+01   0.119E-03 0.429E-03 0.983E-03
   -.559E+01 0.171E+01 -.842E+03   0.550E+01 -.168E+01 0.848E+03   0.850E+00 -.215E+00 -.485E+01   0.531E-03 0.367E-03 0.227E-03
   0.321E+01 -.319E+01 0.469E+03   -.332E+01 0.340E+01 -.469E+03   -.159E+00 0.216E+00 0.457E-01   -.435E-03 0.273E-03 -.232E-03
   0.430E+01 -.217E+01 0.465E+03   -.440E+01 0.229E+01 -.465E+03   -.199E-01 0.410E-01 -.269E-01   -.259E-03 0.699E-03 -.276E-03
   -.344E-02 -.599E+00 0.461E+03   -.527E-01 0.702E+00 -.461E+03   -.242E-01 0.177E+00 -.651E+00   -.641E-03 -.175E-02 -.328E-03
   -.404E+00 0.304E+01 0.467E+03   0.254E+00 -.309E+01 -.467E+03   0.151E+00 -.286E+00 0.161E+00   -.326E-03 0.363E-03 -.210E-03
   0.252E+01 -.457E+01 0.468E+03   -.259E+01 0.470E+01 -.468E+03   0.638E-01 0.312E+00 0.474E-01   -.321E-03 0.108E-02 -.279E-03
   0.325E+01 -.224E+01 0.464E+03   -.335E+01 0.230E+01 -.464E+03   -.143E+00 0.632E-02 0.142E+00   0.472E-04 -.179E-02 -.180E-03
   0.369E+01 -.345E+01 0.469E+03   -.380E+01 0.355E+01 -.469E+03   -.205E+00 0.344E+00 0.346E+00   0.836E-03 0.662E-03 -.115E-03
   -.115E+01 -.316E+01 0.461E+03   0.108E+01 0.330E+01 -.461E+03   -.490E-01 0.216E+00 -.268E+00   0.605E-03 0.171E-02 -.335E-03
   0.793E+00 -.263E+00 0.463E+03   -.814E+00 0.368E+00 -.463E+03   0.481E-01 -.789E-01 -.220E+00   0.598E-03 -.127E-02 -.245E-03
   0.112E+01 0.301E+01 -.467E+03   -.126E+01 -.305E+01 0.467E+03   0.507E-01 -.491E+00 -.102E+00   0.228E-03 -.570E-03 0.334E-03
   0.144E+01 -.412E+01 -.464E+03   -.143E+01 0.419E+01 0.464E+03   0.983E-01 0.188E+00 0.358E+00   0.111E-03 0.531E-03 0.416E-03
   0.248E+01 -.157E+01 -.462E+03   -.260E+01 0.164E+01 0.462E+03   -.838E-01 0.211E-01 0.433E-01   -.506E-03 -.119E-03 0.467E-03
   0.150E+00 0.658E+00 -.464E+03   -.232E+00 -.636E+00 0.464E+03   0.809E-01 -.185E+00 0.685E-01   -.222E-03 -.118E-03 0.358E-03
   0.818E+00 -.257E+01 -.464E+03   -.906E+00 0.260E+01 0.464E+03   -.185E+00 0.352E-01 0.677E-01   0.403E-03 0.685E-03 0.384E-03
   0.344E+01 -.379E+01 -.461E+03   -.364E+01 0.394E+01 0.461E+03   -.480E+00 0.857E-01 0.237E+00   0.413E-03 -.234E-03 0.435E-03
   0.580E+01 -.427E+00 -.471E+03   -.603E+01 0.593E+00 0.471E+03   -.596E+00 -.246E-01 -.164E+00   0.154E-04 -.684E-03 0.303E-03
   0.205E+01 -.243E+01 -.467E+03   -.215E+01 0.248E+01 0.467E+03   0.121E-01 0.109E+00 -.125E+00   -.557E-03 0.101E-02 0.362E-03
   0.205E+01 -.305E+01 -.465E+03   -.232E+01 0.325E+01 0.465E+03   -.207E+00 0.223E+00 0.272E+00   0.984E-04 -.554E-03 0.392E-03
 -----------------------------------------------------------------------------------------------
   -.376E+01 0.304E+01 -.390E+00   0.573E-13 -.124E-13 0.284E-12   0.376E+01 -.304E+01 0.383E+00   0.141E-03 -.937E-04 0.320E-02
 
 
 POSITION                                       TOTAL-FORCE (eV/Angst)
 -----------------------------------------------------------------------------------
     -0.13952      2.02269      9.30113        -0.265561     -0.259452     -0.558049
     -1.76400      5.03832      9.27043        -0.327462     -0.079486     -0.021742
     -3.43700      8.06334      9.28166         0.030609     -0.344306     -0.255534
      3.27745      1.99551      9.30694        -0.090808      0.080712     -0.658500
      1.66148      5.04118      9.32124        -0.221188     -0.205250     -0.610704
     -0.00855      8.04936      9.31781        -0.201851     -0.002041     -0.673864
      6.70096      1.99499      9.31013        -0.188693     -0.040440     -0.430370
      5.07365      5.01704      9.30042        -0.124864     -0.092528     -0.077919
      3.43346      8.03534      9.28358        -0.113866     -0.045296     -0.505976
     -0.03914      1.50855     16.84155         0.097757     -0.255664     -0.281422
     -1.64605      4.52387     16.84780        -0.337369     -0.277478     -0.469226
     -3.31840      7.54405     16.84712         0.149469     -0.258999     -0.474646
      3.40750      1.49109     16.83569        -0.352827     -0.035343     -0.323125
      1.74766      4.49210     16.83925         0.080209      0.114369     -0.465842
      0.12923      7.53375     16.82786        -0.083249     -0.044114     -0.342543
      6.81705      1.48842     16.85365         0.166956      0.032365     -0.309835
      5.20117      4.50563     16.82541        -0.209364     -0.056082     -0.283486
      3.53980      7.52585     16.84308         0.085094     -0.171259     -0.658815
     -0.18459      2.00115     12.91352        -0.002795     -0.133838      0.319109
     -1.82765      5.01921     12.91101         0.318417     -0.016001      0.593025
     -3.50320      8.05710     12.91693         0.432580     -0.017693      0.453618
      3.18522      1.99223     12.90781         0.424758     -0.022728      0.691099
      1.59174      5.00752     12.90480         0.120930      0.129065      0.455507
     -0.07980      8.07059     12.91515         0.363379     -0.086619      0.160483
      6.63487      1.98020     12.91858         0.363413     -0.112894      0.306082
      4.99100      5.03040     12.92449         0.324417     -0.180985      0.515813
      3.37650      8.06086     12.88510         0.177112     -0.028030      0.755329
     -0.08968      1.47527     20.47690         0.480578     -0.160037      0.351300
     -1.71395      4.53045     20.48304         0.321319     -0.126169      0.317378
     -3.35181      7.53332     20.44337         0.252398     -0.029004      0.466758
      3.32913      1.48146     20.45492         0.278805     -0.036942      0.374059
      1.70521      4.50824     20.47018         0.165292      0.162801      0.301099
      0.07911      7.55227     20.43911         0.226766     -0.173190      0.339630
      6.75068      1.46894     20.46813         0.368502      0.050148      0.123772
      5.11849      4.46965     20.44940         0.272292      0.258041      0.574049
      3.44853      7.53319     20.46822         0.735761     -0.184350      0.305418
      5.12810      9.05780     11.08940        -0.292500      0.436490     -0.007326
     -1.86140      3.01708     11.10674        -0.132369      0.147816     -0.028926
      6.76600      6.03083     11.14433        -0.090691      0.288369     -0.912764
      3.15529      0.00968     11.09440         0.052568     -0.375707      0.185298
      1.55421      2.99662     11.09923        -0.030756      0.492602     -0.039900
     -0.07767      6.04150     11.10007        -0.246787      0.074239      0.241094
      1.71910      9.04083     11.07880        -0.349048      0.480124      0.411609
      4.96770      2.99230     11.13188        -0.108696      0.370841     -0.346574
      3.34835      6.04559     11.11917         0.023392     -0.005868     -0.301974
      1.67120      2.52786     18.66136        -0.062178     -0.564107     -0.143307
      0.03690      5.52016     18.63050         0.110007      0.294824      0.559327
     -1.58844      8.55839     18.63656        -0.195992      0.096145      0.003453
      5.09241      2.50426     18.64294         0.027152     -0.187428      0.074834
      3.47058      5.51439     18.64344        -0.286017      0.086253      0.058829
      1.85882      8.54189     18.62902        -0.718913      0.267898      0.210692
     -1.70537      2.51114     18.67683        -0.885163      0.120033     -0.212425
      6.88335      5.50876     18.66021        -0.085617      0.179331     -0.163802
      5.24968      8.53968     18.63559        -0.446487      0.441300      0.405671
 -----------------------------------------------------------------------------------
    total drift:                               -0.001180     -0.005562     -0.004257


--------------------------------------------------------------------------------------------------------



  FREE ENERGIE OF THE ION-ELECTRON SYSTEM (eV)
  ---------------------------------------------------
  free  energy   TOTEN  =      -341.53260992 eV

  energy  without entropy=     -341.53260992  energy(sigma->0) =     -341.53260992
 
 d Force = 0.5015480E-02[ 0.267E-02, 0.736E-02]  d Energy = 0.4950880E-02 0.646E-04
 d Force = 0.1711157E+02[ 0.171E+02, 0.171E+02]  d Ewald  = 0.1711157E+02-0.704E-06


--------------------------------------------------------------------------------------------------------


    POTLOK:  cpu time    0.2523: real time    0.2525


--------------------------------------------------------------------------------------------------------


           RANDOM_SEED =         219150899              324                0
   IONSTEP:  cpu time    0.0001: real time    0.0001

  ENERGY OF THE ELECTRON-ION-THERMOSTAT SYSTEM (eV)
  ---------------------------------------------------
% ion-electron   TOTEN  =      -341.532610  see above
  kinetic energy EKIN   =         0.708114
  kin. lattice  EKIN_LAT=         0.000000  (temperature  103.36 K)
  nose potential ES     =         0.010612
  nose kinetic   EPS    =         0.000284
  ---------------------------------------------------
  total energy   ETOTAL =      -340.813600 eV

  maximum distance moved by ions :      0.48E-03


 mean value of Nose-termostat <S>:     1.010 mean value of <T> :   103.362
 mean temperature <T/S>/<1/S>  :   103.362

    WAVPRE:  cpu time    0.0933: real time    0.0963
    FEWALD:  cpu time    0.0009: real time    0.0009
    ORTHCH:  cpu time    7.5740: real time    7.5873
    POTLOK:  cpu time    0.2513: real time    0.2515
    EDDIAG:  cpu time    2.4066: real time    2.4133
     LOOP+:  cpu time  443.5940: real time  444.6629
    4ORBIT:  cpu time    0.0000: real time    0.0000

 total amount of memory used by VASP MPI-rank0   346377. kBytes
=======================================================================

   base      :      30000. kBytes
   nonl-proj :     187361. kBytes
   fftplans  :      16533. kBytes
   grid      :      78796. kBytes
   one-center:        839. kBytes
   wavefun   :      32848. kBytes
 
  
  
 General timing and accounting informations for this job:
 ========================================================
  
                  Total CPU time used (sec):     5351.167
                            User time (sec):     5338.637
                          System time (sec):       12.530
                         Elapsed time (sec):     5365.659
  
                   Maximum memory used (kb):      774028.
                   Average memory used (kb):           0.
  
                          Minor page faults:       407365
                          Major page faults:            0
                 Voluntary context switches:        14676
