0.000000000000000000e+00 2.032270000000000021e+00 9.231880000000000308e+00 -1.760000000000000009e+00 5.080680000000000085e+00 9.231880000000000308e+00 -3.520000000000000018e+00 8.129089999999999705e+00 9.231880000000000308e+00 3.520000000000000018e+00 2.032270000000000021e+00 9.231880000000000308e+00 1.760000000000000009e+00 5.080680000000000085e+00 9.231880000000000308e+00 0.000000000000000000e+00 8.129089999999999705e+00 9.231880000000000308e+00 7.040000000000000036e+00 2.032270000000000021e+00 9.231880000000000308e+00 5.280000000000000249e+00 5.080680000000000085e+00 9.231880000000000308e+00 3.520000000000000018e+00 8.129089999999999705e+00 9.231880000000000308e+00 1.759999999999999898e-01 2.032270000000000021e+00 1.714736999999999867e+01 -1.584000000000000075e+00 5.080680000000000085e+00 1.714736999999999867e+01 -3.343999999999999861e+00 8.129089999999999705e+00 1.714736999999999867e+01 3.696000000000000174e+00 2.032270000000000021e+00 1.714736999999999867e+01 1.935999999999999943e+00 5.080680000000000085e+00 1.714736999999999867e+01 1.759999999999999898e-01 8.129089999999999705e+00 1.714736999999999867e+01 7.216000000000000192e+00 2.032270000000000021e+00 1.714736999999999867e+01 5.456000000000000405e+00 5.080680000000000085e+00 1.714736999999999867e+01 3.696000000000000174e+00 8.129089999999999705e+00 1.714736999999999867e+01 0.000000000000000000e+00 2.032270000000000021e+00 1.285265000000000057e+01 -1.760000000000000009e+00 5.080680000000000085e+00 1.285265000000000057e+01 -3.520000000000000018e+00 8.129089999999999705e+00 1.285265000000000057e+01 3.520000000000000018e+00 2.032270000000000021e+00 1.285265000000000057e+01 1.760000000000000009e+00 5.080680000000000085e+00 1.285265000000000057e+01 0.000000000000000000e+00 8.129089999999999705e+00 1.285265000000000057e+01 7.040000000000000036e+00 2.032270000000000021e+00 1.285265000000000057e+01 5.280000000000000249e+00 5.080680000000000085e+00 1.285265000000000057e+01 3.520000000000000018e+00 8.129089999999999705e+00 1.285265000000000057e+01 1.759999999999999898e-01 2.032270000000000021e+00 2.076813999999999893e+01 -1.584000000000000075e+00 5.080680000000000085e+00 2.076813999999999893e+01 -3.343999999999999861e+00 8.129089999999999705e+00 2.076813999999999893e+01 3.696000000000000174e+00 2.032270000000000021e+00 2.076813999999999893e+01 1.935999999999999943e+00 5.080680000000000085e+00 2.076813999999999893e+01 1.759999999999999898e-01 8.129089999999999705e+00 2.076813999999999893e+01 7.216000000000000192e+00 2.032270000000000021e+00 2.076813999999999893e+01 5.456000000000000405e+00 5.080680000000000085e+00 2.076813999999999893e+01 3.696000000000000174e+00 8.129089999999999705e+00 2.076813999999999893e+01 0.000000000000000000e+00 0.000000000000000000e+00 1.104202000000000083e+01 -1.760000000000000009e+00 3.048410000000000064e+00 1.104202000000000083e+01 -3.520000000000000018e+00 6.096820000000000128e+00 1.104202000000000083e+01 3.520000000000000018e+00 0.000000000000000000e+00 1.104202000000000083e+01 1.760000000000000009e+00 3.048410000000000064e+00 1.104202000000000083e+01 0.000000000000000000e+00 6.096820000000000128e+00 1.104202000000000083e+01 7.040000000000000036e+00 0.000000000000000000e+00 1.104202000000000083e+01 5.280000000000000249e+00 3.048410000000000064e+00 1.104202000000000083e+01 3.520000000000000018e+00 6.096820000000000128e+00 1.104202000000000083e+01 1.759999999999999898e-01 0.000000000000000000e+00 1.895798999999999879e+01 -1.584000000000000075e+00 3.048410000000000064e+00 1.895798999999999879e+01 -3.343999999999999861e+00 6.096820000000000128e+00 1.895798999999999879e+01 3.696000000000000174e+00 0.000000000000000000e+00 1.895798999999999879e+01 1.935999999999999943e+00 3.048410000000000064e+00 1.895798999999999879e+01 1.759999999999999898e-01 6.096820000000000128e+00 1.895798999999999879e+01 7.216000000000000192e+00 0.000000000000000000e+00 1.895798999999999879e+01 5.456000000000000405e+00 3.048410000000000064e+00 1.895798999999999879e+01 3.696000000000000174e+00 6.096820000000000128e+00 1.895798999999999879e+01
6.099999999999999737e-04 2.029980000000000118e+00 9.230520000000000280e+00 -1.759309999999999929e+00 5.082779999999999632e+00 9.230949999999999989e+00 -3.519390000000000018e+00 8.130100000000000549e+00 9.233129999999999171e+00 3.519210000000000171e+00 2.030219999999999914e+00 9.232599999999999696e+00 1.762320000000000109e+00 5.080750000000000099e+00 9.232229999999999492e+00 -2.259999999999999856e-03 8.127259999999999707e+00 9.230850000000000222e+00 7.040119999999999933e+00 2.034419999999999895e+00 9.231410000000000338e+00 5.281049999999999578e+00 5.082959999999999923e+00 9.231820000000000803e+00 3.522279999999999855e+00 8.127599999999999270e+00 9.229699999999999349e+00 1.753000000000000114e-01 2.032239999999999824e+00 1.715053999999999945e+01 -1.584219999999999962e+00 5.080040000000000333e+00 1.714825000000000088e+01 -3.345429999999999904e+00 8.131230000000000402e+00 1.714741000000000071e+01 3.692860000000000031e+00 2.032750000000000057e+00 1.714557999999999893e+01 1.935740000000000016e+00 5.081310000000000215e+00 1.714693000000000112e+01 1.743500000000000050e-01 8.127079999999999416e+00 1.714919000000000082e+01 7.214299999999999713e+00 2.034710000000000019e+00 1.714799000000000007e+01 5.455259999999999998e+00 5.081459999999999866e+00 1.714731000000000094e+01 3.693849999999999856e+00 8.129519999999999413e+00 1.714741000000000071e+01 2.050000000000000173e-03 2.034089999999999954e+00 1.285255000000000081e+01 -1.762869999999999937e+00 5.080479999999999663e+00 1.285049000000000063e+01 -3.517020000000000035e+00 8.125540000000000873e+00 1.285214999999999996e+01 3.520309999999999828e+00 2.030720000000000081e+00 1.285293000000000063e+01 1.761179999999999968e+00 5.081089999999999662e+00 1.285322999999999993e+01 -7.799999999999999859e-04 8.126239999999999242e+00 1.285533999999999999e+01 7.040390000000000370e+00 2.031940000000000079e+00 1.285241000000000078e+01 5.277619999999999756e+00 5.079939999999999678e+00 1.284911999999999921e+01 3.520249999999999879e+00 8.128539999999999210e+00 1.285069000000000017e+01 1.746199999999999974e-01 2.032480000000000064e+00 2.077154000000000167e+01 -1.585890000000000022e+00 5.078769999999999563e+00 2.076860999999999891e+01 -3.340800000000000214e+00 8.131069999999999354e+00 2.076833999999999847e+01 3.694199999999999928e+00 2.032369999999999788e+00 2.076698000000000022e+01 1.941179999999999906e+00 5.080919999999999881e+00 2.077058999999999855e+01 1.766000000000000070e-01 8.131180000000000518e+00 2.076732000000000156e+01 7.216109999999999580e+00 2.033749999999999947e+00 2.076904000000000039e+01 5.455110000000000348e+00 5.080530000000000435e+00 2.076826000000000150e+01 3.696279999999999788e+00 8.130570000000000519e+00 2.076660000000000039e+01 5.279329999999999856e+00 9.139519999999999200e+00 1.104623999999999917e+01 -1.757060000000000066e+00 3.045970000000000066e+00 1.104376000000000069e+01 -3.520039999999999836e+00 6.097559999999999647e+00 1.104044000000000025e+01 -1.761679999999999913e+00 9.144579999999999487e+00 1.104391999999999996e+01 1.759050000000000002e+00 3.047149999999999803e+00 1.104071000000000069e+01 3.200000000000000153e-03 6.097400000000000375e+00 1.104191999999999929e+01 7.039410000000000167e+00 1.369999999999999907e-03 1.104222000000000037e+01 5.278319999999999901e+00 3.049869999999999859e+00 1.104213000000000022e+01 3.518699999999999939e+00 6.097480000000000011e+00 1.104297000000000040e+01 -5.103049999999999642e+00 9.144450000000000855e+00 1.895816999999999908e+01 -1.585900000000000087e+00 3.048179999999999890e+00 1.895898000000000039e+01 -3.339679999999999982e+00 6.096910000000000274e+00 1.895727000000000118e+01 -1.582440000000000069e+00 9.144090000000000273e+00 1.895601999999999876e+01 1.934609999999999941e+00 3.047410000000000174e+00 1.895651000000000153e+01 1.740400000000000003e-01 6.098429999999999573e+00 1.895757000000000048e+01 7.217749999999999666e+00 1.110000000000000092e-03 1.895730000000000004e+01 5.455940000000000012e+00 3.049609999999999932e+00 1.895889000000000024e+01 3.697280000000000122e+00 6.098429999999999573e+00 1.895548000000000144e+01
1.219999999999999947e-03 2.027680000000000149e+00 9.229160000000000252e+00 -1.758610000000000007e+00 5.084869999999999557e+00 9.230019999999999669e+00 -3.518780000000000019e+00 8.131109999999999616e+00 9.234379999999999811e+00 3.518419999999999881e+00 2.028179999999999872e+00 9.233309999999999462e+00 1.764629999999999921e+00 5.080809999999999604e+00 9.232580000000000453e+00 -4.519999999999999712e-03 8.125439999999999330e+00 9.229839999999999378e+00 7.040250000000000341e+00 2.036560000000000148e+00 9.230940000000000367e+00 5.282099999999999795e+00 5.085239999999999760e+00 9.231749999999999901e+00 3.524550000000000072e+00 8.126110000000000610e+00 9.227539999999999409e+00 1.745899999999999952e-01 2.032200000000000006e+00 1.715371000000000024e+01 -1.584430000000000005e+00 5.079399999999999693e+00 1.714912999999999954e+01 -3.346859999999999946e+00 8.133359999999999701e+00 1.714744999999999919e+01 3.689729999999999954e+00 2.033230000000000093e+00 1.714379999999999882e+01 1.935489999999999933e+00 5.081929999999999836e+00 1.714648000000000039e+01 1.726999999999999924e-01 8.125069999999999126e+00 1.715099999999999980e+01 7.212600000000000122e+00 2.037139999999999951e+00 1.714861000000000146e+01 5.454530000000000101e+00 5.082239999999999647e+00 1.714724000000000004e+01 3.691710000000000047e+00 8.129960000000000520e+00 1.714744999999999919e+01 4.109999999999999938e-03 2.035899999999999821e+00 1.285247000000000028e+01 -1.765730000000000022e+00 5.080280000000000129e+00 1.284834000000000032e+01 -3.514060000000000183e+00 8.121999999999999886e+00 1.285167999999999999e+01 3.520620000000000083e+00 2.029170000000000140e+00 1.285322999999999993e+01 1.762350000000000083e+00 5.081500000000000128e+00 1.285380999999999929e+01 -1.559999999999999972e-03 8.123400000000000176e+00 1.285802999999999940e+01 7.040770000000000195e+00 2.031600000000000072e+00 1.285218000000000060e+01 5.275249999999999773e+00 5.079200000000000159e+00 1.284561000000000064e+01 3.520490000000000119e+00 8.127980000000000871e+00 1.284876000000000040e+01 1.732400000000000051e-01 2.032680000000000042e+00 2.077494000000000085e+01 -1.587779999999999969e+00 5.076859999999999928e+00 2.076908999999999850e+01 -3.337610000000000188e+00 8.133039999999999381e+00 2.076854000000000156e+01 3.692410000000000192e+00 2.032459999999999933e+00 2.076580999999999833e+01 1.946350000000000025e+00 5.081159999999999677e+00 2.077301999999999893e+01 1.772100000000000064e-01 8.133259999999999934e+00 2.076650000000000063e+01 7.216210000000000235e+00 2.035229999999999873e+00 2.076992999999999867e+01 5.454220000000000290e+00 5.080390000000000406e+00 2.076837000000000089e+01 3.696549999999999780e+00 8.132039999999999935e+00 2.076505999999999830e+01 5.278669999999999973e+00 9.133839999999999293e+00 1.105042000000000080e+01 -1.754129999999999967e+00 3.043550000000000200e+00 1.104546000000000028e+01 -3.520080000000000098e+00 6.098300000000000054e+00 1.103886999999999929e+01 -1.763349999999999973e+00 9.143929999999999225e+00 1.104580999999999946e+01 1.758099999999999996e+00 3.045910000000000117e+00 1.103941000000000017e+01 6.380000000000000254e-03 6.097979999999999734e+00 1.104181999999999952e+01 7.038809999999999789e+00 2.720000000000000195e-03 1.104240000000000066e+01 5.276640000000000441e+00 3.051309999999999967e+00 1.104222999999999999e+01 3.517409999999999926e+00 6.098139999999999894e+00 1.104390000000000072e+01 -5.102100000000000080e+00 9.143670000000000186e+00 1.895834999999999937e+01 -1.587790000000000035e+00 3.047959999999999781e+00 1.895998000000000161e+01 -3.335399999999999920e+00 6.097000000000000419e+00 1.895655999999999963e+01 -1.580889999999999906e+00 9.142960000000000420e+00 1.895404999999999873e+01 1.933230000000000004e+00 3.046429999999999971e+00 1.895504000000000033e+01 1.720899999999999930e-01 6.100019999999999776e+00 1.895715999999999823e+01 7.219490000000000407e+00 2.230000000000000211e-03 1.895662000000000091e+01 5.455869999999999997e+00 3.050800000000000178e+00 1.895977999999999852e+01 3.698550000000000004e+00 6.100039999999999907e+00 1.895298000000000016e+01
1.820000000000000003e-03 2.025360000000000049e+00 9.227830000000000865e+00 -1.757900000000000018e+00 5.086949999999999861e+00 9.229110000000000369e+00 -3.518180000000000085e+00 8.132120000000000459e+00 9.235620000000000829e+00 3.517640000000000100e+00 2.026139999999999830e+00 9.234030000000000626e+00 1.766929999999999890e+00 5.080879999999999619e+00 9.232929999999999637e+00 -6.769999999999999976e-03 8.123630000000000351e+00 9.228830000000000311e+00 7.040379999999999860e+00 2.038699999999999957e+00 9.230480000000000018e+00 5.283140000000000391e+00 5.087509999999999977e+00 9.231690000000000396e+00 3.526800000000000157e+00 8.124629999999999797e+00 9.225390000000000867e+00 1.738800000000000068e-01 2.032160000000000188e+00 1.715684999999999860e+01 -1.584629999999999983e+00 5.078759999999999941e+00 1.714997999999999934e+01 -3.348279999999999923e+00 8.135479999999999379e+00 1.714746999999999844e+01 3.686620000000000008e+00 2.033710000000000129e+00 1.714201999999999870e+01 1.935230000000000006e+00 5.082559999999999967e+00 1.714603999999999928e+01 1.710800000000000098e-01 8.123070000000000235e+00 1.715277999999999992e+01 7.210899999999999643e+00 2.039569999999999883e+00 1.714921999999999969e+01 5.453820000000000334e+00 5.083020000000000316e+00 1.714716999999999913e+01 3.689579999999999860e+00 8.130399999999999849e+00 1.714746999999999844e+01 6.159999999999999677e-03 2.037690000000000001e+00 1.285239999999999938e+01 -1.768569999999999975e+00 5.080079999999999707e+00 1.284619999999999962e+01 -3.511099999999999888e+00 8.118460000000000676e+00 1.285122999999999927e+01 3.520910000000000206e+00 2.027639999999999887e+00 1.285351999999999961e+01 1.763509999999999911e+00 5.081889999999999574e+00 1.285440000000000005e+01 -2.340000000000000066e-03 8.120570000000000732e+00 1.286072000000000060e+01 7.041150000000000020e+00 2.031280000000000197e+00 1.285195000000000043e+01 5.272879999999999789e+00 5.078470000000000262e+00 1.284211999999999954e+01 3.520709999999999784e+00 8.127430000000000376e+00 1.284684999999999988e+01 1.718699999999999950e-01 2.032890000000000086e+00 2.077831000000000117e+01 -1.589650000000000007e+00 5.074959999999999916e+00 2.076957000000000164e+01 -3.334429999999999783e+00 8.134990000000000165e+00 2.076873000000000147e+01 3.690620000000000012e+00 2.032550000000000079e+00 2.076463999999999999e+01 1.951489999999999947e+00 5.081400000000000361e+00 2.077542000000000044e+01 1.778200000000000058e-01 8.135329999999999728e+00 2.076568999999999932e+01 7.216300000000000381e+00 2.036700000000000177e+00 2.077083000000000013e+01 5.453350000000000364e+00 5.080269999999999619e+00 2.076848000000000027e+01 3.696829999999999838e+00 8.133499999999999730e+00 2.076353999999999900e+01 5.278039999999999843e+00 9.128230000000000288e+00 1.105455000000000076e+01 -1.751230000000000064e+00 3.041160000000000085e+00 1.104712999999999923e+01 -3.520119999999999916e+00 6.099020000000000330e+00 1.103729000000000049e+01 -1.764979999999999993e+00 9.143269999999999342e+00 1.104767999999999972e+01 1.757169999999999899e+00 3.044669999999999987e+00 1.103811999999999927e+01 9.530000000000000276e-03 6.098539999999999850e+00 1.104172999999999938e+01 7.038210000000000299e+00 4.049999999999999781e-03 1.104255000000000031e+01 5.274989999999999846e+00 3.052729999999999944e+00 1.104231000000000051e+01 3.516129999999999978e+00 6.098790000000000155e+00 1.104479000000000077e+01 -5.101160000000000139e+00 9.142910000000000537e+00 1.895855999999999852e+01 -1.589660000000000073e+00 3.047740000000000116e+00 1.896096999999999966e+01 -3.331170000000000186e+00 6.097109999999999808e+00 1.895586000000000126e+01 -1.579350000000000032e+00 9.141870000000000829e+00 1.895211000000000112e+01 1.931840000000000002e+00 3.045469999999999899e+00 1.895362000000000080e+01 1.701799999999999979e-01 6.101569999999999716e+00 1.895680000000000121e+01 7.221189999999999998e+00 3.360000000000000139e-03 1.895593999999999824e+01 5.455779999999999852e+00 3.051979999999999915e+00 1.896065000000000111e+01 3.699809999999999821e+00 6.101639999999999731e+00 1.895052000000000092e+01
2.409999999999999816e-03 2.023029999999999884e+00 9.226509999999999323e+00 -1.757179999999999964e+00 5.088989999999999903e+00 9.228220000000000312e+00 -3.517580000000000151e+00 8.133129999999999526e+00 9.236850000000000449e+00 3.516859999999999875e+00 2.024109999999999854e+00 9.234730000000000771e+00 1.769230000000000080e+00 5.080930000000000391e+00 9.233259999999999579e+00 -8.999999999999999320e-03 8.121840000000000614e+00 9.227840000000000487e+00 7.040510000000000268e+00 2.040830000000000144e+00 9.230040000000000688e+00 5.284159999999999968e+00 5.089769999999999683e+00 9.231609999999999872e+00 3.529030000000000111e+00 8.123160000000000380e+00 9.223259999999999792e+00 1.731600000000000084e-01 2.032119999999999926e+00 1.715996000000000166e+01 -1.584829999999999961e+00 5.078120000000000189e+00 1.715081999999999951e+01 -3.349680000000000213e+00 8.137579999999999814e+00 1.714748000000000161e+01 3.683539999999999814e+00 2.034180000000000099e+00 1.714025000000000176e+01 1.934960000000000013e+00 5.083179999999999588e+00 1.714561000000000135e+01 1.694700000000000095e-01 8.121090000000000586e+00 1.715453000000000117e+01 7.209209999999999674e+00 2.041990000000000194e+00 1.714981999999999829e+01 5.453129999999999811e+00 5.083800000000000097e+00 1.714708999999999861e+01 3.687479999999999869e+00 8.130850000000000577e+00 1.714746999999999844e+01 8.200000000000000691e-03 2.039439999999999920e+00 1.285234999999999950e+01 -1.771379999999999955e+00 5.079869999999999663e+00 1.284407000000000032e+01 -3.508169999999999789e+00 8.114919999999999689e+00 1.285080999999999918e+01 3.521199999999999886e+00 2.026110000000000078e+00 1.285382000000000069e+01 1.764669999999999961e+00 5.082279999999999909e+00 1.285499000000000080e+01 -3.099999999999999891e-03 8.117760000000000531e+00 1.286337999999999937e+01 7.041509999999999714e+00 2.030949999999999811e+00 1.285172999999999988e+01 5.270539999999999559e+00 5.077749999999999986e+00 1.283867000000000047e+01 3.520900000000000141e+00 8.126870000000000260e+00 1.284500000000000064e+01 1.705099999999999949e-01 2.033090000000000064e+00 2.078165999999999869e+01 -1.591490000000000071e+00 5.073080000000000034e+00 2.077006000000000085e+01 -3.331249999999999822e+00 8.136929999999999552e+00 2.076892000000000138e+01 3.688839999999999897e+00 2.032630000000000159e+00 2.076347000000000165e+01 1.956590000000000051e+00 5.081640000000000157e+00 2.077777000000000029e+01 1.784300000000000053e-01 8.137399999999999523e+00 2.076489000000000118e+01 7.216380000000000017e+00 2.038159999999999972e+00 2.077173000000000158e+01 5.452490000000000059e+00 5.080160000000000231e+00 2.076857000000000042e+01 3.697119999999999962e+00 8.134959999999999525e+00 2.076202999999999932e+01 5.277440000000000353e+00 9.122719999999999274e+00 1.105859000000000059e+01 -1.748369999999999980e+00 3.038800000000000168e+00 1.104871999999999943e+01 -3.520160000000000178e+00 6.099730000000000096e+00 1.103571999999999953e+01 -1.766569999999999974e+00 9.142590000000000217e+00 1.104953000000000074e+01 1.756269999999999998e+00 3.043449999999999989e+00 1.103684999999999938e+01 1.263000000000000060e-02 6.099079999999999835e+00 1.104163999999999923e+01 7.037600000000000300e+00 5.340000000000000129e-03 1.104266999999999932e+01 5.273360000000000269e+00 3.054110000000000102e+00 1.104236000000000040e+01 3.514860000000000095e+00 6.099440000000000417e+00 1.104564000000000057e+01 -5.100240000000000329e+00 9.142160000000000508e+00 1.895878000000000085e+01 -1.591509999999999980e+00 3.047520000000000007e+00 1.896197000000000088e+01 -3.327030000000000154e+00 6.097229999999999706e+00 1.895517999999999859e+01 -1.577849999999999975e+00 9.140829999999999345e+00 1.895018999999999920e+01 1.930460000000000065e+00 3.044540000000000024e+00 1.895225999999999900e+01 1.683199999999999974e-01 6.103060000000000151e+00 1.895651000000000153e+01 7.222850000000000215e+00 4.490000000000000067e-03 1.895526999999999873e+01 5.455650000000000333e+00 3.053139999999999965e+00 1.896150000000000091e+01 3.701060000000000016e+00 6.103220000000000312e+00 1.894810000000000016e+01
3.000000000000000062e-03 2.020669999999999966e+00 9.225239999999999441e+00 -1.756440000000000001e+00 5.091000000000000192e+00 9.227349999999999497e+00 -3.516999999999999904e+00 8.134130000000000749e+00 9.238060000000000827e+00 3.516090000000000160e+00 2.022089999999999943e+00 9.235429999999999140e+00 1.771509999999999918e+00 5.080980000000000274e+00 9.233570000000000277e+00 -1.120999999999999948e-02 8.120079999999999742e+00 9.226879999999999526e+00 7.040639999999999787e+00 2.042959999999999887e+00 9.229609999999999204e+00 5.285160000000000302e+00 5.092010000000000147e+00 9.231519999999999726e+00 3.531229999999999869e+00 8.121719999999999828e+00 9.221159999999999357e+00 1.724100000000000077e-01 2.032070000000000043e+00 1.716302999999999912e+01 -1.585010000000000030e+00 5.077460000000000306e+00 1.715162000000000120e+01 -3.351069999999999993e+00 8.139649999999999608e+00 1.714746999999999844e+01 3.680499999999999883e+00 2.034660000000000135e+00 1.713849000000000089e+01 1.934679999999999955e+00 5.083809999999999718e+00 1.714517999999999986e+01 1.678999999999999937e-01 8.119139999999999802e+00 1.715624000000000038e+01 7.207519999999999705e+00 2.044389999999999930e+00 1.715040000000000120e+01 5.452469999999999928e+00 5.084590000000000387e+00 1.714701000000000164e+01 3.685410000000000075e+00 8.131309999999999150e+00 1.714743999999999957e+01 1.025000000000000043e-02 2.041150000000000020e+00 1.285232000000000063e+01 -1.774159999999999959e+00 5.079670000000000130e+00 1.284193999999999924e+01 -3.505269999999999886e+00 8.111390000000000100e+00 1.285045000000000037e+01 3.521469999999999878e+00 2.024610000000000021e+00 1.285411999999999999e+01 1.765810000000000102e+00 5.082639999999999603e+00 1.285558999999999941e+01 -3.840000000000000097e-03 8.114979999999999194e+00 1.286602000000000068e+01 7.041870000000000296e+00 2.030640000000000001e+00 1.285150999999999932e+01 5.268209999999999837e+00 5.077049999999999841e+00 1.283526999999999951e+01 3.521069999999999922e+00 8.126319999999999766e+00 1.284319999999999951e+01 1.691600000000000048e-01 2.033290000000000042e+00 2.078497000000000128e+01 -1.593310000000000004e+00 5.071220000000000283e+00 2.077056999999999931e+01 -3.328079999999999927e+00 8.138849999999999696e+00 2.076910000000000167e+01 3.687069999999999848e+00 2.032700000000000173e+00 2.076229999999999976e+01 1.961640000000000050e+00 5.081900000000000084e+00 2.078006999999999849e+01 1.790599999999999969e-01 8.139450000000000074e+00 2.076408999999999949e+01 7.216440000000000410e+00 2.039600000000000080e+00 2.077263999999999911e+01 5.451660000000000394e+00 5.080079999999999707e+00 2.076865000000000094e+01 3.697410000000000085e+00 8.136400000000000077e+00 2.076052999999999926e+01 5.276889999999999858e+00 9.117330000000000823e+00 1.106253000000000064e+01 -1.745570000000000066e+00 3.036500000000000199e+00 1.105023000000000089e+01 -3.520199999999999996e+00 6.100419999999999732e+00 1.103415000000000035e+01 -1.768089999999999939e+00 9.141880000000000450e+00 1.105134999999999934e+01 1.755409999999999915e+00 3.042260000000000186e+00 1.103561000000000014e+01 1.566999999999999990e-02 6.099599999999999689e+00 1.104155000000000086e+01 7.036979999999999791e+00 6.570000000000000319e-03 1.104274000000000022e+01 5.271770000000000067e+00 3.055439999999999934e+00 1.104237999999999964e+01 3.513609999999999900e+00 6.100080000000000169e+00 1.104641999999999946e+01 -5.099339999999999762e+00 9.141439999999999344e+00 1.895904000000000167e+01 -1.593310000000000004e+00 3.047320000000000029e+00 1.896298000000000172e+01 -3.322999999999999954e+00 6.097369999999999735e+00 1.895454000000000150e+01 -1.576379999999999892e+00 9.139849999999999142e+00 1.894829999999999970e+01 1.929089999999999971e+00 3.043670000000000098e+00 1.895098000000000127e+01 1.665300000000000114e-01 6.104470000000000063e+00 1.895629999999999882e+01 7.224450000000000038e+00 5.649999999999999641e-03 1.895460999999999885e+01 5.455490000000000173e+00 3.054269999999999818e+00 1.896231999999999829e+01 3.702290000000000081e+00 6.104790000000000383e+00 1.894575999999999993e+01
3.579999999999999849e-03 2.018279999999999852e+00 9.224000000000000199e+00 -1.755679999999999907e+00 5.092970000000000219e+00 9.226520000000000721e+00 -3.516439999999999788e+00 8.135130000000000194e+00 9.239250000000000185e+00 3.515320000000000000e+00 2.020080000000000098e+00 9.236119999999999663e+00 1.773770000000000069e+00 5.081019999999999648e+00 9.233869999999999578e+00 -1.339000000000000086e-02 8.118349999999999511e+00 9.225939999999999586e+00 7.040779999999999816e+00 2.045069999999999943e+00 9.229210000000000136e+00 5.286139999999999617e+00 5.094240000000000101e+00 9.231429999999999580e+00 3.533389999999999809e+00 8.120290000000000674e+00 9.219110000000000582e+00 1.716499999999999970e-01 2.032010000000000094e+00 1.716606000000000165e+01 -1.585180000000000033e+00 5.076810000000000045e+00 1.715239000000000047e+01 -3.352440000000000087e+00 8.141690000000000538e+00 1.714743999999999957e+01 3.677490000000000148e+00 2.035130000000000106e+00 1.713674999999999926e+01 1.934379999999999988e+00 5.084430000000000227e+00 1.714476000000000155e+01 1.663699999999999901e-01 8.117210000000000036e+00 1.715788999999999831e+01 7.205829999999999735e+00 2.046780000000000044e+00 1.715097000000000094e+01 5.451850000000000307e+00 5.085370000000000168e+00 1.714692000000000149e+01 3.683370000000000033e+00 8.131790000000000518e+00 1.714736999999999867e+01 1.229000000000000058e-02 2.042800000000000171e+00 1.285232000000000063e+01 -1.776890000000000081e+00 5.079460000000000086e+00 1.283982999999999919e+01 -3.502400000000000180e+00 8.107870000000000132e+00 1.285014999999999930e+01 3.521729999999999805e+00 2.023120000000000029e+00 1.285443000000000069e+01 1.766939999999999955e+00 5.082970000000000432e+00 1.285618999999999978e+01 -4.570000000000000277e-03 8.112230000000000274e+00 1.286862999999999957e+01 7.042220000000000368e+00 2.030339999999999812e+00 1.285130000000000017e+01 5.265900000000000247e+00 5.076360000000000205e+00 1.283192000000000021e+01 3.521189999999999820e+00 8.125759999999999650e+00 1.284146999999999927e+01 1.678199999999999970e-01 2.033479999999999954e+00 2.078823999999999828e+01 -1.595080000000000053e+00 5.069390000000000285e+00 2.077110000000000056e+01 -3.324920000000000098e+00 8.140729999999999578e+00 2.076926999999999879e+01 3.685319999999999929e+00 2.032760000000000122e+00 2.076111999999999824e+01 1.966630000000000100e+00 5.082160000000000011e+00 2.078228999999999971e+01 1.796899999999999886e-01 8.141500000000000625e+00 2.076330000000000098e+01 7.216490000000000293e+00 2.041030000000000122e+00 2.077355999999999980e+01 5.450859999999999594e+00 5.080040000000000333e+00 2.076869999999999905e+01 3.697719999999999896e+00 8.137819999999999609e+00 2.075904999999999845e+01 5.276399999999999757e+00 9.112080000000000624e+00 1.106631999999999927e+01 -1.742830000000000101e+00 3.034260000000000179e+00 1.105162999999999940e+01 -3.520239999999999814e+00 6.101090000000000124e+00 1.103259000000000079e+01 -1.769530000000000047e+00 9.141149999999999665e+00 1.105314000000000085e+01 1.754590000000000094e+00 3.041110000000000202e+00 1.103439000000000014e+01 1.864000000000000032e-02 6.100089999999999790e+00 1.104147999999999996e+01 7.036349999999999660e+00 7.740000000000000352e-03 1.104274999999999984e+01 5.270220000000000127e+00 3.056709999999999816e+00 1.104236000000000040e+01 3.512389999999999901e+00 6.100719999999999921e+00 1.104712999999999923e+01 -5.098460000000000214e+00 9.140750000000000597e+00 1.895935000000000059e+01 -1.595080000000000053e+00 3.047120000000000051e+00 1.896398999999999901e+01 -3.319119999999999848e+00 6.097529999999999895e+00 1.895392999999999972e+01 -1.574959999999999916e+00 9.138960000000000861e+00 1.894645999999999830e+01 1.927720000000000100e+00 3.042850000000000055e+00 1.894979999999999976e+01 1.648100000000000120e-01 6.105769999999999698e+00 1.895619999999999905e+01 7.225979999999999848e+00 6.819999999999999674e-03 1.895397000000000176e+01 5.455269999999999619e+00 3.055369999999999919e+00 1.896311000000000035e+01 3.703489999999999949e+00 6.106340000000000323e+00 1.894350000000000023e+01