1.450000000000000009e-04 2.099999999999999884e-05 -1.004700000000000037e-02 1.410000000000000120e-04 1.099999999999999971e-05 -1.004200000000000058e-02 1.420000000000000092e-04 1.099999999999999971e-05 -1.004500000000000011e-02 1.269999999999999970e-04 1.599999999999999928e-05 -1.002899999999999972e-02 1.379999999999999933e-04 3.999999999999999819e-06 -1.002199999999999966e-02 1.350000000000000017e-04 6.999999999999999895e-06 -1.002699999999999945e-02 1.160000000000000007e-04 9.999999999999999547e-07 -1.004299999999999984e-02 1.119999999999999983e-04 9.999999999999999547e-07 -1.003800000000000005e-02 1.129999999999999955e-04 -6.000000000000000152e-06 -1.003700000000000078e-02 4.052000000000000046e-03 -4.899999999999999842e-05 -1.082200000000000002e-02 4.054000000000000312e-03 -4.300000000000000165e-05 -1.082200000000000002e-02 4.052000000000000046e-03 -5.000000000000000240e-05 -1.081999999999999976e-02 4.048000000000000383e-03 -5.199999999999999680e-05 -1.082499999999999955e-02 4.048000000000000383e-03 -4.399999999999999886e-05 -1.082100000000000076e-02 4.048000000000000383e-03 -5.300000000000000078e-05 -1.081900000000000049e-02 4.049999999999999781e-03 -5.000000000000000240e-05 -1.082600000000000055e-02 4.048999999999999648e-03 -4.500000000000000283e-05 -1.082499999999999955e-02 4.049999999999999781e-03 -5.099999999999999960e-05 -1.082200000000000002e-02 -4.031999999999999994e-03 -2.500000000000000120e-05 1.085599999999999933e-02 -4.035000000000000392e-03 -2.799999999999999958e-05 1.085400000000000080e-02 -4.035000000000000392e-03 -3.199999999999999855e-05 1.085299999999999980e-02 -4.048999999999999648e-03 -3.100000000000000135e-05 1.083800000000000041e-02 -4.041000000000000321e-03 -3.399999999999999973e-05 1.083399999999999988e-02 -4.041000000000000321e-03 -3.399999999999999973e-05 1.083699999999999941e-02 -4.060000000000000241e-03 -4.500000000000000283e-05 1.085400000000000080e-02 -4.065000000000000037e-03 -3.800000000000000209e-05 1.084800000000000000e-02 -4.065000000000000037e-03 -4.899999999999999842e-05 1.084800000000000000e-02 -1.279999999999999942e-04 -3.999999999999999819e-06 9.990999999999999881e-03 -1.269999999999999970e-04 9.999999999999999547e-07 9.990000000000000616e-03 -1.240000000000000054e-04 -6.999999999999999895e-06 9.990999999999999881e-03 -1.289999999999999914e-04 -1.000000000000000082e-05 9.993999999999999412e-03 -1.330000000000000073e-04 -3.000000000000000076e-06 9.988999999999999616e-03 -1.340000000000000045e-04 -6.999999999999999895e-06 9.988000000000000350e-03 -1.299999999999999886e-04 -5.000000000000000409e-06 9.993000000000000146e-03 -1.269999999999999970e-04 -5.000000000000000409e-06 9.993000000000000146e-03 -1.299999999999999886e-04 -6.000000000000000152e-06 9.991999999999999146e-03 -1.629000000000000023e-03 2.599999999999999840e-05 4.609999999999999840e-04 -1.623000000000000094e-03 3.199999999999999855e-05 4.550000000000000008e-04 -1.626999999999999974e-03 2.900000000000000017e-05 4.539999999999999765e-04 -1.616000000000000032e-03 3.300000000000000253e-05 4.499999999999999877e-04 -1.614999999999999899e-03 4.100000000000000047e-05 4.420000000000000101e-04 -1.613999999999999983e-03 3.199999999999999855e-05 4.510000000000000120e-04 -1.636000000000000084e-03 1.699999999999999987e-05 4.519999999999999821e-04 -1.642999999999999929e-03 2.599999999999999840e-05 4.490000000000000176e-04 -1.639999999999999965e-03 2.300000000000000002e-05 4.479999999999999933e-04 1.585999999999999953e-03 3.199999999999999855e-05 -4.679999999999999915e-04 1.590999999999999966e-03 3.399999999999999973e-05 -4.650000000000000270e-04 1.593999999999999931e-03 3.499999999999999693e-05 -4.650000000000000270e-04 1.588000000000000002e-03 2.699999999999999899e-05 -4.640000000000000027e-04 1.582000000000000073e-03 3.300000000000000253e-05 -4.659999999999999971e-04 1.585000000000000037e-03 3.499999999999999693e-05 -4.659999999999999971e-04 1.585999999999999953e-03 2.699999999999999899e-05 -4.670000000000000214e-04 1.587000000000000086e-03 3.100000000000000135e-05 -4.629999999999999784e-04 1.582000000000000073e-03 3.600000000000000091e-05 -4.679999999999999915e-04
-7.590000000000000392e-03 -2.182600000000000165e-02 2.267299999999999871e-02 1.531800000000000002e-02 -3.150200000000000222e-02 1.587799999999999975e-02 -1.153999999999999991e-02 -3.438000000000000084e-03 -2.200399999999999925e-02 5.475999999999999965e-03 1.007800000000000015e-02 -1.413099999999999946e-02 -1.319000000000000034e-02 -6.394999999999999643e-03 -2.051299999999999998e-02 2.060800000000000132e-02 2.562000000000000041e-02 1.341600000000000084e-02 3.180000000000000101e-03 -8.448999999999999913e-03 9.185999999999999721e-03 -1.882800000000000099e-02 -1.406199999999999985e-02 -1.459900000000000087e-02 -2.889999999999999861e-02 1.680600000000000149e-02 2.194400000000000170e-02 -1.053800000000000049e-02 -4.091000000000000018e-03 -4.189500000000000168e-02 1.296600000000000009e-02 -3.621000000000000087e-03 -3.402800000000000269e-02 1.901699999999999918e-02 -2.342500000000000138e-02 -2.332599999999999951e-02 3.504100000000000270e-02 -1.252000000000000075e-03 4.773999999999999598e-03 -6.085000000000000131e-03 -2.030000000000000012e-04 -1.402999999999999950e-03 2.979300000000000004e-02 2.176600000000000062e-02 -4.603700000000000153e-02 7.205999999999999732e-03 -1.328200000000000040e-02 -2.156699999999999937e-02 2.959099999999999925e-02 1.136000000000000074e-03 -1.197900000000000006e-02 2.980400000000000063e-02 1.004299999999999984e-02 -3.136499999999999705e-02 -7.381000000000000408e-03 -3.905399999999999844e-02 2.663700000000000095e-02 3.006699999999999998e-02 -1.391000000000000092e-03 1.673699999999999841e-02 -2.900200000000000000e-02 8.026000000000000148e-03 4.919699999999999768e-02 -1.496499999999999914e-02 1.618599999999999900e-02 1.076099999999999973e-02 -1.392700000000000014e-02 -1.710800000000000168e-02 1.134699999999999945e-02 1.129999999999999928e-02 2.498500000000000026e-02 -1.430799999999999954e-02 -1.159100000000000061e-02 7.732000000000000157e-03 1.226799999999999939e-02 1.506099999999999973e-02 1.306799999999999976e-02 4.856900000000000106e-02 -3.046700000000000103e-02 5.670000000000000127e-04 5.754299999999999693e-02 9.900000000000000813e-03 -2.464000000000000044e-03 -2.740199999999999927e-02 2.785999999999999935e-02 1.930600000000000024e-02 1.781999999999999904e-02 -1.027100000000000062e-02 -2.117799999999999891e-02 4.000000000000000192e-04 1.106000000000000039e-02 -7.929999999999999549e-03 3.572999999999999787e-03 -4.710299999999999904e-02 6.243000000000000285e-03 -4.671199999999999658e-02 5.974000000000000143e-03 -1.107600000000000078e-02 1.434200000000000058e-02 -1.371299999999999950e-02 -1.379400000000000071e-02 1.060999999999999964e-02 2.230800000000000144e-02 2.338700000000000154e-02 -7.327000000000000179e-03 6.061999999999999680e-03 -1.337900000000000027e-02 2.149699999999999875e-02 2.880599999999999827e-02 8.297100000000000308e-02 -7.294499999999999595e-02 -3.794999999999999762e-02 3.542200000000000210e-02 -5.818899999999999767e-02 -2.155999999999999930e-03 -1.267000000000000071e-02 3.714999999999999986e-03 3.943399999999999683e-02 -1.471899999999999945e-02 -2.012699999999999906e-02 2.201300000000000132e-02 1.706399999999999931e-02 1.799600000000000158e-02 -4.163800000000000140e-02 -1.699499999999999969e-02 4.564000000000000348e-03 -6.723999999999999942e-03 -3.457600000000000257e-02 -3.209700000000000053e-02 2.242099999999999996e-02 -3.218599999999999933e-02 -2.098500000000000018e-02 1.257499999999999937e-02 -4.145000000000000247e-03 -4.104800000000000115e-02 -1.297300000000000016e-02 1.577399999999999983e-02 2.140299999999999842e-02 2.551000000000000142e-02 5.578999999999999758e-03 3.454000000000000039e-03 -7.363599999999999313e-02 1.186700000000000081e-02 1.971099999999999935e-02 -2.272300000000000014e-02 4.197800000000000142e-02 2.274299999999999933e-02 4.845000000000000348e-03 3.112499999999999989e-02 5.296200000000000213e-02 4.453900000000000220e-02 -5.339700000000000002e-02 5.609999999999999709e-02 -3.788400000000000101e-02 8.973000000000000073e-03 8.640000000000000110e-03 -2.571700000000000028e-02 -1.723099999999999979e-02 -2.055699999999999888e-02 -1.168100000000000041e-02 -1.094000000000000007e-02 4.383999999999999703e-02
-1.515099999999999954e-02 -4.259899999999999798e-02 5.428499999999999992e-02 3.025500000000000064e-02 -6.220400000000000235e-02 4.100299999999999778e-02 -2.300800000000000067e-02 -6.952999999999999979e-03 -3.378300000000000053e-02 1.080300000000000010e-02 2.003399999999999972e-02 -1.818600000000000078e-02 -2.648500000000000160e-02 -1.284399999999999951e-02 -3.101699999999999943e-02 4.071600000000000219e-02 5.087300000000000155e-02 3.633900000000000324e-02 6.134999999999999828e-03 -1.682700000000000168e-02 2.787699999999999900e-02 -3.762399999999999772e-02 -2.807199999999999973e-02 -1.927900000000000100e-02 -5.724499999999999728e-02 3.324099999999999971e-02 5.306700000000000306e-02 -2.526600000000000026e-02 -8.196000000000000160e-03 -7.295500000000000596e-02 2.200099999999999972e-02 -7.296000000000000402e-03 -5.724200000000000121e-02 3.393800000000000289e-02 -4.662399999999999878e-02 -3.594200000000000172e-02 6.544300000000000117e-02 -2.543000000000000121e-03 1.994299999999999892e-02 -1.608100000000000154e-02 -4.180000000000000230e-04 8.026000000000000148e-03 5.552300000000000291e-02 4.339200000000000002e-02 -8.157399999999999374e-02 1.039299999999999946e-02 -2.637199999999999961e-02 -3.225999999999999701e-02 5.489800000000000235e-02 2.207000000000000194e-03 -1.341000000000000004e-02 5.537799999999999667e-02 2.008499999999999869e-02 -5.204399999999999998e-02 -1.063099999999999982e-02 -7.773399999999999754e-02 4.273699999999999721e-02 6.381900000000000073e-02 -2.905000000000000030e-03 2.275200000000000139e-02 -5.386300000000000116e-02 1.581700000000000120e-02 8.760999999999999344e-02 -2.565600000000000172e-02 3.227599999999999913e-02 1.068700000000000032e-02 -2.372799999999999909e-02 -3.397800000000000126e-02 1.201600000000000064e-02 2.636000000000000149e-02 4.962899999999999950e-02 -3.899600000000000288e-02 -1.902900000000000078e-02 1.545400000000000072e-02 1.374700000000000054e-02 3.432400000000000034e-02 2.632999999999999924e-02 8.640699999999999770e-02 -5.744200000000000000e-02 9.190000000000000035e-04 1.047580000000000039e-01 1.979600000000000110e-02 -4.833999999999999755e-03 -6.409299999999999720e-02 5.541900000000000298e-02 3.844299999999999801e-02 2.590699999999999947e-02 -2.033499999999999891e-02 -4.205300000000000010e-02 -8.902000000000000191e-03 2.217900000000000080e-02 -1.568100000000000049e-02 -2.673000000000000029e-03 -9.283800000000000385e-02 1.209499999999999985e-02 -1.017080000000000067e-01 1.198399999999999986e-02 -2.197899999999999854e-02 1.872000000000000053e-02 -2.733000000000000013e-02 -2.745999999999999830e-02 1.129900000000000002e-02 4.432799999999999935e-02 4.641599999999999893e-02 -2.408100000000000171e-02 1.208299999999999999e-02 -2.667599999999999832e-02 3.314000000000000279e-02 5.962800000000000045e-02 1.646170000000000133e-01 -1.456719999999999959e-01 -7.409799999999999720e-02 7.012500000000000677e-02 -1.156910000000000022e-01 -2.553000000000000148e-03 -2.533900000000000041e-02 6.961000000000000174e-03 8.019900000000000639e-02 -2.923299999999999857e-02 -4.057800000000000296e-02 4.552300000000000096e-02 3.400000000000000244e-02 3.510400000000000326e-02 -8.118499999999999328e-02 -3.374699999999999922e-02 8.583000000000000351e-03 -1.188999999999999953e-02 -6.845600000000000296e-02 -6.378100000000000436e-02 4.608199999999999796e-02 -6.439000000000000279e-02 -4.249399999999999705e-02 2.648700000000000013e-02 -8.377000000000000765e-03 -8.227700000000000291e-02 -2.729099999999999929e-02 3.124000000000000041e-02 4.297200000000000325e-02 4.923700000000000299e-02 1.117300000000000064e-02 7.122999999999999991e-03 -1.480029999999999957e-01 2.383300000000000002e-02 3.950700000000000045e-02 -4.709599999999999898e-02 8.379699999999999649e-02 4.581899999999999862e-02 8.458000000000000240e-03 6.201099999999999668e-02 1.056070000000000064e-01 8.652100000000000068e-02 -1.061109999999999970e-01 1.112640000000000018e-01 -7.700799999999999312e-02 1.788999999999999965e-02 1.772299999999999917e-02 -5.251999999999999724e-02 -3.421300000000000036e-02 -4.016000000000000125e-02 -2.501099999999999851e-02 -2.189400000000000027e-02 8.768399999999999805e-02
-2.256800000000000125e-02 -6.214200000000000279e-02 8.488600000000000312e-02 4.493699999999999778e-02 -9.213300000000000656e-02 6.510599999999999721e-02 -3.430400000000000116e-02 -1.045199999999999949e-02 -4.567100000000000326e-02 1.619900000000000159e-02 2.991100000000000009e-02 -2.228400000000000172e-02 -3.984700000000000047e-02 -1.924999999999999975e-02 -4.153199999999999947e-02 6.051299999999999735e-02 7.560000000000000053e-02 5.854800000000000282e-02 8.989000000000000462e-03 -2.523299999999999849e-02 4.608399999999999996e-02 -5.630799999999999694e-02 -4.218600000000000128e-02 -2.422699999999999854e-02 -8.477600000000000413e-02 4.937699999999999728e-02 8.342900000000000316e-02 -3.998199999999999671e-02 -1.230599999999999923e-02 -1.038619999999999960e-01 3.106700000000000086e-02 -1.095800000000000073e-02 -8.016800000000000315e-02 4.877700000000000091e-02 -6.960700000000000220e-02 -4.844699999999999701e-02 9.513299999999999534e-02 -3.844999999999999894e-03 3.472900000000000292e-02 -2.579599999999999949e-02 -7.420000000000000380e-04 1.751600000000000032e-02 8.119099999999999928e-02 6.479600000000000637e-02 -1.171579999999999983e-01 1.368300000000000072e-02 -3.939399999999999846e-02 -4.279000000000000165e-02 7.981199999999999406e-02 3.161999999999999880e-03 -1.498599999999999932e-02 8.067399999999999571e-02 3.004700000000000079e-02 -7.250299999999999800e-02 -1.401099999999999915e-02 -1.160260000000000041e-01 5.877600000000000185e-02 9.731800000000000173e-02 -4.707000000000000246e-03 2.894299999999999998e-02 -7.873700000000000143e-02 2.367700000000000013e-02 1.257359999999999867e-01 -3.595000000000000279e-02 4.819400000000000073e-02 1.058199999999999939e-02 -3.344699999999999757e-02 -5.048300000000000010e-02 1.269699999999999995e-02 4.116500000000000020e-02 7.384599999999999498e-02 -6.324599999999999667e-02 -2.630700000000000052e-02 2.308100000000000082e-02 1.502999999999999996e-02 5.360800000000000287e-02 3.956900000000000001e-02 1.242390000000000022e-01 -8.469100000000000239e-02 1.116999999999999937e-03 1.519550000000000067e-01 2.957399999999999959e-02 -7.121999999999999859e-03 -1.000130000000000047e-01 8.239900000000000002e-02 5.743399999999999894e-02 3.422000000000000042e-02 -3.047899999999999915e-02 -6.261500000000000399e-02 -1.788500000000000159e-02 3.323199999999999765e-02 -2.315299999999999997e-02 -8.500999999999999876e-03 -1.373350000000000126e-01 1.754800000000000110e-02 -1.546099999999999974e-01 1.785700000000000134e-02 -3.273899999999999727e-02 2.316199999999999856e-02 -4.095599999999999935e-02 -4.099099999999999966e-02 1.197200000000000000e-02 6.586000000000000187e-02 6.895999999999999353e-02 -4.019199999999999856e-02 1.780899999999999844e-02 -3.983899999999999941e-02 4.485000000000000098e-02 9.048399999999999499e-02 2.446939999999999948e-01 -2.172949999999999882e-01 -1.098220000000000030e-01 1.038649999999999990e-01 -1.716040000000000065e-01 -2.941000000000000038e-03 -3.793099999999999944e-02 1.026400000000000055e-02 1.204029999999999961e-01 -4.327299999999999897e-02 -6.080399999999999694e-02 6.872200000000000530e-02 5.075899999999999856e-02 5.173099999999999921e-02 -1.200200000000000017e-01 -5.021199999999999969e-02 1.251500000000000008e-02 -1.684599999999999986e-02 -1.014120000000000021e-01 -9.430199999999999694e-02 6.922799999999999787e-02 -9.636400000000000521e-02 -6.383400000000000185e-02 4.009599999999999970e-02 -1.257999999999999917e-02 -1.228749999999999981e-01 -4.135400000000000187e-02 4.635600000000000137e-02 6.398700000000000221e-02 7.257199999999999762e-02 1.668999999999999997e-02 1.044100000000000063e-02 -2.211529999999999885e-01 3.585499999999999798e-02 5.876499999999999779e-02 -7.145600000000000562e-02 1.251420000000000032e-01 6.864099999999999369e-02 1.249100000000000037e-02 9.246400000000000452e-02 1.570489999999999942e-01 1.272939999999999905e-01 -1.576869999999999938e-01 1.645669999999999911e-01 -1.154950000000000004e-01 2.666800000000000073e-02 2.671000000000000110e-02 -7.859800000000000120e-02 -5.078300000000000175e-02 -5.920000000000000262e-02 -3.833999999999999908e-02 -3.276199999999999946e-02 1.307639999999999914e-01
-2.966999999999999846e-02 -8.012299999999999978e-02 1.142050000000000010e-01 5.912200000000000094e-02 -1.211320000000000036e-01 8.800299999999999789e-02 -4.520300000000000012e-02 -1.409999999999999969e-02 -5.763399999999999773e-02 2.152300000000000046e-02 3.964899999999999675e-02 -2.640199999999999839e-02 -5.328000000000000097e-02 -2.572899999999999840e-02 -5.206000000000000211e-02 8.000500000000000667e-02 9.975199999999999345e-02 7.993799999999999517e-02 1.176199999999999989e-02 -3.385400000000000215e-02 6.353399999999999326e-02 -7.467500000000000526e-02 -5.630399999999999988e-02 -2.946500000000000161e-02 -1.115489999999999954e-01 6.522400000000000420e-02 1.127790000000000042e-01 -5.460600000000000176e-02 -1.645399999999999988e-02 -1.344259999999999899e-01 4.020900000000000168e-02 -1.452299999999999945e-02 -1.024589999999999945e-01 6.341700000000000115e-02 -9.215399999999999980e-02 -6.063299999999999940e-02 1.240269999999999984e-01 -5.121999999999999817e-03 4.914299999999999918e-02 -3.520899999999999724e-02 -1.093999999999999920e-03 2.707400000000000084e-02 1.065699999999999981e-01 8.570999999999999452e-02 -1.524040000000000117e-01 1.707099999999999937e-02 -5.220099999999999740e-02 -5.308700000000000224e-02 1.041040000000000021e-01 3.913999999999999944e-03 -1.668100000000000138e-02 1.056850000000000012e-01 3.987999999999999878e-02 -9.256000000000000338e-02 -1.753499999999999850e-02 -1.535710000000000131e-01 7.462399999999999589e-02 1.302850000000000119e-01 -6.785000000000000232e-03 3.530900000000000011e-02 -1.034739999999999965e-01 3.154799999999999965e-02 1.631819999999999937e-01 -4.588799999999999824e-02 6.382000000000000173e-02 1.033099999999999991e-02 -4.299700000000000050e-02 -6.664200000000000679e-02 1.333600000000000063e-02 5.573700000000000182e-02 9.765500000000000569e-02 -8.708499999999999575e-02 -3.331200000000000133e-02 3.039999999999999994e-02 1.602900000000000158e-02 7.295699999999999408e-02 5.281500000000000083e-02 1.618159999999999876e-01 -1.121280000000000054e-01 1.244000000000000097e-03 1.987369999999999970e-01 3.913300000000000112e-02 -9.391999999999999307e-03 -1.349289999999999934e-01 1.087420000000000053e-01 7.622099999999999709e-02 4.268799999999999678e-02 -4.077399999999999775e-02 -8.267599999999999949e-02 -2.645099999999999882e-02 4.429400000000000004e-02 -3.029000000000000095e-02 -1.378099999999999985e-02 -1.805420000000000080e-01 2.267800000000000024e-02 -2.049980000000000135e-01 2.343100000000000044e-02 -4.343299999999999939e-02 2.762600000000000125e-02 -5.459300000000000264e-02 -5.420599999999999724e-02 1.263000000000000060e-02 8.673699999999999466e-02 9.076599999999999946e-02 -5.553299999999999903e-02 2.324000000000000024e-02 -5.277300000000000046e-02 5.669099999999999834e-02 1.211809999999999971e-01 3.226249999999999951e-01 -2.871139999999999803e-01 -1.448720000000000008e-01 1.364740000000000120e-01 -2.253830000000000000e-01 -3.245000000000000055e-03 -5.029900000000000343e-02 1.372400000000000009e-02 1.597550000000000081e-01 -5.681400000000000339e-02 -8.058300000000000185e-02 9.146700000000000663e-02 6.719400000000000373e-02 6.782699999999999840e-02 -1.579540000000000111e-01 -6.621799999999999908e-02 1.635700000000000001e-02 -2.164400000000000004e-02 -1.332359999999999933e-01 -1.232889999999999958e-01 9.170000000000000373e-02 -1.278970000000000107e-01 -8.473899999999999488e-02 5.333999999999999853e-02 -1.675000000000000100e-02 -1.623840000000000006e-01 -5.500000000000000028e-02 6.105800000000000116e-02 8.416500000000000370e-02 9.528399999999999370e-02 2.212799999999999837e-02 1.331300000000000018e-02 -2.924229999999999885e-01 4.782499999999999946e-02 7.726700000000000235e-02 -9.565500000000000391e-02 1.655870000000000120e-01 9.095699999999999619e-02 1.688999999999999876e-02 1.222400000000000014e-01 2.067539999999999933e-01 1.665200000000000014e-01 -2.076919999999999877e-01 2.154490000000000016e-01 -1.530620000000000036e-01 3.522600000000000037e-02 3.547499999999999959e-02 -1.037170000000000036e-01 -6.680899999999999339e-02 -7.756499999999999506e-02 -5.161000000000000310e-02 -4.348799999999999888e-02 1.726449999999999929e-01
-3.650699999999999779e-02 -9.654200000000000281e-02 1.421650000000000136e-01 7.293900000000000383e-02 -1.491319999999999868e-01 1.095129999999999992e-01 -5.570800000000000057e-02 -1.771299999999999958e-02 -6.975699999999999956e-02 2.701900000000000135e-02 4.922499999999999792e-02 -3.058500000000000107e-02 -6.688399999999999901e-02 -3.206200000000000022e-02 -6.253000000000000225e-02 9.905200000000000116e-02 1.229920000000000041e-01 1.003069999999999934e-01 1.430599999999999927e-02 -4.254200000000000342e-02 8.006499999999999728e-02 -9.279199999999999948e-02 -7.066000000000000059e-02 -3.501100000000000045e-02 -1.372690000000000021e-01 8.075300000000000533e-02 1.410480000000000067e-01 -6.883100000000000329e-02 -2.041199999999999959e-02 -1.644710000000000061e-01 4.915400000000000325e-02 -1.785099999999999881e-02 -1.238729999999999970e-01 7.786899999999999378e-02 -1.143430000000000002e-01 -7.241000000000000214e-02 1.517449999999999910e-01 -6.251999999999999745e-03 6.317899999999999905e-02 -4.414200000000000068e-02 -1.688999999999999963e-03 3.676600000000000007e-02 1.316269999999999940e-01 1.061330000000000051e-01 -1.869810000000000083e-01 2.063900000000000109e-02 -6.494600000000000373e-02 -6.310000000000000331e-02 1.276970000000000049e-01 4.617999999999999709e-03 -1.842399999999999941e-02 1.300719999999999932e-01 4.954800000000000176e-02 -1.119129999999999986e-01 -2.143000000000000113e-02 -1.903360000000000052e-01 8.999699999999999367e-02 1.628330000000000055e-01 -9.209000000000000172e-03 4.187500000000000250e-02 -1.281499999999999861e-01 3.973600000000000049e-02 1.996940000000000104e-01 -5.512299999999999839e-02 7.908700000000000452e-02 9.912999999999999937e-03 -5.240299999999999819e-02 -8.214299999999999380e-02 1.379799999999999950e-02 6.995999999999999441e-02 1.207690000000000013e-01 -1.104149999999999993e-01 -4.009299999999999670e-02 3.754600000000000298e-02 1.658000000000000099e-02 9.213000000000000356e-02 6.574599999999999889e-02 1.988840000000000052e-01 -1.392450000000000077e-01 1.332999999999999984e-03 2.445620000000000016e-01 4.859999999999999737e-02 -1.147199999999999956e-02 -1.686590000000000034e-01 1.341070000000000040e-01 9.482100000000000251e-02 5.127899999999999819e-02 -5.116699999999999721e-02 -1.023260000000000003e-01 -3.448400000000000076e-02 5.512899999999999745e-02 -3.697899999999999798e-02 -1.836000000000000132e-02 -2.222719999999999974e-01 2.731099999999999847e-02 -2.526630000000000265e-01 2.875099999999999878e-02 -5.390299999999999953e-02 3.216700000000000115e-02 -6.816400000000000237e-02 -6.722499999999999309e-02 1.319500000000000013e-02 1.069480000000000014e-01 1.118460000000000010e-01 -6.997299999999999354e-02 2.807000000000000120e-02 -6.540899999999999492e-02 6.862799999999999456e-02 1.513450000000000073e-01 3.979239999999999999e-01 -3.544459999999999833e-01 -1.789560000000000040e-01 1.677069999999999950e-01 -2.765159999999999840e-01 -3.562000000000000062e-03 -6.242500000000000132e-02 1.739299999999999874e-02 1.979539999999999911e-01 -6.969100000000000295e-02 -9.972499999999999420e-02 1.135889999999999955e-01 8.323600000000000443e-02 8.333100000000000229e-02 -1.946519999999999917e-01 -8.172999999999999710e-02 2.009299999999999975e-02 -2.612400000000000139e-02 -1.637129999999999974e-01 -1.504439999999999944e-01 1.133330000000000032e-01 -1.586599999999999955e-01 -1.049390000000000045e-01 6.615600000000000647e-02 -2.088900000000000132e-02 -2.003570000000000073e-01 -6.815599999999999437e-02 7.526499999999999857e-02 1.032570000000000016e-01 1.171880000000000005e-01 2.739600000000000021e-02 1.566700000000000037e-02 -3.613359999999999905e-01 5.960700000000000026e-02 9.483400000000000163e-02 -1.195019999999999971e-01 2.048040000000000138e-01 1.125459999999999933e-01 2.166399999999999923e-02 1.511510000000000076e-01 2.542139999999999955e-01 2.040559999999999874e-01 -2.557229999999999781e-01 2.634369999999999767e-01 -1.893910000000000038e-01 4.342100000000000126e-02 4.389200000000000046e-02 -1.277300000000000102e-01 -8.211300000000000543e-02 -9.515400000000000247e-02 -6.477199999999999624e-02 -5.401100000000000345e-02 2.129139999999999922e-01
-4.281299999999999689e-02 -1.110059999999999936e-01 1.686140000000000139e-01 8.593699999999999950e-02 -1.760240000000000138e-01 1.295080000000000120e-01 -6.556099999999999428e-02 -2.164500000000000104e-02 -8.195700000000000207e-02 3.234700000000000075e-02 5.860800000000000037e-02 -3.485300000000000203e-02 -8.056099999999999373e-02 -3.854699999999999793e-02 -7.301399999999999557e-02 1.178209999999999952e-01 1.454789999999999972e-01 1.195439999999999975e-01 1.674199999999999994e-02 -5.166099999999999859e-02 9.543899999999999606e-02 -1.103510000000000046e-01 -8.498799999999999411e-02 -4.091499999999999998e-02 -1.622000000000000108e-01 9.602499999999999925e-02 1.680369999999999919e-01 -8.274399999999999811e-02 -2.440099999999999908e-02 -1.937889999999999890e-01 5.817300000000000249e-02 -2.091900000000000009e-02 -1.441010000000000069e-01 9.189999999999999558e-02 -1.357510000000000105e-01 -8.353900000000000214e-02 1.784530000000000005e-01 -7.211999999999999661e-03 7.684799999999999964e-02 -5.264400000000000329e-02 -2.239000000000000105e-03 4.657000000000000028e-02 1.560479999999999923e-01 1.256529999999999869e-01 -2.204909999999999926e-01 2.431900000000000034e-02 -7.730499999999999872e-02 -7.273799999999999710e-02 1.502229999999999954e-01 5.022999999999999687e-03 -2.018199999999999855e-02 1.540630000000000055e-01 5.898599999999999677e-02 -1.303620000000000057e-01 -2.559600000000000070e-02 -2.258600000000000052e-01 1.047000000000000014e-01 1.944919999999999982e-01 -1.194399999999999976e-02 4.860300000000000037e-02 -1.525309999999999999e-01 4.797699999999999881e-02 2.348240000000000050e-01 -6.392200000000000659e-02 9.391099999999999448e-02 9.240999999999999215e-03 -6.146100000000000174e-02 -9.721100000000000574e-02 1.406600000000000038e-02 8.399199999999999722e-02 1.434110000000000107e-01 -1.332609999999999906e-01 -4.645900000000000030e-02 4.412800000000000056e-02 1.656900000000000039e-02 1.113009999999999972e-01 7.857000000000000095e-02 2.352289999999999937e-01 -1.661259999999999959e-01 1.523000000000000048e-03 2.890030000000000099e-01 5.773400000000000060e-02 -1.360600000000000004e-02 -2.010609999999999897e-01 1.586599999999999955e-01 1.131349999999999995e-01 5.994700000000000029e-02 -6.184499999999999720e-02 -1.211969999999999992e-01 -4.199200000000000155e-02 6.604300000000000448e-02 -4.318700000000000316e-02 -2.205400000000000069e-02 -2.625720000000000276e-01 3.173100000000000226e-02 -2.972049999999999970e-01 3.356499999999999762e-02 -6.438399999999999679e-02 3.685599999999999987e-02 -8.173400000000000110e-02 -7.967299999999999383e-02 1.360399999999999977e-02 1.262250000000000039e-01 1.318100000000000105e-01 -8.342199999999999616e-02 3.252900000000000236e-02 -7.768500000000000405e-02 8.070900000000000296e-02 1.807469999999999910e-01 4.701299999999999923e-01 -4.186440000000000161e-01 -2.118359999999999965e-01 1.973650000000000126e-01 -3.245339999999999892e-01 -3.821000000000000178e-03 -7.411900000000000432e-02 2.134700000000000139e-02 2.346959999999999880e-01 -8.187999999999999445e-02 -1.180059999999999998e-01 1.348979999999999901e-01 9.865100000000000258e-02 9.819400000000000350e-02 -2.299990000000000090e-01 -9.658500000000000418e-02 2.372300000000000103e-02 -3.026200000000000070e-02 -1.926249999999999907e-01 -1.754539999999999988e-01 1.340389999999999915e-01 -1.884709999999999996e-01 -1.242000000000000048e-01 7.853000000000000258e-02 -2.492899999999999977e-02 -2.363850000000000118e-01 -8.071399999999999408e-02 8.895799999999999541e-02 1.209889999999999993e-01 1.380589999999999873e-01 3.244699999999999668e-02 1.744599999999999970e-02 -4.273199999999999776e-01 7.109699999999999354e-02 1.112770000000000009e-01 -1.428649999999999920e-01 2.424129999999999896e-01 1.331559999999999966e-01 2.672300000000000023e-02 1.789310000000000067e-01 2.989789999999999948e-01 2.396010000000000084e-01 -3.013609999999999900e-01 3.080399999999999805e-01 -2.241950000000000054e-01 5.121799999999999964e-02 5.183900000000000313e-02 -1.503939999999999999e-01 -9.658400000000000318e-02 -1.118819999999999953e-01 -7.772500000000000242e-02 -6.424199999999999355e-02 2.511809999999999876e-01