-5.791969564506530693e-02 -1.283889600624301026e-03 2.496894028932443721e-01 -1.283889600624301026e-03 -6.882371577431112275e-02 -1.265806648502831964e-04 2.496894028932443721e-01 -1.265806648502831964e-04 2.858191412319394664e-01
-1.146459164501136517e-02 -3.685305642355388156e-02 1.120058054403791636e-01 -3.685305642355388156e-02 -7.363378103862187884e-02 7.186165173071791534e-02 1.120058054403791636e-01 7.186165173071791534e-02 3.304117011634820633e-01
4.354374870849742063e-02 -7.213289601253995709e-02 -2.602136810279393267e-02 -7.213289601253995709e-02 -6.885988167855407183e-02 1.424574968129330155e-01 -2.602136810279393267e-02 1.424574968129330155e-01 3.856008710382056170e-01
1.062735096178734906e-01 -1.067617493251531574e-01 -1.644282836405178694e-01 -1.067617493251531574e-01 -5.495409149714437780e-02 2.118056181987667264e-01 -1.644282836405178694e-01 2.118056181987667264e-01 4.523992961749122022e-01
1.764172808970518314e-01 -1.405949527444217140e-01 -3.029436968909706707e-01 -1.405949527444217140e-01 -3.207915706348605372e-02 2.799602647445835202e-01 -3.029436968909706707e-01 2.799602647445835202e-01 5.300113266802572998e-01
2.521848502860070673e-01 -1.732346813236732841e-01 -4.413506124286946108e-01 -1.732346813236732841e-01 -1.500885026081929348e-03 3.470299341631121193e-01 -4.413506124286946108e-01 3.470299341631121193e-01 6.157968515445063629e-01
3.329794803647306844e-01 -2.046447691586650020e-01 -5.792512053070174582e-01 -2.046447691586650020e-01 3.605740653020924474e-02 4.131592900713243477e-01 -5.792512053070174582e-01 4.131592900713243477e-01 7.080922391724842058e-01
4.169567100168328766e-01 -2.342103958772668582e-01 -7.165731437174532870e-01 -2.342103958772668582e-01 7.956498933446372324e-02 4.785472449425563490e-01 -7.165731437174532870e-01 4.785472449425563490e-01 8.043116274108209618e-01
5.027784007853248749e-01 -2.622028057613008944e-01 -8.528824368090868191e-01 -2.622028057613008944e-01 1.271593193181702053e-01 5.434107942022657900e-01 -8.528824368090868191e-01 5.434107942022657900e-01 9.017064075370531118e-01
5.883288472719948592e-01 -2.879710125343942773e-01 -9.881971675340394112e-01 -2.879710125343942773e-01 1.778277511625264151e-01 6.079488503237887587e-01 -9.881971675340394112e-01 6.079488503237887587e-01 9.973109754032599694e-01
5.635609717487680115e+01 -5.709249231558805704e+00 -2.347168886932942300e+01 -5.709249231558805704e+00 5.190084700844784749e+01 8.597340938722741299e+00 -2.347168886932942300e+01 8.597340938722741299e+00 5.506668238781903568e+01
5.628955442007713827e+01 -5.720549586849591250e+00 -2.332805182316341686e+01 -5.720549586849591250e+00 5.175819704150904954e+01 8.323596639246412465e+00 -2.332805182316341686e+01 8.323596639246412465e+00 5.478516058477661232e+01
5.612326560750746296e+01 -5.717792572456357192e+00 -2.311417898439941254e+01 -5.717792572456357192e+00 5.153200273101231943e+01 8.029242806250294962e+00 -2.311417898439941254e+01 8.029242806250294962e+00 5.426648448809397962e+01
5.585811570475078724e+01 -5.701352597741148998e+00 -2.283104041365725223e+01 -5.701352597741148998e+00 5.122343836086589164e+01 7.714977202636375431e+00 -2.283104041365725223e+01 7.714977202636375431e+00 5.351273036786976434e+01
5.549476843749435773e+01 -5.671808295354397345e+00 -2.248018480420720522e+01 -5.671808295354397345e+00 5.083296343346863466e+01 7.381718833202401520e+00 -2.248018480420720522e+01 7.381718833202401520e+00 5.252692753621503385e+01
5.503489162926002365e+01 -5.630044632879115163e+00 -2.206396072386573337e+01 -5.630044632879115163e+00 5.036182030715823998e+01 7.030676019071333549e+00 -2.206396072386573337e+01 7.030676019071333549e+00 5.131353486825959465e+01
5.448079981064949351e+01 -5.577235894223532497e+00 -2.158507413120397445e+01 -5.577235894223532497e+00 4.981150661938288948e+01 6.663040062758766702e+00 -2.158507413120397445e+01 6.663040062758766702e+00 4.987855993240351182e+01
5.383562440541805927e+01 -5.514726549369534325e+00 -2.104701384073188208e+01 -5.514726549369534325e+00 4.918396249138226040e+01 6.280274564498144585e+00 -2.104701384073188208e+01 6.280274564498144585e+00 4.822943986006557537e+01
5.310394341894707537e+01 -5.443997217157932944e+00 -2.045386431821721018e+01 -5.443997217157932944e+00 4.848223425387480034e+01 5.884013310596568402e+00 -2.045386431821721018e+01 5.884013310596568402e+00 4.637602842491048705e+01
5.228946690764225025e+01 -5.367260316546259347e+00 -1.981020356904131674e+01 -5.367260316546259347e+00 4.770882364214326543e+01 5.475992199005336403e+00 -1.981020356904131674e+01 5.475992199005336403e+00 4.433039181956049646e+01
-5.828555043260695179e+00 -5.279622033510776927e-03 8.361389103078339602e+00 -5.279622033510776927e-03 -1.970233105474679292e+01 5.248424266949122119e-01 8.361389103078339602e+00 5.248424266949122119e-01 -2.880607932025730733e+01
-5.790231632975490150e+00 -4.936261999163572833e-02 8.377246429395771798e+00 -4.936261999163572833e-02 -1.961750635808951415e+01 5.031701320538574107e-01 8.377246429395771798e+00 5.031701320538574107e-01 -2.864423859869161504e+01
-5.699610428211489221e+00 -9.141499409071807136e-02 8.382083006223671973e+00 -9.141499409071807136e-02 -1.946928927659630659e+01 4.821993256550174967e-01 8.382083006223671973e+00 4.821993256550174967e-01 -2.832921499728650261e+01
-5.565663094382277798e+00 -1.314182841138574198e-01 8.375991134646545433e+00 -1.314182841138574198e-01 -1.926748218544127056e+01 4.619300074983921922e-01 8.375991134646545433e+00 4.619300074983921922e-01 -2.789381232147396616e+01
-5.388629614307563820e+00 -1.692248083258506841e-01 8.358767752278483343e+00 -1.692248083258506841e-01 -1.901265735134832369e+01 4.424360184515831462e-01 8.358767752278483343e+00 4.424360184515831462e-01 -2.733762444648219514e+01
-5.171075958136500006e+00 -2.047422656421958864e-01 8.329951353696978700e+00 -2.047422656421958864e-01 -1.870706692077931166e+01 4.236988982976900298e-01 8.329951353696978700e+00 4.236988982976900298e-01 -2.666600483521230558e+01
-4.913537472159196007e+00 -2.379521958459926700e-01 8.289431177600627976e+00 -2.379521958459926700e-01 -1.835240923368906962e+01 4.055894255184100405e-01 8.289431177600627976e+00 4.055894255184100405e-01 -2.588201788366975364e+01
-4.619097012598017749e+00 -2.688915193710418872e-01 8.236302673361313609e+00 -2.688915193710418872e-01 -1.795108411827465034e+01 3.880706796799424652e-01 8.236302673361313609e+00 3.880706796799424652e-01 -2.499127549779226598e+01
-4.288788351599387205e+00 -2.975602362173433990e-01 8.170565840979035599e+00 -2.975602362173433990e-01 -1.750558370381760298e+01 3.709580586132834035e-01 8.170565840979035599e+00 3.709580586132834035e-01 -2.399794968659932337e+01
-3.925989708856074678e+00 -3.241614087708015735e-01 8.090928465270764036e+00 -3.241614087708015735e-01 -1.701825243786427677e+01 3.541408010170306042e-01 8.090928465270764036e+00 3.541408010170306042e-01 -2.290829846362015942e+01
3.233861616182821308e+01 1.224271955479001361e+00 -2.878978770258263098e-01 1.224271955479001361e+00 1.659420983670483096e+01 1.800657201260218798e+01 -2.878978770258263098e-01 1.800657201260218798e+01 1.031388143631009413e+01
3.241034353874293572e+01 1.345876686517987419e+00 -2.977286223362349271e-01 1.345876686517987419e+00 1.650492125407402710e+01 1.775305526998332084e+01 -2.977286223362349271e-01 1.775305526998332084e+01 1.027372893077835236e+01
3.246851613576826168e+01 1.462380725645469060e+00 -3.103479812176391794e-01 1.462380725645469060e+00 1.642336313184889818e+01 1.746866963410070994e+01 -3.103479812176391794e-01 1.746866963410070994e+01 1.021146166066143657e+01
3.250889808418875759e+01 1.573078094742206723e+00 -3.259677471058108345e-01 1.573078094742206723e+00 1.634672920700545973e+01 1.715306211589473762e+01 -3.259677471058108345e-01 1.715306211589473762e+01 1.011716063338403515e+01
3.253027157174873452e+01 1.677439310218770574e+00 -3.445349716418069641e-01 1.677439310218770574e+00 1.627528422133843478e+01 1.680610916919453501e+01 -3.445349716418069641e-01 1.680610916919453501e+01 9.991002343475953396e+00
3.253118934330374401e+01 1.774458353255244702e+00 -3.661202526375516020e-01 1.774458353255244702e+00 1.620832219672857377e+01 1.642761665001731330e+01 -3.661202526375516020e-01 1.642761665001731330e+01 9.831151247827172313e+00
3.250919812488943705e+01 1.863782234792009662e+00 -3.904058999393868468e-01 1.863782234792009662e+00 1.614480181545000903e+01 1.601740806383326188e+01 -3.904058999393868468e-01 1.601740806383326188e+01 9.635330567003144608e+00
3.246256827011367108e+01 1.944546131632996833e+00 -4.173213157353888869e-01 1.944546131632996833e+00 1.608260514314502032e+01 1.557488332924102536e+01 -4.173213157353888869e-01 1.557488332924102536e+01 9.401281171022304761e+00
3.238976427656711365e+01 2.016820641590129526e+00 -4.463017175301661199e-01 2.016820641590129526e+00 1.602093795442945634e+01 1.509961885936906256e+01 -4.463017175301661199e-01 1.509961885936906256e+01 9.126991022244817842e+00
3.228949773418213454e+01 2.079617395296474491e+00 -4.772941569647757287e-01 2.079617395296474491e+00 1.595738227424493161e+01 1.459055568703851335e+01 -4.772941569647757287e-01 1.459055568703851335e+01 8.809724455458631809e+00
3.304142977389618352e+01 -1.172583833485867544e+01 -1.586806171362170481e+01 -1.172583833485867544e+01 -2.232442486887884048e+00 -1.266414736226118665e+00 -1.586806171362170481e+01 -1.266414736226118665e+00 1.166038443057703411e+01
3.322441248809479930e+01 -1.167264258226228790e+01 -1.570141134085569412e+01 -1.167264258226228790e+01 -2.134395064627450989e+00 -1.549668775385681929e+00 -1.570141134085569412e+01 -1.549668775385681929e+00 1.202348547229599163e+01
3.337549554195718571e+01 -1.160307890579008827e+01 -1.549873374434129580e+01 -1.160307890579008827e+01 -2.032913936597418481e+00 -1.835609289007470890e+00 -1.549873374434129580e+01 -1.835609289007470890e+00 1.233655759886409875e+01
3.349407403394879879e+01 -1.151752092109576253e+01 -1.525999334163530108e+01 -1.151752092109576253e+01 -1.927678860808911709e+00 -2.124076156097047807e+00 -1.525999334163530108e+01 -2.124076156097047807e+00 1.260054374502637486e+01
3.357868908389810514e+01 -1.141655573849225291e+01 -1.498556374839139060e+01 -1.141655573849225291e+01 -1.820059761325449665e+00 -2.414215398017415026e+00 -1.498556374839139060e+01 -2.414215398017415026e+00 1.281293534853663552e+01
3.362809530629279919e+01 -1.130107291905975941e+01 -1.467585416270646625e+01 -1.130107291905975941e+01 -1.711337606102530939e+00 -2.705030706358738879e+00 -1.467585416270646625e+01 -2.705030706358738879e+00 1.297134838569992610e+01
3.364118964539345313e+01 -1.117201539754330319e+01 -1.433120261779100701e+01 -1.117201539754330319e+01 -1.603078022641319711e+00 -2.995454607824771909e+00 -1.433120261779100701e+01 -2.995454607824771909e+00 1.307368349236695870e+01
3.361679788057417539e+01 -1.103039727357432476e+01 -1.395194714685548476e+01 -1.103039727357432476e+01 -1.497060133102230628e+00 -3.284312881789640759e+00 -1.395194714685548476e+01 -3.284312881789640759e+00 1.311784130438844187e+01
3.355408382441957116e+01 -1.087746393266511014e+01 -1.353847915677519786e+01 -1.087746393266511014e+01 -1.395116433310490178e+00 -3.570484681292283469e+00 -1.353847915677519786e+01 -3.570484681292283469e+00 1.310193595227433860e+01
3.345210454218462104e+01 -1.071426505689030328e+01 -1.309092318610137262e+01 -1.071426505689030328e+01 -1.299275122528971149e+00 -3.852777994485223179e+00 -1.309092318610137262e+01 -3.852777994485223179e+00 1.302399261042658551e+01
-1.863393983837514511e+01 4.465151107443780631e+00 -3.500913049174736891e+00 4.465151107443780631e+00 -1.877466246883657774e+01 1.002048119253363190e+01 -3.500913049174736891e+00 1.002048119253363190e+01 -1.856566241098527570e+01
-1.872979867905408469e+01 4.482692812201839239e+00 -3.503395191136278175e+00 4.482692812201839239e+00 -1.890410431978623151e+01 9.784288713790216363e+00 -3.503395191136278175e+00 9.784288713790216363e+00 -1.888465469993832713e+01
-1.879077786813912709e+01 4.495140568904496092e+00 -3.498653188582885321e+00 4.495140568904496092e+00 -1.899668451026224147e+01 9.532443921931104569e+00 -3.498653188582885321e+00 9.532443921931104569e+00 -1.911951349046360349e+01
-1.881787767179386961e+01 4.502549947894173066e+00 -3.486909322884248041e+00 4.502549947894173066e+00 -1.905308840782115354e+01 9.264835676271461651e+00 -3.486909322884248041e+00 9.264835676271461651e+00 -1.926992388395403921e+01
-1.881109809001831579e+01 4.504939472618343821e+00 -3.468422922305004708e+00 4.504939472618343821e+00 -1.907303816075085479e+01 8.981575117496122473e+00 -3.468422922305004708e+00 8.981575117496122473e+00 -1.933562655214499415e+01
-1.877138381863364813e+01 4.502346189971956569e+00 -3.443397744767371815e+00 4.502346189971956569e+00 -1.905708947247557816e+01 8.683217949029318206e+00 -3.443397744767371815e+00 8.683217949029318206e+00 -1.931786256601724716e+01
-1.869973512380347103e+01 4.494844193744908623e+00 -3.412074595088514073e+00 4.494844193744908623e+00 -1.900609442157912810e+01 8.369986452240738117e+00 -3.412074595088514073e+00 8.369986452240738117e+00 -1.921792856689398121e+01
-1.859735602961361423e+01 4.482526101174571842e+00 -3.374675754638120750e+00 4.482526101174571842e+00 -1.892105327422511607e+01 8.042195525737444228e+00 -3.374675754638120750e+00 8.042195525737444228e+00 -1.903788065744484115e+01
-1.846530237257010398e+01 4.465484529498315425e+00 -3.331349410995986915e+00 4.465484529498315425e+00 -1.880300334347209201e+01 7.699826646071960212e+00 -3.331349410995986915e+00 7.699826646071960212e+00 -1.877966379965461030e+01
-1.830507455191834865e+01 4.443812095953511232e+00 -3.282225228294430863e+00 4.443812095953511232e+00 -1.865324127064325310e+01 7.342861289796815072e+00 -3.282225228294430863e+00 7.342861289796815072e+00 -1.844557490101009023e+01
3.209506516420800981e+00 -4.491788979611428090e+00 1.980976106417888616e+01 -4.491788979611428090e+00 -9.883495617233416297e+00 3.636952058110364927e+00 1.980976106417888616e+01 3.636952058110364927e+00 2.547128412436171985e+01
3.120446334922464260e+00 -4.495147016051462607e+00 1.973521626600199141e+01 -4.495147016051462607e+00 -9.875082472173975390e+00 3.474899718939663540e+00 1.973521626600199141e+01 3.474899718939663540e+00 2.535619013347343653e+01
2.992515978932759335e+00 -4.491897303367557548e+00 1.961069810833038574e+01 -4.491897303367557548e+00 -9.889128452552183646e+00 3.305409148514692141e+00 1.961069810833038574e+01 3.305409148514692141e+00 2.514380335562092483e+01
2.826636200378792818e+00 -4.481696816331969480e+00 1.943669404806665568e+01 -4.481696816331969480e+00 -9.925741882124173188e+00 3.128787264144485381e+00 1.943669404806665568e+01 3.128787264144485381e+00 2.483562226943065454e+01
2.623186132407020033e+00 -4.464455285147921337e+00 1.921410678317855769e+01 -4.464455285147921337e+00 -9.985933782613825471e+00 2.945972871715505814e+00 1.921410678317855769e+01 2.945972871715505814e+00 2.443208016992713993e+01
2.382887933391641511e+00 -4.439974116262507486e+00 1.894407371310544974e+01 -4.439974116262507486e+00 -1.007024577280179223e+01 2.757724237520663646e+00 1.894407371310544974e+01 2.757724237520663646e+00 2.393489218324911860e+01
2.106355437950728327e+00 -4.408181093838308584e+00 1.862796693875832688e+01 -4.408181093838308584e+00 -1.017950833481840078e+01 2.564980167446420101e+00 1.862796693875832688e+01 2.564980167446420101e+00 2.334564705781982141e+01
1.794184426742996719e+00 -4.369238703509521038e+00 1.826746547835719170e+01 -4.369238703509521038e+00 -1.031469638246882603e+01 2.368498927785686714e+00 1.826746547835719170e+01 2.368498927785686714e+00 2.266571689455023986e+01
1.446754032914902011e+00 -4.323435808625823107e+00 1.786439278179691215e+01 -4.323435808625823107e+00 -1.047729034042017737e+01 2.169092946709438863e+00 1.786439278179691215e+01 2.169092946709438863e+00 2.189663627998554318e+01
1.064840576718710130e+00 -4.271061272536896603e+00 1.742073478460653746e+01 -4.271061272536896603e+00 -1.066775961161568809e+01 1.967484382591878633e+00 1.742073478460653746e+01 1.967484382591878633e+00 2.104055363528898326e+01
-2.151067293005805681e+01 2.311553845644509941e+00 -4.241297186319354040e+00 2.311553845644509941e+00 -3.132083071233340377e+01 -1.564242620737486078e+01 -4.241297186319354040e+00 -1.564242620737486078e+01 -4.814875217991191647e+01
-2.155595173994228020e+01 2.298017270049184990e+00 -4.263607119671871004e+00 2.298017270049184990e+00 -3.127007326058793168e+01 -1.555981355965262836e+01 -4.263607119671871004e+00 -1.555981355965262836e+01 -4.814894044939168083e+01
-2.153618344456663181e+01 2.281750786997223113e+00 -4.277482580330778994e+00 2.281750786997223113e+00 -3.114999498639184949e+01 -1.545632182662411580e+01 -4.277482580330778994e+00 -1.545632182662411580e+01 -4.796797582543860017e+01
-2.145298716145711992e+01 2.262829704280531207e+00 -4.283262453359658828e+00 2.262829704280531207e+00 -3.096221500727116549e+01 -1.533164977712169197e+01 -4.283262453359658828e+00 -1.533164977712169197e+01 -4.760883296583301671e+01
-2.130754898833627564e+01 2.241254021899109272e+00 -4.280927911810534781e+00 2.241254021899109272e+00 -3.070758053588483705e+01 -1.518540204523784887e+01 -4.280927911810534781e+00 -1.518540204523784887e+01 -4.707365814264426973e+01
-2.109985009825613034e+01 2.217023739852957309e+00 -4.270799013799011945e+00 2.217023739852957309e+00 -3.038695761183979371e+01 -1.501750332318067471e+01 -4.270799013799011945e+00 -1.501750332318067471e+01 -4.636422108898219108e+01
-2.083181083991031457e+01 2.190270646777912944e+00 -4.252725143741276526e+00 2.190270646777912944e+00 -3.000170177539037653e+01 -1.482765237978254191e+01 -4.252725143741276526e+00 -1.482765237978254191e+01 -4.548455077171381333e+01
-2.050416546426992426e+01 2.160975915725999563e+00 -4.227327590920562095e+00 2.160975915725999563e+00 -2.955416639503367193e+01 -1.461566094556368434e+01 -4.227327590920562095e+00 -1.461566094556368434e+01 -4.443846906127842544e+01
-2.011943678236385225e+01 2.129308989229008464e+00 -4.194248643325311221e+00 2.129308989229008464e+00 -2.904570701102401742e+01 -1.438122778935647084e+01 -4.194248643325311221e+00 -1.438122778935647084e+01 -4.323166169596503750e+01
-1.967822725652735372e+01 2.095232213390985976e+00 -4.154373167510430953e+00 2.095232213390985976e+00 -2.847944889672556457e+01 -1.412448469979674037e+01 -4.154373167510430953e+00 -1.412448469979674037e+01 -4.186936256731118533e+01
-4.723488547580350638e-01 -8.608547050897920272e+00 -1.736192417164180313e+01 -8.608547050897920272e+00 3.478556262672158339e-01 -1.717584297549782235e+01 -1.736192417164180313e+01 -1.717584297549782235e+01 1.426507616556716762e+01
-6.668751633724764316e-01 -8.602213216545074204e+00 -1.741596928243032494e+01 -8.602213216545074204e+00 2.900390870463744886e-01 -1.727205951330229539e+01 -1.741596928243032494e+01 -1.727205951330229539e+01 1.394690474873137553e+01
-8.729503437413931310e-01 -8.590411713220969858e+00 -1.743491665015250902e+01 -8.590411713220969858e+00 2.193744279986793999e-01 -1.732933469915964153e+01 -1.743491665015250902e+01 -1.732933469915964153e+01 1.357423709330415384e+01
-1.089184922231824393e+00 -8.573431262719466872e+00 -1.741927153794762262e+01 -8.573431262719466872e+00 1.365654084966690662e-01 -1.734808357064855144e+01 -1.741927153794762262e+01 -1.734808357064855144e+01 1.315420101857146840e+01
-1.315633034180119898e+00 -8.551614722170780780e+00 -1.736932266760951649e+01 -8.551614722170780780e+00 4.079999849510686921e-02 -1.732832417288112481e+01 -1.736932266760951649e+01 -1.732832417288112481e+01 1.268686870498178365e+01
-1.552114228465115708e+00 -8.525178632920301425e+00 -1.728530462559570680e+01 -8.525178632920301425e+00 -6.833683958468363129e-02 -1.727047154343605229e+01 -1.728530462559570680e+01 -1.727047154343605229e+01 1.217287173145917301e+01
-1.799043542665488271e+00 -8.494556077658826254e+00 -1.716756026903641086e+01 -8.494556077658826254e+00 -1.923067598241282039e-01 -1.717468808832237670e+01 -1.716756026903641086e+01 -1.717468808832237670e+01 1.161085671459490776e+01
-2.057233006826474142e+00 -8.459855327059052854e+00 -1.701614373326797036e+01 -8.459855327059052854e+00 -3.323187847350234092e-01 -1.704165952180051491e+01 -1.701614373326797036e+01 -1.704165952180051491e+01 1.100080560927687223e+01
-2.327205929199448242e+00 -8.421671869820817946e+00 -1.683132569497213638e+01 -8.421671869820817946e+00 -4.902496059774715809e-01 -1.687153020476740295e+01 -1.683132569497213638e+01 -1.687153020476740295e+01 1.034116653586306001e+01
-2.609792384941763022e+00 -8.380132021728938341e+00 -1.661294374813985542e+01 -8.380132021728938341e+00 -6.672360656148037528e-01 -1.666484149058652520e+01 -1.661294374813985542e+01 -1.666484149058652520e+01 9.631416186102093491e+00
-2.607974386465781791e+01 -4.136545214200255671e+00 5.613289895056779777e+00 -4.136545214200255671e+00 -5.366582483953430405e+00 1.739749000117577182e+01 5.613289895056779777e+00 1.739749000117577182e+01 1.452205868843035930e+01
-2.606475525337717869e+01 -4.193366343272707297e+00 5.514343072421747038e+00 -4.193366343272707297e+00 -5.526180044166603800e+00 1.720177685070080642e+01 5.514343072421747038e+00 1.720177685070080642e+01 1.430923140233667290e+01
-2.604300527588314296e+01 -4.246083011554371289e+00 5.408799794944377126e+00 -4.246083011554371289e+00 -5.713464391231914519e+00 1.696782258562597434e+01 5.408799794944377126e+00 1.696782258562597434e+01 1.405204295742827902e+01
-2.601555669434475604e+01 -4.294402043274479830e+00 5.296770003538711968e+00 -4.294402043274479830e+00 -5.927665938751087715e+00 1.669656170372059734e+01 5.296770003538711968e+00 1.669656170372059734e+01 1.375076820599027627e+01
-2.598437012172905014e+01 -4.337975292205241473e+00 5.178565197461193925e+00 -4.337975292205241473e+00 -6.168051747297199405e+00 1.638940511338151396e+01 5.178565197461193925e+00 1.638940511338151396e+01 1.340518726619458612e+01
-2.595153443540275617e+01 -4.376509582575883961e+00 5.054478552482593479e+00 -4.376509582575883961e+00 -6.433595701672551570e+00 1.604787366391958869e+01 5.054478552482593479e+00 1.604787366391958869e+01 1.301579487215438391e+01
-2.591862545513377114e+01 -4.409730062101313131e+00 4.924638333002621771e+00 -4.409730062101313131e+00 -6.722740305594926191e+00 1.567330496978897081e+01 4.924638333002621771e+00 1.567330496978897081e+01 1.258332396329659630e+01
-2.588877649697220562e+01 -4.437453495924795988e+00 4.789172803420991720e+00 -4.437453495924795988e+00 -7.035045795408167990e+00 1.526712826287216096e+01 4.789172803420991720e+00 1.526712826287216096e+01 1.210702327670862388e+01
-2.586460781936931497e+01 -4.459405031761233928e+00 4.648045316766357793e+00 -4.459405031761233928e+00 -7.369834202142370394e+00 1.483049792276656476e+01 4.648045316766357793e+00 1.483049792276656476e+01 1.158672790101940642e+01
-2.584877632774770717e+01 -4.475602993096303273e+00 4.501127608639006183e+00 -4.475602993096303273e+00 -7.726207674999548303e+00 1.436458665255527123e+01 4.501127608639006183e+00 1.436458665255527123e+01 1.102197974908711942e+01
3.189169885435844876e+01 -1.360767410836977653e+01 -2.348742070135391202e+01 -1.360767410836977653e+01 3.310349620150970651e+01 1.332275076572541828e+01 -2.348742070135391202e+01 1.332275076572541828e+01 2.441162289466783264e+01
3.169616767836010851e+01 -1.365983554649668896e+01 -2.347998154077739130e+01 -1.365983554649668896e+01 3.289127057125983100e+01 1.328798229458022995e+01 -2.347998154077739130e+01 1.328798229458022995e+01 2.389088165431144972e+01
3.145877812700515719e+01 -1.369037801562423162e+01 -2.340847130002422460e+01 -1.369037801562423162e+01 3.264726261178633138e+01 1.321655936791833774e+01 -2.340847130002422460e+01 1.321655936791833774e+01 2.326328542905430652e+01
3.118335455749137708e+01 -1.369942375548018632e+01 -2.327385043409842424e+01 -1.369942375548018632e+01 3.237512205210444449e+01 1.310872646519531060e+01 -2.327385043409842424e+01 1.310872646519531060e+01 2.253513829628636245e+01
3.087118921836962215e+01 -1.368733948524790556e+01 -2.307730641464130983e+01 -1.368733948524790556e+01 3.207591412412771348e+01 1.296493761968577196e+01 -2.307730641464130983e+01 1.296493761968577196e+01 2.170949624920219634e+01
3.052301554800659744e+01 -1.365477132920281456e+01 -2.282044582093232421e+01 -1.365477132920281456e+01 3.174984838167518575e+01 1.278594373257467431e+01 -2.282044582093232421e+01 1.278594373257467431e+01 2.078906602463129616e+01
3.014003848086186821e+01 -1.360252257698462763e+01 -2.250525941425249954e+01 -1.360252257698462763e+01 3.139769318875007187e+01 1.257279257295730268e+01 -2.250525941425249954e+01 1.257279257295730268e+01 1.977737511186111874e+01
2.972344548857676116e+01 -1.353164099768863338e+01 -2.213406974942972028e+01 -1.353164099768863338e+01 3.101995496708176603e+01 1.232663668683847114e+01 -2.213406974942972028e+01 1.232663668683847114e+01 1.867793353736086814e+01
2.927465105942991030e+01 -1.344338391422917134e+01 -2.170949624920219634e+01 -1.344338391422917134e+01 3.061729730376394087e+01 1.204899533940634093e+01 -2.170949624920219634e+01 1.204899533940634093e+01 1.749474028651087920e+01
2.879461564842533150e+01 -1.333916581488487552e+01 -2.123438535294545204e+01 -1.333916581488487552e+01 3.018994721543391435e+01 1.174137033303081878e+01 -2.123438535294545204e+01 1.174137033303081878e+01 1.623168956778195593e+01
-4.032495295530056012e+01 6.713106868085028545e+00 -7.573190333477400671e+00 6.713106868085028545e+00 -3.629527829290835683e+01 -1.234812201088663031e+01 -7.573190333477400671e+00 -1.234812201088663031e+01 -4.499331044009585412e+01
-4.023697969473083447e+01 6.733766099986585374e+00 -7.497261938739577580e+00 6.733766099986585374e+00 -3.610604811435618444e+01 -1.235058053571624370e+01 -7.497261938739577580e+00 -1.235058053571624370e+01 -4.459398120943782118e+01
-4.008226415545330923e+01 6.750651782149664548e+00 -7.411175453039088978e+00 6.750651782149664548e+00 -3.585432566513500774e+01 -1.233649642835900195e+01 -7.411175453039088978e+00 -1.233649642835900195e+01 -4.402356533230352653e+01
-3.986301710398144138e+01 6.763935439562381191e+00 -7.314435359743610476e+00 6.763935439562381191e+00 -3.554222642009821698e+01 -1.230581251381886787e+01 -7.314435359743610476e+00 -1.230581251381886787e+01 -4.328814241660495554e+01
-3.958009616525579588e+01 6.773388372240583877e+00 -7.206870133865027839e+00 6.773388372240583877e+00 -3.517112257915070472e+01 -1.225803327546351618e+01 -7.206870133865027839e+00 -1.225803327546351618e+01 -4.238923712890310469e+01
-3.923466389752913130e+01 6.778972463520248404e+00 -7.088384483743279674e+00 6.778972463520248404e+00 -3.474255786718548933e+01 -1.219304436330087249e+01 -7.088384483743279674e+00 -1.219304436330087249e+01 -4.133237638548161641e+01
-3.882931223395515019e+01 6.780401838421186156e+00 -6.958883117718302813e+00 6.780401838421186156e+00 -3.425973408398066766e+01 -1.211038837736263396e+01 -6.958883117718302813e+00 -1.211038837736263396e+01 -4.012449741919301971e+01
-3.836537525777472268e+01 6.777962371923585749e+00 -6.818213569133997787e+00 6.777962371923585749e+00 -3.372469047106157802e+01 -1.200993190932471499e+01 -6.818213569133997787e+00 -1.200993190932471499e+01 -3.877084127134077818e+01
-3.784655028539827271e+01 6.770739264090845033e+00 -6.666375837990363706e+00 6.770739264090845033e+00 -3.314066694487035392e+01 -1.189100791756668052e+01 -6.666375837990363706e+00 -1.189100791756668052e+01 -3.728036535797075146e+01
-3.727582947495177734e+01 6.759513906535479677e+00 -6.503427099283440427e+00 6.759513906535479677e+00 -3.251309513003054974e+01 -1.175355922709248979e+01 -6.503427099283440427e+00 -1.175355922709248979e+01 -3.566017843692360856e+01
2.285711087814923381e+00 1.092293776163086960e+01 1.970073975383924747e+01 1.092293776163086960e+01 4.670466433778532434e+01 -1.397527471370219265e+00 1.970073975383924747e+01 -1.397527471370219265e+00 3.597258771424189661e+01
2.146998858163376322e+00 1.096266021969124793e+01 1.957473519550524799e+01 1.096266021969124793e+01 4.658537392944205635e+01 -1.387878077797145338e+00 1.957473519550524799e+01 -1.387878077797145338e+00 3.563368132648960795e+01
1.988566009952651426e+00 1.099225872383889069e+01 1.941043186012984378e+01 1.099225872383889069e+01 4.637124175840241946e+01 -1.376101950850042499e+00 1.941043186012984378e+01 -1.376101950850042499e+00 3.513407474668154862e+01
1.813892652340250544e+00 1.101159266360279076e+01 1.920825157912607750e+01 1.101159266360279076e+01 4.606650371510560404e+01 -1.362269395764415636e+00 1.920825157912607750e+01 -1.362269395764415636e+00 3.448457740477662981e+01
1.622574530222018696e+00 1.102064446267407227e+01 1.896872164176022935e+01 1.102064446267407227e+01 4.567286470151258726e+01 -1.346503446702398854e+00 1.896872164176022935e+01 -1.346503446702398854e+00 3.368750937354651853e+01
1.413328573049988712e+00 1.101966018937699943e+01 1.869259782931397851e+01 1.101966018937699943e+01 4.519246902730629500e+01 -1.328944714135001925e+00 1.869259782931397851e+01 -1.328944714135001925e+00 3.274573559133806100e+01
1.185240812762593965e+00 1.100888591203584532e+01 1.838058319414238184e+01 1.100888591203584532e+01 4.462830466499568161e+01 -1.309698655915483068e+00 1.838058319414238184e+01 -1.309698655915483068e+00 3.166350952489930748e+01
9.362723975301867618e-01 1.098893680146127494e+01 1.803345109383598910e+01 1.098893680146127494e+01 4.398328928185421915e+01 -1.288835577279346944e+00 1.803345109383598910e+01 -1.288835577279346944e+00 3.044506706466943413e+01
6.652457146580569303e-01 1.096034014691957736e+01 1.765202761491199013e+01 1.096034014691957736e+01 4.326174664986545793e+01 -1.266425783462098886e+00 1.765202761491199013e+01 -1.266425783462098886e+00 2.909555806914919174e+01
3.703504043319485461e-01 1.092385172969243534e+01 1.723731460697633011e+01 1.092385172969243534e+01 4.246829933826386849e+01 -1.242416545537109895e+00 1.723731460697633011e+01 -1.242416545537109895e+00 2.762108151751864682e+01