0.000000000000000000e+00 2.032270000000000021e+00 9.613690000000000069e+00 -1.760000000000000009e+00 5.080680000000000085e+00 9.613690000000000069e+00 -3.520000000000000018e+00 8.129089999999999705e+00 9.613690000000000069e+00 3.520000000000000018e+00 2.032270000000000021e+00 9.613690000000000069e+00 1.760000000000000009e+00 5.080680000000000085e+00 9.613690000000000069e+00 0.000000000000000000e+00 8.129089999999999705e+00 9.613690000000000069e+00 7.040000000000000036e+00 2.032270000000000021e+00 9.613690000000000069e+00 5.280000000000000249e+00 5.080680000000000085e+00 9.613690000000000069e+00 3.520000000000000018e+00 8.129089999999999705e+00 9.613690000000000069e+00 1.760000000000000009e+00 2.032270000000000021e+00 1.676031000000000049e+01 0.000000000000000000e+00 5.080680000000000085e+00 1.676031000000000049e+01 -1.760000000000000009e+00 8.129089999999999705e+00 1.676031000000000049e+01 5.280000000000000249e+00 2.032270000000000021e+00 1.676031000000000049e+01 3.520000000000000018e+00 5.080680000000000085e+00 1.676031000000000049e+01 1.760000000000000009e+00 8.129089999999999705e+00 1.676031000000000049e+01 8.800000000000000711e+00 2.032270000000000021e+00 1.676031000000000049e+01 7.040000000000000036e+00 5.080680000000000085e+00 1.676031000000000049e+01 5.280000000000000249e+00 8.129089999999999705e+00 1.676031000000000049e+01 0.000000000000000000e+00 2.032270000000000021e+00 1.323969999999999914e+01 -1.760000000000000009e+00 5.080680000000000085e+00 1.323969999999999914e+01 -3.520000000000000018e+00 8.129089999999999705e+00 1.323969999999999914e+01 3.520000000000000018e+00 2.032270000000000021e+00 1.323969999999999914e+01 1.760000000000000009e+00 5.080680000000000085e+00 1.323969999999999914e+01 0.000000000000000000e+00 8.129089999999999705e+00 1.323969999999999914e+01 7.040000000000000036e+00 2.032270000000000021e+00 1.323969999999999914e+01 5.280000000000000249e+00 5.080680000000000085e+00 1.323969999999999914e+01 3.520000000000000018e+00 8.129089999999999705e+00 1.323969999999999914e+01 1.760000000000000009e+00 2.032270000000000021e+00 2.038632000000000133e+01 0.000000000000000000e+00 5.080680000000000085e+00 2.038632000000000133e+01 -1.760000000000000009e+00 8.129089999999999705e+00 2.038632000000000133e+01 5.280000000000000249e+00 2.032270000000000021e+00 2.038632000000000133e+01 3.520000000000000018e+00 5.080680000000000085e+00 2.038632000000000133e+01 1.760000000000000009e+00 8.129089999999999705e+00 2.038632000000000133e+01 8.800000000000000711e+00 2.032270000000000021e+00 2.038632000000000133e+01 7.040000000000000036e+00 5.080680000000000085e+00 2.038632000000000133e+01 5.280000000000000249e+00 8.129089999999999705e+00 2.038632000000000133e+01 0.000000000000000000e+00 0.000000000000000000e+00 1.142666000000000004e+01 -1.760000000000000009e+00 3.048410000000000064e+00 1.142666000000000004e+01 -3.520000000000000018e+00 6.096820000000000128e+00 1.142666000000000004e+01 3.520000000000000018e+00 0.000000000000000000e+00 1.142666000000000004e+01 1.760000000000000009e+00 3.048410000000000064e+00 1.142666000000000004e+01 0.000000000000000000e+00 6.096820000000000128e+00 1.142666000000000004e+01 7.040000000000000036e+00 0.000000000000000000e+00 1.142666000000000004e+01 5.280000000000000249e+00 3.048410000000000064e+00 1.142666000000000004e+01 3.520000000000000018e+00 6.096820000000000128e+00 1.142666000000000004e+01 1.760000000000000009e+00 0.000000000000000000e+00 1.857336000000000098e+01 0.000000000000000000e+00 3.048410000000000064e+00 1.857336000000000098e+01 -1.760000000000000009e+00 6.096820000000000128e+00 1.857336000000000098e+01 5.280000000000000249e+00 0.000000000000000000e+00 1.857336000000000098e+01 3.520000000000000018e+00 3.048410000000000064e+00 1.857336000000000098e+01 1.760000000000000009e+00 6.096820000000000128e+00 1.857336000000000098e+01 8.800000000000000711e+00 0.000000000000000000e+00 1.857336000000000098e+01 7.040000000000000036e+00 3.048410000000000064e+00 1.857336000000000098e+01 5.280000000000000249e+00 6.096820000000000128e+00 1.857336000000000098e+01
-1.110000000000000092e-03 2.031379999999999963e+00 9.612510000000000332e+00 -1.760690000000000088e+00 5.079010000000000247e+00 9.615090000000000359e+00 -3.519690000000000207e+00 8.130150000000000432e+00 9.613149999999999196e+00 3.519089999999999829e+00 2.033420000000000005e+00 9.613540000000000418e+00 1.759730000000000016e+00 5.079609999999999737e+00 9.616490000000000649e+00 1.090000000000000040e-03 8.131330000000000169e+00 9.615059999999999718e+00 7.038829999999999920e+00 2.031359999999999832e+00 9.614150000000000418e+00 5.278380000000000294e+00 5.084579999999999878e+00 9.613390000000000768e+00 3.518810000000000215e+00 8.128249999999999531e+00 9.614330000000000709e+00 1.763069999999999915e+00 2.030510000000000037e+00 1.675900000000000034e+01 -2.550000000000000183e-03 5.079329999999999679e+00 1.675835000000000008e+01 -1.760809999999999986e+00 8.128429999999999822e+00 1.675741000000000014e+01 5.282060000000000421e+00 2.032109999999999861e+00 1.675970999999999833e+01 3.522899999999999920e+00 5.080770000000000231e+00 1.676182999999999979e+01 1.760029999999999983e+00 8.128859999999999530e+00 1.676058000000000092e+01 8.802199999999999136e+00 2.032239999999999824e+00 1.675974000000000075e+01 7.039310000000000400e+00 5.081360000000000099e+00 1.676011000000000095e+01 5.281609999999999694e+00 8.129410000000000025e+00 1.676209000000000060e+01 3.619999999999999954e-03 2.029689999999999994e+00 1.324056999999999995e+01 -1.760809999999999986e+00 5.081000000000000405e+00 1.324028999999999989e+01 -3.517310000000000159e+00 8.128320000000000434e+00 1.323798999999999992e+01 3.517570000000000086e+00 2.031899999999999817e+00 1.323953999999999986e+01 1.758019999999999916e+00 5.083199999999999719e+00 1.323902000000000001e+01 -5.999999999999999474e-04 8.128650000000000375e+00 1.323869999999999969e+01 7.037679999999999936e+00 2.033830000000000027e+00 1.323868000000000045e+01 5.281469999999999665e+00 5.080919999999999881e+00 1.324212999999999951e+01 3.522110000000000074e+00 8.126079999999999970e+00 1.323717000000000077e+01 1.758969999999999922e+00 2.031909999999999883e+00 2.038611999999999824e+01 1.299999999999999886e-04 5.078509999999999636e+00 2.038804000000000016e+01 -1.757160000000000055e+00 8.127810000000000201e+00 2.038467999999999947e+01 5.280039999999999623e+00 2.032509999999999817e+00 2.038917000000000002e+01 3.520399999999999974e+00 5.077770000000000117e+00 2.038664999999999949e+01 1.758550000000000058e+00 8.129200000000000870e+00 2.038611999999999824e+01 8.801550000000000651e+00 2.036039999999999850e+00 2.038600999999999885e+01 7.038549999999999862e+00 5.080420000000000158e+00 2.038494000000000028e+01 5.274890000000000079e+00 8.128629999999999356e+00 2.038840000000000074e+01 -7.500000000000000156e-04 2.619999999999999933e-03 1.142498999999999931e+01 -1.759649999999999936e+00 3.048399999999999999e+00 1.142665000000000042e+01 7.037720000000000198e+00 6.099409999999999776e+00 1.142816999999999972e+01 -1.760690000000000088e+00 9.144000000000000128e+00 1.142764000000000024e+01 1.761949999999999905e+00 3.045370000000000132e+00 1.142572000000000010e+01 -2.210000000000000159e-03 6.099879999999999747e+00 1.143125999999999998e+01 1.759929999999999994e+00 9.144190000000000040e+00 1.142420000000000080e+01 5.282980000000000231e+00 3.049929999999999808e+00 1.142506999999999984e+01 3.520259999999999945e+00 6.095509999999999984e+00 1.142577999999999960e+01 1.758289999999999909e+00 9.300000000000000541e-04 1.857687999999999917e+01 2.360000000000000119e-03 3.048259999999999970e+00 1.857409000000000177e+01 -1.760299999999999976e+00 6.097739999999999938e+00 1.857307000000000130e+01 5.278730000000000366e+00 1.479999999999999979e-03 1.857214000000000098e+01 3.520659999999999901e+00 3.048299999999999788e+00 1.857217999999999947e+01 1.758029999999999982e+00 6.097430000000000128e+00 1.857290000000000063e+01 8.802170000000000272e+00 2.299999999999999961e-03 1.857327000000000083e+01 7.040289999999999715e+00 3.048189999999999955e+00 1.857511999999999830e+01 5.280369999999999564e+00 6.095950000000000202e+00 1.857034000000000162e+01
-2.220000000000000185e-03 2.030499999999999972e+00 9.611319999999999197e+00 -1.761379999999999946e+00 5.077359999999999651e+00 9.616490000000000649e+00 -3.519390000000000018e+00 8.131209999999999383e+00 9.612619999999999720e+00 3.518180000000000085e+00 2.034559999999999924e+00 9.613379999999999370e+00 1.759439999999999893e+00 5.078549999999999898e+00 9.619289999999999452e+00 2.170000000000000054e-03 8.133559999999999235e+00 9.616419999999999746e+00 7.037659999999999805e+00 2.030450000000000088e+00 9.614589999999999748e+00 5.276760000000000339e+00 5.088479999999999670e+00 9.613089999999999691e+00 3.517619999999999969e+00 8.127420000000000755e+00 9.614959999999999951e+00 1.766129999999999978e+00 2.028750000000000053e+00 1.675769999999999982e+01 -5.089999999999999906e-03 5.077980000000000160e+00 1.675638999999999967e+01 -1.761630000000000029e+00 8.127769999999999939e+00 1.675451999999999941e+01 5.284110000000000085e+00 2.031950000000000145e+00 1.675910999999999973e+01 3.525799999999999823e+00 5.080849999999999866e+00 1.676333999999999946e+01 1.760059999999999958e+00 8.128619999999999735e+00 1.676085000000000136e+01 8.804389999999999716e+00 2.032210000000000072e+00 1.675917000000000101e+01 7.038630000000000386e+00 5.082019999999999982e+00 1.675991000000000142e+01 5.283210000000000406e+00 8.129730000000000345e+00 1.676386000000000109e+01 7.219999999999999855e-03 2.027120000000000033e+00 1.324144000000000077e+01 -1.761630000000000029e+00 5.081319999999999837e+00 1.324088000000000065e+01 -3.514639999999999986e+00 8.127560000000000784e+00 1.323628000000000071e+01 3.515150000000000219e+00 2.031519999999999992e+00 1.323938000000000059e+01 1.756040000000000045e+00 5.085720000000000240e+00 1.323835000000000051e+01 -1.190000000000000085e-03 8.128230000000000288e+00 1.323771999999999949e+01 7.035359999999999836e+00 2.035379999999999967e+00 1.323765999999999998e+01 5.282930000000000348e+00 5.081150000000000055e+00 1.324455999999999989e+01 3.524220000000000130e+00 8.123070000000000235e+00 1.323464000000000063e+01 1.757949999999999902e+00 2.031550000000000189e+00 2.038590999999999909e+01 2.599999999999999772e-04 5.076349999999999696e+00 2.038974999999999937e+01 -1.754320000000000102e+00 8.126530000000000697e+00 2.038303000000000154e+01 5.280079999999999885e+00 2.032739999999999991e+00 2.039200999999999908e+01 3.520809999999999995e+00 5.074869999999999770e+00 2.038695999999999842e+01 1.757090000000000041e+00 8.129300000000000637e+00 2.038590999999999909e+01 8.803100000000000591e+00 2.039789999999999992e+00 2.038570999999999955e+01 7.037099999999999689e+00 5.080160000000000231e+00 2.038356999999999886e+01 5.269790000000000418e+00 8.128170000000000783e+00 2.039048000000000016e+01 -1.490000000000000005e-03 5.230000000000000274e-03 1.142332999999999998e+01 -1.759290000000000020e+00 3.048379999999999868e+00 1.142666000000000004e+01 7.035440000000000360e+00 6.101989999999999803e+00 1.142967999999999940e+01 -1.761379999999999946e+00 9.142789999999999750e+00 1.142862000000000045e+01 1.763870000000000049e+00 3.042349999999999888e+00 1.142478000000000016e+01 -4.420000000000000318e-03 6.102920000000000122e+00 1.143582999999999927e+01 1.759859999999999980e+00 9.143159999999999954e+00 1.142177000000000042e+01 5.285929999999999573e+00 3.051449999999999996e+00 1.142350000000000065e+01 3.520529999999999937e+00 6.094190000000000218e+00 1.142492000000000019e+01 1.756590000000000096e+00 1.850000000000000082e-03 1.858039000000000129e+01 4.720000000000000237e-03 3.048109999999999875e+00 1.857480999999999938e+01 -1.760599999999999943e+00 6.098650000000000126e+00 1.857276999999999845e+01 5.277479999999999727e+00 2.949999999999999931e-03 1.857091000000000136e+01 3.521319999999999784e+00 3.048189999999999955e+00 1.857101000000000113e+01 1.756070000000000020e+00 6.098029999999999617e+00 1.857244999999999990e+01 8.804320000000000590e+00 4.590000000000000330e-03 1.857319000000000031e+01 7.040580000000000283e+00 3.047979999999999912e+00 1.857686999999999955e+01 5.280730000000000146e+00 6.095089999999999897e+00 1.856736000000000075e+01
-3.320000000000000034e-03 2.029630000000000045e+00 9.610129999999999839e+00 -1.762059999999999960e+00 5.075719999999999565e+00 9.617910000000000181e+00 -3.519089999999999829e+00 8.132279999999999731e+00 9.612080000000000624e+00 3.517290000000000028e+00 2.035690000000000222e+00 9.613229999999999720e+00 1.759149999999999991e+00 5.077490000000000059e+00 9.622090000000000032e+00 3.239999999999999825e-03 8.135780000000000456e+00 9.617779999999999774e+00 7.036500000000000199e+00 2.029549999999999965e+00 9.615030000000000854e+00 5.275150000000000006e+00 5.092360000000000220e+00 9.612780000000000769e+00 3.516439999999999788e+00 8.126580000000000581e+00 9.615579999999999572e+00 1.769190000000000040e+00 2.027000000000000135e+00 1.675640999999999892e+01 -7.620000000000000037e-03 5.076629999999999754e+00 1.675443999999999889e+01 -1.762450000000000072e+00 8.127119999999999678e+00 1.675166000000000111e+01 5.286159999999999748e+00 2.031800000000000050e+00 1.675851000000000113e+01 3.528659999999999908e+00 5.080940000000000012e+00 1.676482999999999990e+01 1.760099999999999998e+00 8.128389999999999560e+00 1.676111999999999824e+01 8.806580000000000297e+00 2.032179999999999875e+00 1.675861000000000089e+01 7.037959999999999994e+00 5.082679999999999865e+00 1.675970999999999833e+01 5.284819999999999851e+00 8.130050000000000665e+00 1.676563000000000159e+01 1.081000000000000016e-02 2.024550000000000072e+00 1.324230999999999980e+01 -1.762450000000000072e+00 5.081629999999999647e+00 1.324146999999999963e+01 -3.511979999999999880e+00 8.126810000000000755e+00 1.323457999999999934e+01 3.512760000000000105e+00 2.031149999999999789e+00 1.323921999999999954e+01 1.754070000000000018e+00 5.088199999999999612e+00 1.323766999999999960e+01 -1.779999999999999898e-03 8.127819999999999823e+00 1.323675000000000068e+01 7.033059999999999867e+00 2.036910000000000220e+00 1.323663999999999952e+01 5.284370000000000012e+00 5.081380000000000230e+00 1.324698000000000064e+01 3.526320000000000121e+00 8.120070000000000121e+00 1.323211000000000048e+01 1.756939999999999946e+00 2.031190000000000051e+00 2.038571999999999917e+01 3.899999999999999929e-04 5.074200000000000266e+00 2.039143999999999934e+01 -1.751500000000000057e+00 8.125260000000000815e+00 2.038139999999999930e+01 5.280120000000000147e+00 2.032970000000000166e+00 2.039482999999999890e+01 3.521199999999999886e+00 5.071979999999999933e+00 2.038726000000000127e+01 1.755649999999999933e+00 8.129419999999999646e+00 2.038569000000000031e+01 8.804650000000000531e+00 2.043540000000000134e+00 2.038541000000000025e+01 7.035660000000000025e+00 5.079909999999999926e+00 2.038220000000000098e+01 5.264710000000000001e+00 8.127710000000000434e+00 2.039254000000000033e+01 -2.210000000000000159e-03 7.790000000000000049e-03 1.142168999999999990e+01 -1.758930000000000105e+00 3.048340000000000050e+00 1.142667999999999928e+01 7.033179999999999765e+00 6.104529999999999568e+00 1.143115000000000059e+01 -1.762040000000000051e+00 9.141600000000000392e+00 1.142956000000000039e+01 1.765759999999999996e+00 3.039369999999999905e+00 1.142387000000000086e+01 -6.620000000000000016e-03 6.105929999999999858e+00 1.144031999999999982e+01 1.759789999999999965e+00 9.142139999999999489e+00 1.141938999999999993e+01 5.288820000000000299e+00 3.052979999999999805e+00 1.142195000000000071e+01 3.520799999999999930e+00 6.092880000000000074e+00 1.142408000000000001e+01 1.754909999999999970e+00 2.739999999999999814e-03 1.858386000000000138e+01 7.069999999999999896e-03 3.047969999999999846e+00 1.857548999999999850e+01 -1.760890000000000066e+00 6.099540000000000184e+00 1.857246999999999915e+01 5.276229999999999976e+00 4.420000000000000318e-03 1.856970000000000098e+01 3.521990000000000176e+00 3.048049999999999926e+00 1.856985999999999848e+01 1.754119999999999902e+00 6.098600000000000243e+00 1.857200999999999880e+01 8.806440000000000268e+00 6.859999999999999779e-03 1.857310999999999979e+01 7.040879999999999583e+00 3.047759999999999803e+00 1.857857999999999876e+01 5.281089999999999840e+00 6.094260000000000232e+00 1.856444000000000116e+01
-4.409999999999999858e-03 2.028779999999999806e+00 9.608930000000000859e+00 -1.762750000000000039e+00 5.074110000000000120e+00 9.619329999999999714e+00 -3.518790000000000084e+00 8.133340000000000458e+00 9.611539999999999750e+00 3.516430000000000167e+00 2.036799999999999944e+00 9.613070000000000448e+00 1.758829999999999893e+00 5.076439999999999841e+00 9.624879999999999214e+00 4.290000000000000410e-03 8.137980000000000658e+00 9.619109999999999161e+00 7.035359999999999836e+00 2.028649999999999842e+00 9.615449999999999164e+00 5.273559999999999803e+00 5.096230000000000260e+00 9.612460000000000448e+00 3.515270000000000117e+00 8.125750000000000028e+00 9.616179999999999950e+00 1.772229999999999972e+00 2.025240000000000151e+00 1.675513000000000119e+01 -1.013000000000000012e-02 5.075289999999999857e+00 1.675251000000000090e+01 -1.763279999999999959e+00 8.126490000000000435e+00 1.674881999999999849e+01 5.288210000000000299e+00 2.031639999999999890e+00 1.675789999999999935e+01 3.531499999999999861e+00 5.081019999999999648e+00 1.676630000000000109e+01 1.760140000000000038e+00 8.128170000000000783e+00 1.676139999999999830e+01 8.808759999999999479e+00 2.032160000000000188e+00 1.675806000000000040e+01 7.037300000000000111e+00 5.083319999999999617e+00 1.675950999999999880e+01 5.286410000000000053e+00 8.130380000000000607e+00 1.676736999999999966e+01 1.438000000000000042e-02 2.022009999999999863e+00 1.324316999999999922e+01 -1.763290000000000024e+00 5.081940000000000346e+00 1.324206000000000039e+01 -3.509370000000000100e+00 8.126079999999999970e+00 1.323291000000000039e+01 3.510400000000000187e+00 2.030780000000000030e+00 1.323905000000000065e+01 1.752119999999999900e+00 5.090659999999999741e+00 1.323700000000000010e+01 -2.360000000000000119e-03 8.127430000000000376e+00 1.323582000000000036e+01 7.030789999999999651e+00 2.038419999999999899e+00 1.323560999999999943e+01 5.285809999999999675e+00 5.081599999999999895e+00 1.324937000000000076e+01 3.528410000000000046e+00 8.117100000000000648e+00 1.322959999999999958e+01 1.755949999999999900e+00 2.030839999999999979e+00 2.038554999999999851e+01 5.199999999999999544e-04 5.072070000000000078e+00 2.039311999999999969e+01 -1.748699999999999921e+00 8.124000000000000554e+00 2.037978999999999985e+01 5.280149999999999899e+00 2.033199999999999896e+00 2.039762999999999948e+01 3.521590000000000220e+00 5.069119999999999848e+00 2.038755000000000095e+01 1.754210000000000047e+00 8.129550000000000054e+00 2.038544999999999874e+01 8.806200000000000472e+00 2.047260000000000080e+00 2.038512000000000057e+01 7.034220000000000361e+00 5.079679999999999751e+00 2.038083999999999918e+01 5.259660000000000224e+00 8.127230000000000842e+00 2.039460000000000051e+01 -2.899999999999999800e-03 1.030000000000000013e-02 1.142005999999999943e+01 -1.758550000000000058e+00 3.048280000000000101e+00 1.142672999999999917e+01 7.030949999999999811e+00 6.107029999999999959e+00 1.143257999999999974e+01 -1.762680000000000025e+00 9.140459999999999141e+00 1.143046999999999969e+01 1.767579999999999929e+00 3.036439999999999806e+00 1.142298000000000080e+01 -8.800000000000000530e-03 6.108880000000000088e+00 1.144471000000000060e+01 1.759710000000000107e+00 9.141149999999999665e+00 1.141709999999999958e+01 5.291629999999999612e+00 3.054510000000000058e+00 1.142042000000000002e+01 3.521079999999999988e+00 6.091580000000000439e+00 1.142328000000000010e+01 1.753270000000000106e+00 3.579999999999999849e-03 1.858727999999999980e+01 9.409999999999999962e-03 3.047849999999999948e+00 1.857611999999999952e+01 -1.761169999999999902e+00 6.100389999999999979e+00 1.857216000000000022e+01 5.275009999999999977e+00 5.879999999999999810e-03 1.856849000000000061e+01 3.522670000000000190e+00 3.047890000000000210e+00 1.856873999999999825e+01 1.752199999999999980e+00 6.099140000000000228e+00 1.857158000000000087e+01 8.808490000000000819e+00 9.110000000000000042e-03 1.857304999999999851e+01 7.041170000000000151e+00 3.047550000000000203e+00 1.858025999999999911e+01 5.281419999999999781e+00 6.093449999999999811e+00 1.856161000000000172e+01
-5.499999999999999681e-03 2.027950000000000141e+00 9.607730000000000103e+00 -1.763439999999999896e+00 5.072540000000000049e+00 9.620770000000000266e+00 -3.518499999999999961e+00 8.134399999999999409e+00 9.611000000000000654e+00 3.515589999999999993e+00 2.037900000000000045e+00 9.612909999999999400e+00 1.758480000000000043e+00 5.075409999999999755e+00 9.627670000000000172e+00 5.309999999999999616e-03 8.140150000000000219e+00 9.620430000000000703e+00 7.034250000000000114e+00 2.027779999999999916e+00 9.615850000000000009e+00 5.272000000000000242e+00 5.100080000000000169e+00 9.612130000000000507e+00 3.514120000000000132e+00 8.124919999999999476e+00 9.616749999999999687e+00 1.775249999999999995e+00 2.023489999999999789e+00 1.675387999999999877e+01 -1.261999999999999927e-02 5.073949999999999960e+00 1.675061000000000178e+01 -1.764119999999999910e+00 8.125870000000000815e+00 1.674603000000000108e+01 5.290250000000000341e+00 2.031499999999999861e+00 1.675730000000000075e+01 3.534279999999999866e+00 5.081109999999999793e+00 1.676773999999999987e+01 1.760199999999999987e+00 8.127959999999999852e+00 1.676166999999999874e+01 8.810930000000000817e+00 2.032160000000000188e+00 1.675750999999999991e+01 7.036660000000000359e+00 5.083940000000000126e+00 1.675930999999999926e+01 5.288009999999999877e+00 8.130720000000000169e+00 1.676908999999999850e+01 1.790999999999999884e-02 2.019489999999999785e+00 1.324402000000000079e+01 -1.764140000000000041e+00 5.082230000000000025e+00 1.324266000000000076e+01 -3.506800000000000139e+00 8.125370000000000203e+00 1.323127000000000031e+01 3.508100000000000218e+00 2.030419999999999892e+00 1.323886000000000074e+01 1.750189999999999912e+00 5.093079999999999607e+00 1.323633000000000060e+01 -2.919999999999999853e-03 8.127090000000000813e+00 1.323492000000000068e+01 7.028550000000000075e+00 2.039899999999999824e+00 1.323459000000000074e+01 5.287219999999999587e+00 5.081819999999999560e+00 1.325174999999999947e+01 3.530479999999999841e+00 8.114160000000000039e+00 1.322710000000000008e+01 1.754979999999999984e+00 2.030499999999999972e+00 2.038540000000000063e+01 6.400000000000000524e-04 5.069960000000000022e+00 2.039478000000000080e+01 -1.745929999999999982e+00 8.122759999999999536e+00 2.037819999999999965e+01 5.280170000000000030e+00 2.033430000000000071e+00 2.040040000000000120e+01 3.521970000000000045e+00 5.066279999999999895e+00 2.038779999999999859e+01 1.752790000000000070e+00 8.129690000000000083e+00 2.038519000000000148e+01 8.807750000000000412e+00 2.050969999999999960e+00 2.038484000000000052e+01 7.032799999999999940e+00 5.079460000000000086e+00 2.037949000000000055e+01 5.254640000000000200e+00 8.126749999999999474e+00 2.039664000000000144e+01 -3.559999999999999797e-03 1.273000000000000000e-02 1.141845999999999961e+01 -1.758150000000000102e+00 3.048189999999999955e+00 1.142681999999999931e+01 7.028760000000000119e+00 6.109479999999999578e+00 1.143396000000000079e+01 -1.763279999999999959e+00 9.139359999999999928e+00 1.143131999999999948e+01 1.769309999999999938e+00 3.033570000000000100e+00 1.142212999999999923e+01 -1.097000000000000058e-02 6.111780000000000435e+00 1.144894999999999996e+01 1.759640000000000093e+00 9.140200000000000102e+00 1.141489999999999938e+01 5.294340000000000046e+00 3.056049999999999933e+00 1.141892999999999958e+01 3.521370000000000111e+00 6.090270000000000294e+00 1.142252000000000045e+01 1.751679999999999904e+00 4.380000000000000213e-03 1.859064000000000050e+01 1.171999999999999952e-02 3.047750000000000181e+00 1.857668999999999926e+01 -1.761439999999999895e+00 6.101189999999999891e+00 1.857185000000000130e+01 5.273810000000000109e+00 7.329999999999999710e-03 1.856728000000000023e+01 3.523359999999999825e+00 3.047680000000000167e+00 1.856766000000000005e+01 1.750320000000000098e+00 6.099630000000000329e+00 1.857115999999999900e+01 8.810480000000000089e+00 1.132000000000000020e-02 1.857300000000000040e+01 7.041479999999999961e+00 3.047330000000000094e+00 1.858186999999999856e+01 5.281749999999999723e+00 6.092690000000000161e+00 1.855890000000000128e+01
-6.590000000000000371e-03 2.027140000000000164e+00 9.606519999999999726e+00 -1.764129999999999976e+00 5.071010000000000240e+00 9.622230000000000061e+00 -3.518229999999999968e+00 8.135460000000000136e+00 9.610459999999999781e+00 3.514800000000000146e+00 2.038969999999999949e+00 9.612740000000000506e+00 1.758089999999999931e+00 5.074379999999999669e+00 9.630449999999999733e+00 6.309999999999999637e-03 8.142279999999999518e+00 9.621710000000000207e+00 7.033159999999999634e+00 2.026909999999999989e+00 9.616220000000000212e+00 5.270459999999999923e+00 5.103900000000000325e+00 9.611779999999999546e+00 3.512980000000000214e+00 8.124079999999999302e+00 9.617300000000000182e+00 1.778259999999999952e+00 2.021749999999999936e+00 1.675264999999999915e+01 -1.507999999999999965e-02 5.072630000000000194e+00 1.674872999999999834e+01 -1.764979999999999993e+00 8.125280000000000058e+00 1.674330000000000140e+01 5.292279999999999873e+00 2.031369999999999898e+00 1.675669999999999860e+01 3.536999999999999922e+00 5.081190000000000317e+00 1.676914999999999978e+01 1.760259999999999936e+00 8.127769999999999939e+00 1.676194999999999879e+01 8.813090000000000757e+00 2.032169999999999810e+00 1.675697999999999865e+01 7.036050000000000360e+00 5.084529999999999994e+00 1.675910000000000011e+01 5.289589999999999570e+00 8.131069999999999354e+00 1.677079000000000164e+01 2.140999999999999848e-02 2.017009999999999970e+00 1.324484999999999957e+01 -1.765009999999999968e+00 5.082519999999999705e+00 1.324327000000000076e+01 -3.504290000000000127e+00 8.124689999999999301e+00 1.322967000000000048e+01 3.505860000000000198e+00 2.030060000000000198e+00 1.323867000000000083e+01 1.748289999999999900e+00 5.095449999999999591e+00 1.323567000000000071e+01 -3.469999999999999994e-03 8.126789999999999736e+00 1.323408000000000051e+01 7.026340000000000252e+00 2.041349999999999998e+00 1.323357000000000028e+01 5.288610000000000255e+00 5.082040000000000113e+00 1.325409999999999933e+01 3.532540000000000013e+00 8.111250000000000071e+00 1.322461000000000020e+01 1.754050000000000109e+00 2.030180000000000096e+00 2.038526999999999845e+01 7.500000000000000156e-04 5.067879999999999718e+00 2.039641999999999911e+01 -1.743200000000000083e+00 8.121539999999999537e+00 2.037662999999999869e+01 5.280190000000000161e+00 2.033650000000000180e+00 2.040313000000000088e+01 3.522339999999999804e+00 5.063489999999999824e+00 2.038802000000000092e+01 1.751379999999999937e+00 8.129849999999999355e+00 2.038491000000000142e+01 8.809290000000000731e+00 2.054640000000000022e+00 2.038457999999999970e+01 7.031380000000000408e+00 5.079259999999999664e+00 2.037813999999999837e+01 5.249649999999999928e+00 8.126239999999999242e+00 2.039866999999999919e+01 -4.170000000000000095e-03 1.507000000000000006e-02 1.141689000000000043e+01 -1.757719999999999949e+00 3.048059999999999992e+00 1.142694000000000010e+01 7.026600000000000179e+00 6.111839999999999939e+00 1.143526999999999916e+01 -1.763830000000000009e+00 9.138339999999999463e+00 1.143210999999999977e+01 1.770939999999999959e+00 3.030790000000000095e+00 1.142131999999999969e+01 -1.311000000000000013e-02 6.114589999999999748e+00 1.145301000000000080e+01 1.759560000000000013e+00 9.139279999999999404e+00 1.141282999999999959e+01 5.296909999999999563e+00 3.057599999999999874e+00 1.141749000000000080e+01 3.521679999999999922e+00 6.088969999999999771e+00 1.142182999999999993e+01 1.750150000000000095e+00 5.100000000000000366e-03 1.859392000000000067e+01 1.400999999999999988e-02 3.047670000000000101e+00 1.857717999999999847e+01 -1.761700000000000044e+00 6.101939999999999920e+00 1.857150999999999996e+01 5.272649999999999615e+00 8.770000000000000018e-03 1.856607999999999947e+01 3.524070000000000036e+00 3.047429999999999861e+00 1.856662000000000035e+01 1.748469999999999969e+00 6.100050000000000416e+00 1.857075000000000031e+01 8.812379999999999214e+00 1.349000000000000025e-02 1.857297000000000153e+01 7.041780000000000150e+00 3.047109999999999985e+00 1.858342000000000027e+01 5.282049999999999912e+00 6.091990000000000016e+00 1.855633999999999872e+01