1.999999999999999909e-06 3.987000000000000093e-03 5.860000000000000408e-04 9.999999999999999547e-07 3.984999999999999827e-03 5.829999999999999679e-04 9.999999999999999547e-07 3.985999999999999960e-03 5.829999999999999679e-04 0.000000000000000000e+00 3.985999999999999960e-03 5.850000000000000165e-04 0.000000000000000000e+00 3.983000000000000429e-03 5.850000000000000165e-04 9.999999999999999547e-07 3.987000000000000093e-03 5.850000000000000165e-04 -9.999999999999999547e-07 3.983999999999999694e-03 5.850000000000000165e-04 -1.999999999999999909e-06 3.983000000000000429e-03 5.850000000000000165e-04 -1.999999999999999909e-06 3.985999999999999960e-03 5.820000000000000520e-04 9.999999999999999547e-07 -2.936999999999999941e-03 2.620000000000000258e-04 1.999999999999999909e-06 -2.939000000000000206e-03 2.620000000000000258e-04 0.000000000000000000e+00 -2.939000000000000206e-03 2.599999999999999772e-04 -9.999999999999999547e-07 -2.938000000000000073e-03 2.620000000000000258e-04 -9.999999999999999547e-07 -2.941000000000000038e-03 2.620000000000000258e-04 1.999999999999999909e-06 -2.939000000000000206e-03 2.620000000000000258e-04 1.999999999999999909e-06 -2.939999999999999905e-03 2.620000000000000258e-04 9.999999999999999547e-07 -2.939000000000000206e-03 2.599999999999999772e-04 -1.999999999999999909e-06 -2.936999999999999941e-03 2.620000000000000258e-04 1.999999999999999909e-06 -2.935999999999999808e-03 -2.759999999999999867e-04 0.000000000000000000e+00 -2.939999999999999905e-03 -2.730000000000000222e-04 9.999999999999999547e-07 -2.938000000000000073e-03 -2.719999999999999979e-04 0.000000000000000000e+00 -2.938000000000000073e-03 -2.759999999999999867e-04 9.999999999999999547e-07 -2.939999999999999905e-03 -2.739999999999999923e-04 1.999999999999999909e-06 -2.936999999999999941e-03 -2.750000000000000166e-04 -1.999999999999999909e-06 -2.939999999999999905e-03 -2.730000000000000222e-04 0.000000000000000000e+00 -2.939999999999999905e-03 -2.750000000000000166e-04 -3.000000000000000076e-06 -2.938000000000000073e-03 -2.719999999999999979e-04 0.000000000000000000e+00 3.987000000000000093e-03 -6.019999999999999961e-04 0.000000000000000000e+00 3.984999999999999827e-03 -6.030000000000000204e-04 -9.999999999999999547e-07 3.984999999999999827e-03 -6.009999999999999717e-04 -1.999999999999999909e-06 3.985999999999999960e-03 -6.019999999999999961e-04 -9.999999999999999547e-07 3.983000000000000429e-03 -6.019999999999999961e-04 9.999999999999999547e-07 3.983999999999999694e-03 -6.009999999999999717e-04 0.000000000000000000e+00 3.984999999999999827e-03 -6.009999999999999717e-04 0.000000000000000000e+00 3.984999999999999827e-03 -5.999999999999999474e-04 -1.999999999999999909e-06 3.987000000000000093e-03 -6.009999999999999717e-04 0.000000000000000000e+00 -9.680000000000000019e-04 -8.399999999999999535e-05 9.999999999999999547e-07 -9.730000000000000151e-04 -8.399999999999999535e-05 -9.999999999999999547e-07 -9.749999999999999552e-04 -8.299999999999999815e-05 3.000000000000000076e-06 -9.680000000000000019e-04 -8.500000000000000611e-05 0.000000000000000000e+00 -9.709999999999999664e-04 -8.200000000000000095e-05 3.000000000000000076e-06 -9.709999999999999664e-04 -8.399999999999999535e-05 -1.999999999999999909e-06 -9.700000000000000505e-04 -8.299999999999999815e-05 -3.000000000000000076e-06 -9.759999999999999796e-04 -8.600000000000000331e-05 -3.000000000000000076e-06 -9.759999999999999796e-04 -8.399999999999999535e-05 -9.999999999999999547e-07 -9.700000000000000505e-04 1.129999999999999955e-04 0.000000000000000000e+00 -9.719999999999999907e-04 1.140000000000000063e-04 1.999999999999999909e-06 -9.730000000000000151e-04 1.140000000000000063e-04 9.999999999999999547e-07 -9.730000000000000151e-04 1.140000000000000063e-04 0.000000000000000000e+00 -9.709999999999999664e-04 1.140000000000000063e-04 0.000000000000000000e+00 -9.719999999999999907e-04 1.129999999999999955e-04 0.000000000000000000e+00 -9.719999999999999907e-04 1.140000000000000063e-04 -9.999999999999999547e-07 -9.730000000000000151e-04 1.140000000000000063e-04 -3.000000000000000076e-06 -9.719999999999999907e-04 1.150000000000000035e-04
6.902000000000000149e-03 2.245199999999999974e-02 -3.490000000000000047e-03 -5.700000000000000314e-05 3.527700000000000280e-02 1.394300000000000053e-02 -6.714000000000000350e-03 2.521999999999999936e-03 6.809999999999999647e-04 2.712699999999999834e-02 -1.439000000000000001e-02 -9.129999999999999661e-04 -2.521400000000000030e-02 1.437699999999999916e-02 -4.701000000000000317e-03 -2.260900000000000062e-02 -2.292299999999999893e-02 -1.765500000000000055e-02 1.938199999999999992e-02 1.509100000000000025e-02 -1.820700000000000096e-02 2.095999999999999946e-02 -1.741499999999999992e-02 -8.500000000000000611e-03 1.223300000000000082e-02 4.068999999999999700e-03 -1.997499999999999970e-02 -1.649199999999999972e-02 2.867000000000000191e-03 2.012999999999999859e-02 2.081099999999999964e-02 4.753000000000000280e-03 2.234999999999999834e-02 -1.052600000000000063e-02 1.484599999999999982e-02 3.963099999999999956e-02 -6.506999999999999763e-03 4.387000000000000274e-03 1.159000000000000091e-03 -4.175399999999999945e-02 -1.737000000000000046e-03 -2.406600000000000059e-02 6.889000000000000158e-03 7.820000000000000562e-03 2.439000000000000196e-03 -8.732999999999999444e-03 8.909000000000000252e-03 9.917999999999999733e-03 1.633599999999999983e-02 -1.985800000000000065e-02 -9.859999999999998974e-04 -5.707000000000000267e-03 5.872999999999999748e-03 -1.863799999999999832e-02 -2.996199999999999905e-02 2.144300000000000025e-02 -9.346000000000000141e-03 -1.153200000000000058e-02 -9.879000000000000628e-03 3.886000000000000131e-03 -4.139400000000000024e-02 1.781699999999999950e-02 2.467799999999999855e-02 4.559200000000000058e-02 3.093999999999999962e-03 -8.807000000000000592e-03 1.957100000000000159e-02 -3.857399999999999718e-02 2.784000000000000016e-03 1.243400000000000061e-02 2.789099999999999913e-02 3.469799999999999968e-02 2.780099999999999932e-02 -2.869100000000000122e-02 2.880000000000000073e-04 -1.844900000000000012e-02 -6.374000000000000325e-03 -2.055699999999999888e-02 -1.430599999999999927e-02 2.386500000000000080e-02 1.181399999999999985e-02 2.184399999999999883e-02 1.213799999999999948e-02 1.697299999999999850e-02 -4.155999999999999972e-03 2.588499999999999829e-02 -1.951500000000000110e-02 -2.567300000000000137e-02 1.763699999999999990e-02 1.762999999999999984e-02 -5.132000000000000277e-03 -8.530000000000000256e-04 -2.782400000000000151e-02 -8.734000000000000444e-03 3.124100000000000141e-02 -2.432600000000000040e-02 1.159400000000000014e-02 1.588200000000000028e-02 -1.885699999999999876e-02 -2.657000000000000074e-03 -1.969600000000000170e-02 9.821999999999999134e-03 8.802000000000000796e-03 1.773100000000000023e-02 8.885000000000000536e-03 3.143100000000000060e-02 -7.856999999999999401e-03 -1.432399999999999993e-02 2.462500000000000105e-02 -5.042699999999999960e-02 1.693499999999999867e-02 1.299200000000000008e-02 -2.056300000000000142e-02 2.180599999999999900e-02 2.334100000000000064e-02 -3.953700000000000270e-02 -3.589200000000000029e-02 2.341599999999999931e-02 3.400999999999999857e-02 -3.361499999999999905e-02 -5.405499999999999888e-02 4.488700000000000329e-02 2.312799999999999925e-02 1.301899999999999932e-02 -4.350899999999999906e-02 -9.357600000000000640e-02 -9.210000000000000521e-04 2.019299999999999914e-02 6.649199999999999555e-02 -7.037699999999999512e-02 3.775000000000000144e-03 2.519700000000000065e-02 8.120999999999999747e-03 2.145000000000000205e-03 3.024500000000000105e-02 3.155399999999999872e-02 -3.575500000000000206e-02 -4.301100000000000062e-02 -1.360800000000000030e-02 1.155300000000000077e-02 -4.156599999999999878e-02 7.901999999999999302e-03 -3.105099999999999874e-02 -6.043999999999999893e-03 1.776399999999999854e-02 -7.986999999999999308e-03 5.020000000000000157e-03 7.830000000000000154e-03 -2.541300000000000156e-02 2.461100000000000093e-02 2.240400000000000030e-02 -3.256799999999999973e-02 8.920000000000000845e-03 -4.779699999999999921e-02 -2.448499999999999982e-02 1.002699999999999945e-02 2.664999999999999834e-03 -8.279999999999999600e-04 -3.758999999999999841e-02 -1.228899999999999958e-02 2.706400000000000125e-02 7.789799999999999502e-02
1.368399999999999998e-02 4.093299999999999716e-02 -7.748999999999999812e-03 -2.610000000000000015e-04 6.621000000000000496e-02 2.664700000000000055e-02 -1.333799999999999916e-02 9.940000000000000918e-04 6.669999999999999497e-04 5.422300000000000036e-02 -3.264700000000000241e-02 -2.916999999999999888e-03 -5.006100000000000133e-02 2.451499999999999860e-02 -1.049199999999999959e-02 -4.535999999999999754e-02 -4.980199999999999905e-02 -3.636000000000000343e-02 3.882399999999999740e-02 2.611799999999999886e-02 -3.706000000000000266e-02 4.199399999999999661e-02 -3.882800000000000140e-02 -1.792799999999999949e-02 2.446600000000000164e-02 4.092000000000000151e-03 -4.052100000000000146e-02 -3.282899999999999707e-02 8.557999999999999635e-03 3.975999999999999673e-02 4.148099999999999704e-02 1.243700000000000014e-02 4.415199999999999680e-02 -2.043100000000000124e-02 3.213099999999999984e-02 7.827699999999999936e-02 -1.297500000000000042e-02 1.169800000000000006e-02 1.943000000000000066e-03 -8.364099999999999313e-02 -8.329999999999999731e-04 -4.876400000000000179e-02 1.361200000000000083e-02 1.845899999999999971e-02 4.577000000000000339e-03 -1.733200000000000018e-02 2.055299999999999835e-02 1.929499999999999965e-02 3.266800000000000259e-02 -3.664099999999999996e-02 -2.373999999999999808e-03 -1.141299999999999953e-02 1.470699999999999959e-02 -3.745799999999999824e-02 -5.953699999999999964e-02 4.552400000000000196e-02 -1.790399999999999978e-02 -2.308699999999999988e-02 -1.684000000000000080e-02 8.137000000000000136e-03 -8.257399999999999463e-02 3.855700000000000099e-02 5.040499999999999842e-02 9.061800000000000410e-02 8.798000000000000265e-03 -1.649899999999999978e-02 3.915600000000000330e-02 -7.382299999999999973e-02 6.472000000000000322e-03 2.480699999999999919e-02 5.927799999999999736e-02 7.028199999999999725e-02 5.549099999999999866e-02 -5.409200000000000119e-02 1.271999999999999910e-03 -3.664699999999999902e-02 -9.763000000000000844e-03 -4.048399999999999915e-02 -2.840900000000000022e-02 5.063200000000000339e-02 2.421399999999999941e-02 4.359099999999999780e-02 2.026000000000000023e-02 3.476699999999999929e-02 -8.148999999999999994e-03 4.762399999999999967e-02 -3.819299999999999778e-02 -5.125099999999999795e-02 3.128700000000000231e-02 3.586000000000000298e-02 -1.006899999999999983e-02 -5.707000000000000267e-03 -5.479799999999999949e-02 -1.741099999999999939e-02 5.818000000000000255e-02 -4.742999999999999994e-02 2.294600000000000112e-02 2.754099999999999951e-02 -3.685900000000000287e-02 -5.283999999999999635e-03 -4.331299999999999734e-02 2.023700000000000152e-02 1.758799999999999947e-02 3.143599999999999867e-02 1.841399999999999981e-02 6.270900000000000085e-02 -1.935399999999999968e-02 -2.769399999999999987e-02 4.888300000000000284e-02 -9.954899999999999860e-02 3.372499999999999803e-02 2.564699999999999966e-02 -3.989899999999999697e-02 4.326599999999999890e-02 4.635000000000000231e-02 -7.802299999999999514e-02 -7.154699999999999949e-02 4.682399999999999757e-02 6.880300000000000304e-02 -6.701100000000000112e-02 -1.078309999999999963e-01 9.011399999999999966e-02 4.583500000000000074e-02 2.560899999999999982e-02 -8.601300000000000612e-02 -1.865300000000000014e-01 -1.719000000000000042e-03 4.124699999999999894e-02 1.326829999999999954e-01 -1.397829999999999906e-01 8.861000000000000820e-03 4.974699999999999955e-02 1.584199999999999844e-02 5.282000000000000237e-03 6.031600000000000156e-02 6.251500000000000112e-02 -7.014800000000000202e-02 -8.552500000000000380e-02 -2.728900000000000076e-02 2.414600000000000080e-02 -8.284099999999999797e-02 1.565300000000000025e-02 -6.084599999999999731e-02 -1.236499999999999926e-02 3.540999999999999703e-02 -1.506599999999999953e-02 9.863999999999999505e-03 1.559299999999999922e-02 -4.960099999999999926e-02 4.879100000000000104e-02 4.440500000000000003e-02 -6.357400000000000551e-02 1.760799999999999865e-02 -9.493600000000000649e-02 -4.765199999999999991e-02 1.973600000000000007e-02 5.113000000000000357e-03 -7.470000000000000511e-04 -7.484899999999999887e-02 -2.409999999999999989e-02 5.491599999999999954e-02 1.552449999999999941e-01
2.034499999999999850e-02 5.926000000000000018e-02 -1.203399999999999956e-02 -5.890000000000000053e-04 9.657200000000000506e-02 3.854400000000000187e-02 -1.980799999999999922e-02 -6.059999999999999849e-04 5.779999999999999548e-04 8.107599999999999529e-02 -5.062200000000000033e-02 -5.355999999999999650e-03 -7.434899999999999842e-02 3.441400000000000015e-02 -1.684199999999999933e-02 -6.808699999999999475e-02 -7.653400000000000480e-02 -5.543399999999999717e-02 5.818299999999999861e-02 3.707099999999999979e-02 -5.571000000000000257e-02 6.297400000000000220e-02 -6.028900000000000231e-02 -2.756400000000000169e-02 3.664300000000000196e-02 4.074999999999999629e-03 -6.078700000000000075e-02 -4.895499999999999852e-02 1.414600000000000059e-02 5.910200000000000176e-02 6.202499999999999680e-02 2.013399999999999912e-02 6.551500000000000379e-02 -2.958300000000000166e-02 4.879100000000000104e-02 1.160280000000000061e-01 -1.943599999999999842e-02 1.897400000000000128e-02 2.592000000000000120e-03 -1.254619999999999902e-01 -2.979999999999999793e-04 -7.366499999999999437e-02 2.012299999999999853e-02 2.886000000000000024e-02 6.577999999999999646e-03 -2.581900000000000167e-02 3.189499999999999974e-02 2.830200000000000077e-02 4.885199999999999959e-02 -5.317500000000000004e-02 -3.856000000000000053e-03 -1.720899999999999860e-02 2.348799999999999846e-02 -5.612299999999999928e-02 -8.870799999999999519e-02 6.916700000000000625e-02 -2.595000000000000084e-02 -3.450999999999999901e-02 -2.377800000000000052e-02 1.234400000000000081e-02 -1.233130000000000059e-01 5.917000000000000037e-02 7.665099999999999691e-02 1.348519999999999996e-01 1.418999999999999949e-02 -2.337200000000000041e-02 5.864199999999999968e-02 -1.084989999999999982e-01 1.075100000000000014e-02 3.702799999999999842e-02 9.095599999999999519e-02 1.061430000000000012e-01 8.295099999999999696e-02 -7.900100000000000178e-02 2.726999999999999823e-03 -5.454300000000000120e-02 -1.307799999999999935e-02 -6.007200000000000040e-02 -4.227800000000000308e-02 7.730499999999999872e-02 3.693400000000000155e-02 6.514200000000000546e-02 2.825899999999999940e-02 5.259899999999999992e-02 -1.197800000000000080e-02 6.911599999999999688e-02 -5.659399999999999847e-02 -7.667799999999999616e-02 4.483600000000000085e-02 5.408099999999999713e-02 -1.472200000000000071e-02 -1.052699999999999990e-02 -8.149000000000000687e-02 -2.601099999999999940e-02 8.467199999999999727e-02 -6.968100000000000682e-02 3.402700000000000169e-02 3.884200000000000153e-02 -5.440099999999999797e-02 -7.917000000000000426e-03 -6.682299999999999351e-02 3.054199999999999970e-02 2.638599999999999973e-02 4.497099999999999709e-02 2.803800000000000042e-02 9.382400000000000462e-02 -3.032800000000000079e-02 -4.062600000000000239e-02 7.262699999999999712e-02 -1.480440000000000089e-01 5.016299999999999926e-02 3.778200000000000308e-02 -5.885300000000000253e-02 6.408800000000000607e-02 6.896399999999999753e-02 -1.162419999999999981e-01 -1.067440000000000055e-01 7.001999999999999891e-02 1.031579999999999997e-01 -9.995500000000000218e-02 -1.609450000000000047e-01 1.344519999999999882e-01 6.786799999999999777e-02 3.778399999999999814e-02 -1.281990000000000074e-01 -2.782140000000000168e-01 -2.335999999999999969e-03 6.201899999999999774e-02 1.979440000000000088e-01 -2.077890000000000015e-01 1.419899999999999982e-02 7.338500000000000578e-02 2.305600000000000011e-02 8.477000000000000160e-03 8.985500000000000431e-02 9.267100000000000337e-02 -1.038850000000000051e-01 -1.271359999999999990e-01 -4.100000000000000172e-02 3.664499999999999702e-02 -1.233250000000000041e-01 2.324199999999999877e-02 -9.014400000000000190e-02 -1.873100000000000112e-02 5.284500000000000308e-02 -2.224200000000000135e-02 1.466100000000000042e-02 2.323499999999999871e-02 -7.331899999999999529e-02 7.243600000000000039e-02 6.588299999999999712e-02 -9.379899999999999349e-02 2.602700000000000152e-02 -1.410750000000000060e-01 -7.034600000000000575e-02 2.914200000000000124e-02 7.283000000000000411e-03 -7.079999999999999705e-04 -1.113979999999999970e-01 -3.537599999999999772e-02 8.234199999999999853e-02 2.314879999999999993e-01
2.686200000000000046e-02 7.729300000000000059e-02 -1.624099999999999849e-02 -1.044000000000000006e-03 1.261170000000000069e-01 4.949200000000000127e-02 -2.605000000000000024e-02 -2.298000000000000129e-03 3.989999999999999949e-04 1.074380000000000057e-01 -6.812500000000000500e-02 -8.196999999999999426e-03 -9.789699999999999791e-02 4.406399999999999900e-02 -2.378999999999999865e-02 -9.059599999999999598e-02 -1.029709999999999931e-01 -7.478300000000000225e-02 7.732999999999999596e-02 4.794099999999999751e-02 -7.388899999999999635e-02 8.376000000000000112e-02 -8.179000000000000159e-02 -3.735600000000000032e-02 4.867500000000000299e-02 4.030999999999999861e-03 -8.054600000000000648e-02 -6.481599999999999862e-02 1.961900000000000102e-02 7.807600000000000651e-02 8.242299999999999627e-02 2.784800000000000123e-02 8.628199999999999759e-02 -3.788199999999999901e-02 6.472799999999999387e-02 1.527590000000000059e-01 -2.589500000000000135e-02 2.616299999999999876e-02 3.075000000000000042e-03 -1.669619999999999993e-01 -1.579999999999999916e-04 -9.853900000000000159e-02 2.637000000000000108e-02 3.891499999999999820e-02 8.425000000000000197e-03 -3.420200000000000323e-02 4.285699999999999926e-02 3.686600000000000293e-02 6.470499999999999863e-02 -6.933499999999999386e-02 -5.357999999999999916e-03 -2.316299999999999956e-02 3.211300000000000265e-02 -7.450700000000000378e-02 -1.174189999999999956e-01 9.223299999999999554e-02 -3.341600000000000126e-02 -4.567000000000000226e-02 -3.066599999999999882e-02 1.638600000000000126e-02 -1.633340000000000070e-01 7.952499999999999847e-02 1.031750000000000028e-01 1.780430000000000068e-01 1.931300000000000031e-02 -2.941200000000000064e-02 7.787900000000000378e-02 -1.424290000000000000e-01 1.557300000000000004e-02 4.899599999999999789e-02 1.226300000000000029e-01 1.419910000000000061e-01 1.100320000000000048e-01 -1.032480000000000064e-01 4.699000000000000052e-03 -7.205000000000000293e-02 -1.630600000000000105e-02 -7.923700000000000188e-02 -5.585099999999999787e-02 1.037970000000000004e-01 5.002000000000000196e-02 8.634799999999999420e-02 3.604799999999999671e-02 7.026699999999999613e-02 -1.562200000000000047e-02 9.025600000000000289e-02 -7.468099999999999739e-02 -1.018389999999999990e-01 5.818000000000000255e-02 7.220200000000000229e-02 -1.899700000000000000e-02 -1.530499999999999916e-02 -1.078149999999999942e-01 -3.451100000000000001e-02 1.106010000000000049e-01 -9.091699999999999782e-02 4.476399999999999824e-02 4.967900000000000094e-02 -7.136299999999999588e-02 -1.055700000000000041e-02 -9.013799999999999590e-02 4.058200000000000002e-02 3.520700000000000218e-02 5.822299999999999698e-02 3.773900000000000171e-02 1.247240000000000015e-01 -4.064299999999999857e-02 -5.303700000000000081e-02 9.567399999999999516e-02 -1.955179999999999974e-01 6.610900000000000110e-02 4.926200000000000023e-02 -7.727100000000000635e-02 8.406800000000000384e-02 9.105900000000000105e-02 -1.539260000000000073e-01 -1.411590000000000067e-01 9.278999999999999748e-02 1.367949999999999999e-01 -1.321370000000000045e-01 -2.129560000000000064e-01 1.775629999999999986e-01 8.905000000000000415e-02 4.950100000000000333e-02 -1.697150000000000047e-01 -3.677790000000000226e-01 -2.748000000000000009e-03 8.230999999999999428e-02 2.616510000000000224e-01 -2.738499999999999823e-01 1.971499999999999989e-02 9.591500000000000026e-02 2.966500000000000040e-02 1.174099999999999970e-02 1.185650000000000037e-01 1.218010000000000065e-01 -1.366979999999999862e-01 -1.675399999999999945e-01 -5.464999999999999719e-02 4.889299999999999896e-02 -1.625749999999999973e-01 3.064499999999999863e-02 -1.187160000000000021e-01 -2.505500000000000088e-02 6.995400000000000229e-02 -2.951399999999999857e-02 1.940499999999999864e-02 3.070600000000000065e-02 -9.634900000000000408e-02 9.534700000000000120e-02 8.669000000000000317e-02 -1.230060000000000042e-01 3.407500000000000112e-02 -1.858400000000000052e-01 -9.241900000000000115e-02 3.817000000000000254e-02 9.147999999999999882e-03 -6.819999999999999890e-04 -1.469199999999999950e-01 -4.605000000000000066e-02 1.091120000000000007e-01 3.059049999999999825e-01
3.323199999999999765e-02 9.488599999999999812e-02 -2.025599999999999970e-02 -1.634999999999999952e-03 1.546289999999999887e-01 5.934400000000000092e-02 -3.199400000000000160e-02 -4.106000000000000275e-03 1.289999999999999914e-04 1.330669999999999908e-01 -8.498699999999999311e-02 -1.138499999999999929e-02 -1.205269999999999953e-01 5.345500000000000251e-02 -3.140899999999999942e-02 -1.126820000000000044e-01 -1.289649999999999963e-01 -9.430700000000000194e-02 9.613700000000000023e-02 5.870399999999999924e-02 -9.132999999999999452e-02 1.042389999999999983e-01 -1.033209999999999962e-01 -4.726000000000000340e-02 6.046200000000000185e-02 3.990999999999999756e-03 -9.956900000000000472e-02 -8.036300000000000388e-02 2.495199999999999849e-02 9.661999999999999755e-02 1.026719999999999994e-01 3.561399999999999982e-02 1.063140000000000057e-01 -4.525200000000000056e-02 7.984399999999999831e-02 1.883839999999999959e-01 -3.236499999999999794e-02 3.323999999999999871e-02 3.360999999999999838e-03 -2.078919999999999935e-01 -4.240000000000000062e-04 -1.231519999999999976e-01 3.231400000000000244e-02 4.851799999999999863e-02 1.009799999999999934e-02 -4.250400000000000011e-02 5.333600000000000146e-02 4.492199999999999666e-02 8.004400000000000404e-02 -8.498999999999999611e-02 -6.786999999999999630e-03 -2.934499999999999956e-02 4.049599999999999728e-02 -9.248000000000000664e-02 -1.456320000000000114e-01 1.145930000000000004e-01 -4.025399999999999812e-02 -5.643299999999999705e-02 -3.744299999999999712e-02 2.014700000000000171e-02 -2.023760000000000003e-01 9.948600000000000498e-02 1.297169999999999990e-01 2.199550000000000116e-01 2.419400000000000023e-02 -3.462300000000000100e-02 9.672799999999999454e-02 -1.754610000000000058e-01 2.090399999999999897e-02 6.061300000000000021e-02 1.539880000000000138e-01 1.775039999999999951e-01 1.365979999999999972e-01 -1.266899999999999971e-01 7.230000000000000315e-03 -8.909000000000000252e-02 -1.941700000000000023e-02 -9.792599999999999916e-02 -6.909800000000000664e-02 1.300499999999999989e-01 6.353899999999999826e-02 1.070819999999999966e-01 4.351700000000000013e-02 8.756999999999999507e-02 -1.906700000000000061e-02 1.109600000000000031e-01 -9.241800000000000015e-02 -1.266529999999999878e-01 7.122599999999999765e-02 9.012699999999999878e-02 -2.280199999999999935e-02 -2.002699999999999966e-02 -1.337009999999999865e-01 -4.290100000000000163e-02 1.358640000000000125e-01 -1.109850000000000003e-01 5.510899999999999826e-02 5.994900000000000229e-02 -8.763200000000000156e-02 -1.322100000000000011e-02 -1.132019999999999971e-01 5.022999999999999687e-02 4.407300000000000106e-02 7.107499999999999929e-02 4.750900000000000262e-02 1.553829999999999933e-01 -5.015300000000000313e-02 -6.492399999999999560e-02 1.178619999999999945e-01 -2.415970000000000062e-01 8.143200000000000438e-02 5.995600000000000235e-02 -9.501099999999999823e-02 1.030200000000000005e-01 1.125180000000000069e-01 -1.908009999999999984e-01 -1.744529999999999970e-01 1.149270000000000014e-01 1.694489999999999885e-01 -1.632369999999999932e-01 -2.634349999999999747e-01 2.191240000000000132e-01 1.092100000000000015e-01 6.072099999999999720e-02 -2.101820000000000077e-01 -4.544070000000000054e-01 -2.941000000000000038e-03 1.019410000000000038e-01 3.232090000000000241e-01 -3.374590000000000090e-01 2.530599999999999863e-02 1.171600000000000003e-01 3.558100000000000152e-02 1.507799999999999939e-02 1.461709999999999954e-01 1.496709999999999985e-01 -1.683409999999999906e-01 -2.064489999999999936e-01 -6.813400000000000012e-02 6.072799999999999726e-02 -2.001940000000000108e-01 3.783600000000000158e-02 -1.463299999999999879e-01 -3.124299999999999994e-02 8.661299999999999555e-02 -3.687700000000000006e-02 2.409400000000000083e-02 3.797999999999999987e-02 -1.184889999999999971e-01 1.173410000000000009e-01 1.066880000000000051e-01 -1.509689999999999921e-01 4.167699999999999877e-02 -2.288499999999999979e-01 -1.137259999999999938e-01 4.674299999999999983e-02 1.068099999999999952e-02 -6.419999999999999925e-04 -1.811319999999999875e-01 -5.607199999999999684e-02 1.350059999999999871e-01 3.778020000000000267e-01
3.944000000000000283e-02 1.119060000000000055e-01 -2.397099999999999925e-02 -2.354999999999999889e-03 1.819060000000000121e-01 6.798999999999999488e-02 -3.757300000000000223e-02 -6.042999999999999761e-03 -2.519999999999999996e-04 1.577349999999999863e-01 -1.010390000000000038e-01 -1.484800000000000009e-02 -1.420869999999999911e-01 6.259099999999999386e-02 -3.973800000000000249e-02 -1.341509999999999925e-01 -1.543819999999999915e-01 -1.139099999999999974e-01 1.144820000000000004e-01 6.935099999999999598e-02 -1.077779999999999988e-01 1.242850000000000066e-01 -1.248839999999999950e-01 -5.721400000000000097e-02 7.191599999999999382e-02 3.981000000000000164e-03 -1.176539999999999947e-01 -9.554799999999999405e-02 3.014000000000000012e-02 1.146780000000000022e-01 1.227629999999999971e-01 4.345500000000000057e-02 1.254889999999999894e-01 -5.162599999999999828e-02 9.405299999999999772e-02 2.228249999999999953e-01 -3.886200000000000071e-02 4.016299999999999731e-02 3.428000000000000057e-03 -2.480140000000000122e-01 -1.115000000000000106e-03 -1.472610000000000030e-01 3.792299999999999838e-02 5.757600000000000218e-02 1.159699999999999967e-02 -5.074499999999999844e-02 6.324100000000000554e-02 5.241900000000000032e-02 9.470299999999999552e-02 -1.000219999999999998e-01 -8.059999999999999457e-03 -3.583000000000000074e-02 4.855199999999999794e-02 -1.099139999999999978e-01 -1.733169999999999988e-01 1.361259999999999970e-01 -4.642500000000000099e-02 -6.666800000000000503e-02 -4.407400000000000206e-02 2.350999999999999965e-02 -2.401959999999999928e-01 1.189349999999999991e-01 1.560179999999999900e-01 2.603869999999999796e-01 2.888299999999999895e-02 -3.903199999999999725e-02 1.150420000000000054e-01 -2.074650000000000105e-01 2.668200000000000086e-02 7.178500000000000159e-02 1.847119999999999873e-01 2.123529999999999862e-01 1.625139999999999918e-01 -1.491860000000000130e-01 1.034200000000000050e-02 -1.055920000000000053e-01 -2.239999999999999977e-02 -1.160849999999999937e-01 -8.198999999999999344e-02 1.560179999999999900e-01 7.756100000000000494e-02 1.272230000000000028e-01 5.058300000000000296e-02 1.043059999999999959e-01 -2.230599999999999944e-02 1.311529999999999918e-01 -1.097830000000000056e-01 -1.510209999999999886e-01 8.386899999999999911e-02 1.077509999999999996e-01 -2.606699999999999989e-02 -2.468199999999999908e-02 -1.590930000000000122e-01 -5.116699999999999721e-02 1.603650000000000075e-01 -1.297560000000000102e-01 6.501899999999999347e-02 6.956800000000000483e-02 -1.031249999999999944e-01 -1.591599999999999959e-02 -1.359569999999999945e-01 5.935300000000000298e-02 5.301199999999999662e-02 8.342099999999999516e-02 5.734199999999999714e-02 1.857469999999999954e-01 -5.873500000000000248e-02 -7.624699999999999533e-02 1.390460000000000029e-01 -2.859269999999999867e-01 9.600999999999999812e-02 6.974500000000000144e-02 -1.119419999999999998e-01 1.207749999999999935e-01 1.332500000000000073e-01 -2.266170000000000129e-01 -2.063119999999999954e-01 1.362309999999999910e-01 2.008729999999999960e-01 -1.929470000000000074e-01 -3.119810000000000083e-01 2.588550000000000018e-01 1.281940000000000024e-01 7.143499999999999850e-02 -2.492640000000000133e-01 -5.373170000000000446e-01 -2.906999999999999862e-03 1.207320000000000060e-01 3.820490000000000275e-01 -3.981609999999999872e-01 3.087799999999999920e-02 1.369589999999999974e-01 4.072499999999999731e-02 1.848800000000000096e-02 1.723969999999999947e-01 1.760909999999999975e-01 -1.985820000000000085e-01 -2.435839999999999950e-01 -8.136799999999999589e-02 7.199500000000000344e-02 -2.358020000000000116e-01 4.480599999999999861e-02 -1.727750000000000119e-01 -3.719399999999999790e-02 1.027229999999999949e-01 -4.433800000000000241e-02 2.871999999999999900e-02 4.501900000000000346e-02 -1.395460000000000034e-01 1.382379999999999998e-01 1.257620000000000127e-01 -1.774840000000000029e-01 4.874099999999999960e-02 -2.697780000000000178e-01 -1.341529999999999945e-01 5.479200000000000043e-02 1.186399999999999955e-02 -5.609999999999999752e-04 -2.137600000000000056e-01 -6.541800000000000392e-02 1.598229999999999928e-01 4.465109999999999912e-01