 vasp.6.1.1 19Jun20 (build Dec 21 2021 08:45:49) complex                        
  
 executed on             LinuxIFC date 2023.10.07  16:06:23
 running on   40 total cores
 distrk:  each k-point on   40 cores,    1 groups
 distr:  one band on NCORE=   1 cores,   40 groups


--------------------------------------------------------------------------------------------------------


 INCAR:
 POTCAR:   PAW_PBE Te 08Apr2002                   
 POTCAR:   PAW_PBE Mo 08Apr2002                   
 -----------------------------------------------------------------------------
|                                                                             |
|           W    W    AA    RRRRR   N    N  II  N    N   GGGG   !!!           |
|           W    W   A  A   R    R  NN   N  II  NN   N  G    G  !!!           |
|           W    W  A    A  R    R  N N  N  II  N N  N  G       !!!           |
|           W WW W  AAAAAA  RRRRR   N  N N  II  N  N N  G  GGG   !            |
|           WW  WW  A    A  R   R   N   NN  II  N   NN  G    G                |
|           W    W  A    A  R    R  N    N  II  N    N   GGGG   !!!           |
|                                                                             |
|     For optimal performance we recommend to set                             |
|       NCORE = 4 - approx SQRT(number of cores).                             |
|     NCORE specifies how many cores store one orbital (NPAR=cpu/NCORE).      |
|     This setting can greatly improve the performance of VASP for DFT.       |
|     The default, NCORE=1 might be grossly inefficient on modern             |
|     multi-core architectures or massively parallel machines. Do your        |
|     own testing!!!!                                                         |
|     Unfortunately you need to use the default for GW and RPA                |
|     calculations (for HF NCORE is supported but not extensively tested      |
|     yet).                                                                   |
|                                                                             |
 -----------------------------------------------------------------------------

 POTCAR:   PAW_PBE Te 08Apr2002                   
   VRHFIN =Te: s2p4                                                                                 
   LEXCH  = PE                                                                                      
   EATOM  =   223.2721 eV,   16.4100 Ry                                                             
                                                                                                    
   TITEL  = PAW_PBE Te 08Apr2002                                                                    
   LULTRA =        F    use ultrasoft PP ?                                                          
   IUNSCR =        1    unscreen: 0-lin 1-nonlin 2-no                                               
   RPACOR =    2.200    partial core radius                                                         
   POMASS =  127.600; ZVAL   =    6.000    mass and valenz                                          
   RCORE  =    2.300    outmost cutoff radius                                                       
   RWIGS  =    2.900; RWIGS  =    1.535    wigner-seitz radius (au A)                               
   ENMAX  =  174.982; ENMIN  =  131.236 eV                                                          
   ICORE  =        3    local potential                                                             
   LCOR   =        T    correct aug charges                                                         
   LPAW   =        T    paw PP                                                                      
   EAUG   =  368.792                                                                                
   DEXC   =    -.169                                                                                
   RMAX   =    3.486    core radius for proj-oper                                                   
   RAUG   =    1.300    factor for augmentation sphere                                              
   RDEP   =    2.397    radius for radial grids                                                     
   QCUT   =   -3.586; QGAM   =    7.172    optimization parameters                                  
                                                                                                    
   Description                                                                                      
     l     E      TYP  RCUT    TYP  RCUT                                                            
     0   .000     23  2.300                                                                         
     0   .000     23  2.300                                                                         
     1   .000     23  2.300                                                                         
     1   .000     23  2.300                                                                         
     2   .000     23  2.300                                                                         
     3  -.100     23  2.300                                                                         
  local pseudopotential read in
  partial core-charges read in
  atomic valenz-charges read in
  non local Contribution for L=           0  read in
    real space projection operators read in
  non local Contribution for L=           0  read in
    real space projection operators read in
  non local Contribution for L=           1  read in
    real space projection operators read in
  non local Contribution for L=           1  read in
    real space projection operators read in
  non local Contribution for L=           2  read in
    real space projection operators read in
    PAW grid and wavefunctions read in
 
   number of l-projection  operators is LMAX  =           5
   number of lm-projection operators is LMMAX =          13
 
 POTCAR:   PAW_PBE Mo 08Apr2002                   
   VRHFIN =Mo: 4p5s4d                                                                               
   LEXCH  = PE                                                                                      
   EATOM  =   217.5180 eV,   15.9871 Ry                                                             
                                                                                                    
   TITEL  = PAW_PBE Mo 08Apr2002                                                                    
   LULTRA =        F    use ultrasoft PP ?                                                          
   IUNSCR =        1    unscreen: 0-lin 1-nonlin 2-no                                               
   RPACOR =    2.200    partial core radius                                                         
   POMASS =   95.940; ZVAL   =    6.000    mass and valenz                                          
   RCORE  =    2.750    outmost cutoff radius                                                       
   RWIGS  =    2.750; RWIGS  =    1.455    wigner-seitz radius (au A)                               
   ENMAX  =  224.584; ENMIN  =  168.438 eV                                                          
   RCLOC  =    2.111    cutoff for local pot                                                        
   LCOR   =        T    correct aug charges                                                         
   LPAW   =        T    paw PP                                                                      
   EAUG   =  345.278                                                                                
   DEXC   =    -.088                                                                                
   RMAX   =    3.077    core radius for proj-oper                                                   
   RAUG   =    1.300    factor for augmentation sphere                                              
   RDEP   =    2.815    radius for radial grids                                                     
   QCUT   =   -4.063; QGAM   =    8.126    optimization parameters                                  
                                                                                                    
   Description                                                                                      
     l     E      TYP  RCUT    TYP  RCUT                                                            
     2   .000     23  2.500                                                                         
     2   .000     23  2.500                                                                         
     0   .000     23  2.600                                                                         
     0  1.000     23  2.600                                                                         
     1   .400     23  2.750                                                                         
     1  2.000     23  2.750                                                                         
     3   .000      7   .000                                                                         
  local pseudopotential read in
  partial core-charges read in
  atomic valenz-charges read in
  non local Contribution for L=           2  read in
    real space projection operators read in
  non local Contribution for L=           2  read in
    real space projection operators read in
  non local Contribution for L=           0  read in
    real space projection operators read in
  non local Contribution for L=           0  read in
    real space projection operators read in
  non local Contribution for L=           1  read in
    real space projection operators read in
  non local Contribution for L=           1  read in
    real space projection operators read in
    PAW grid and wavefunctions read in
 
   number of l-projection  operators is LMAX  =           6
   number of lm-projection operators is LMMAX =          18
 
 -----------------------------------------------------------------------------
|                                                                             |
|               ----> ADVICE to this user running VASP <----                  |
|                                                                             |
|     You have a (more or less) 'large supercell' and for larger cells it     |
|     might be more efficient to use real-space projection operators.         |
|     Therefore, try LREAL= Auto in the INCAR file.                           |
|     Mind: If you want to do very accurate calculations, keep the            |
|     reciprocal projection scheme (i.e. LREAL=.FALSE.).                      |
|                                                                             |
 -----------------------------------------------------------------------------

 PAW_PBE Te 08Apr2002                   :
 energy of atom  1       EATOM= -223.2721
 kinetic energy error for atom=    0.0006 (will be added to EATOM!!)
 PAW_PBE Mo 08Apr2002                   :
 energy of atom  2       EATOM= -217.5180
 kinetic energy error for atom=    0.0009 (will be added to EATOM!!)
 
 
 POSCAR: Te Mo
  positions in cartesian coordinates
  No initial velocities read in
 exchange correlation table for  LEXCH =        8
   RHO(1)=    0.500       N(1)  =     2000
   RHO(2)=  100.500       N(2)  =     4000
 


--------------------------------------------------------------------------------------------------------


 ion  position               nearest neighbor table
   1  0.222  0.110  0.683-  41 2.68  37 2.70  40 2.78   9 3.44   5 3.45   3 3.51   2 3.52   7 3.57
                             4 3.57  19 3.65
   2  0.222  0.444  0.683-  42 2.70  38 2.71  41 2.80   7 3.44   6 3.45   3 3.52   1 3.52   8 3.57
                             5 3.57  20 3.66
   3  0.222  0.778  0.683-  40 2.68  39 2.70  42 2.79   4 3.44   8 3.45   1 3.51   2 3.52   6 3.57
                             9 3.57  21 3.65
   4  0.556  0.111  0.683-  44 2.69  40 2.70  43 2.79   3 3.44   8 3.44   6 3.51   5 3.52   7 3.57
                             1 3.57  22 3.65
   5  0.555  0.444  0.683-  41 2.69  45 2.69  44 2.80   1 3.45   9 3.45   4 3.52   6 3.52   2 3.57
                             8 3.58  23 3.66
   6  0.556  0.779  0.683-  43 2.68  42 2.70  45 2.80   7 3.44   2 3.45   4 3.51   5 3.52   3 3.57
                             9 3.58  24 3.66
   7  0.889  0.111  0.683-  38 2.68  43 2.70  37 2.80   2 3.44   6 3.44   8 3.51   9 3.52   4 3.57
                             1 3.57  25 3.65
   8  0.889  0.444  0.683-  39 2.69  44 2.71  38 2.80   4 3.44   3 3.45   9 3.51   7 3.51   2 3.57
                             5 3.58  26 3.65
   9  0.889  0.778  0.683-  37 2.68  45 2.70  39 2.80   1 3.44   5 3.45   8 3.51   7 3.52   3 3.57
                             6 3.58  27 3.65
  10  0.111  0.111  0.438-  47 2.68  52 2.70  46 2.79  18 3.44  14 3.44  11 3.52  12 3.52  16 3.57
                            13 3.58  28 3.65
  11  0.112  0.445  0.438-  48 2.68  53 2.70  47 2.79  15 3.44  16 3.45  12 3.51  10 3.52  14 3.57
                            17 3.57  29 3.65
  12  0.111  0.777  0.438-  46 2.69  54 2.70  48 2.80  17 3.44  13 3.45  11 3.51  10 3.52  15 3.57
                            18 3.57  30 3.65
  13  0.445  0.111  0.438-  50 2.69  46 2.71  49 2.78  17 3.44  12 3.45  15 3.51  14 3.52  16 3.56
                            10 3.58  31 3.66
  14  0.444  0.444  0.438-  51 2.69  47 2.70  50 2.80  10 3.44  18 3.45  15 3.52  13 3.52  11 3.57
                            17 3.57  32 3.65
  15  0.444  0.778  0.438-  49 2.68  48 2.70  51 2.80  11 3.44  16 3.45  13 3.51  14 3.52  12 3.57
                            18 3.57  33 3.65
  16  0.778  0.111  0.438-  53 2.68  49 2.70  52 2.79  15 3.45  11 3.45  17 3.51  18 3.52  13 3.56
                            10 3.57  34 3.66
  17  0.778  0.445  0.438-  54 2.69  50 2.70  53 2.79  12 3.44  13 3.44  16 3.51  18 3.52  11 3.57
                            14 3.57  35 3.65
  18  0.778  0.778  0.438-  52 2.68  51 2.70  54 2.79  10 3.44  14 3.45  16 3.52  17 3.52  12 3.57
                            15 3.57  36 3.65
  19  0.223  0.112  0.562-  41 2.72  40 2.72  37 2.76  23 3.44  27 3.45  20 3.51  21 3.51  22 3.57
                            25 3.58   1 3.65
  20  0.222  0.445  0.562-  42 2.72  41 2.73  38 2.75  25 3.44  24 3.45  19 3.51  21 3.52  23 3.57
                            26 3.58   2 3.66
  21  0.221  0.778  0.562-  40 2.72  42 2.72  39 2.74  26 3.44  22 3.45  19 3.51  20 3.52  27 3.56
                            24 3.58   3 3.65
  22  0.555  0.111  0.562-  43 2.72  44 2.72  40 2.76  26 3.44  21 3.45  24 3.51  23 3.52  19 3.57
                            25 3.57   4 3.65
  23  0.556  0.445  0.562-  44 2.71  45 2.72  41 2.76  27 3.44  19 3.44  24 3.51  22 3.52  26 3.56
                            20 3.57   5 3.66
  24  0.556  0.778  0.562-  45 2.72  43 2.72  42 2.76  25 3.44  20 3.45  22 3.51  23 3.51  27 3.57
                            21 3.58   6 3.66
  25  0.889  0.112  0.562-  38 2.71  37 2.72  43 2.75  24 3.44  20 3.44  26 3.52  27 3.52  22 3.57
                            19 3.58   7 3.65
  26  0.888  0.445  0.562-  39 2.71  38 2.72  44 2.74  21 3.44  22 3.44  27 3.51  25 3.52  23 3.56
                            20 3.58   8 3.65
  27  0.889  0.778  0.562-  37 2.71  39 2.72  45 2.75  23 3.44  19 3.45  26 3.51  25 3.52  21 3.56
                            24 3.57   9 3.65
  28  0.111  0.111  0.317-  46 2.71  47 2.72  52 2.76  36 3.45  32 3.45  30 3.52  29 3.52  34 3.57
                            31 3.58  10 3.65
  29  0.111  0.444  0.317-  48 2.72  47 2.72  53 2.75  34 3.44  33 3.45  30 3.51  28 3.52  32 3.57
                            35 3.57  11 3.65
  30  0.111  0.778  0.317-  46 2.71  48 2.72  54 2.75  35 3.44  31 3.45  29 3.51  28 3.52  33 3.57
                            36 3.57  12 3.65
  31  0.445  0.111  0.317-  49 2.71  50 2.72  46 2.76  35 3.44  30 3.45  33 3.51  32 3.53  34 3.57
                            28 3.58  13 3.66
  32  0.444  0.445  0.317-  51 2.71  50 2.72  47 2.75  36 3.44  28 3.45  33 3.51  31 3.53  29 3.57
                            35 3.57  14 3.65
  33  0.445  0.778  0.317-  51 2.71  49 2.72  48 2.74  29 3.45  34 3.45  32 3.51  31 3.51  36 3.56
                            30 3.57  15 3.65
  34  0.778  0.112  0.317-  53 2.72  52 2.72  49 2.77  29 3.44  33 3.45  35 3.51  36 3.52  31 3.57
                            28 3.57  16 3.66
  35  0.778  0.444  0.317-  54 2.72  53 2.72  50 2.75  31 3.44  30 3.44  34 3.51  36 3.52  29 3.57
                            32 3.57  17 3.65
  36  0.777  0.778  0.317-  54 2.72  52 2.72  51 2.75  32 3.44  28 3.45  34 3.52  35 3.52  33 3.56
                            30 3.57  18 3.65
  37  1.000  0.999  0.622-   9 2.68   1 2.70  27 2.71  25 2.72  19 2.76   7 2.80  45 3.44  41 3.45

  38  1.000  0.333  0.622-   7 2.68   2 2.71  25 2.71  26 2.72  20 2.75   8 2.80  43 3.44  42 3.45

  39  0.001  0.667  0.622-   8 2.69   3 2.70  26 2.71  27 2.72  21 2.74   9 2.80  40 3.44  44 3.45

  40  0.333  1.000  0.622-   3 2.68   4 2.70  19 2.72  21 2.72  22 2.76   1 2.78  39 3.44  44 3.45

  41  0.333  0.333  0.623-   1 2.68   5 2.69  19 2.72  20 2.73  23 2.76   2 2.80  37 3.45  45 3.45

  42  0.333  0.667  0.622-   2 2.70   6 2.70  20 2.72  21 2.72  24 2.76   3 2.79  43 3.44  38 3.45

  43  0.667  0.000  0.622-   6 2.68   7 2.70  22 2.72  24 2.72  25 2.75   4 2.79  38 3.44  42 3.44

  44  0.667  0.334  0.622-   4 2.69   8 2.71  23 2.71  22 2.72  26 2.74   5 2.80  40 3.45  39 3.45

  45  0.667  0.667  0.622-   5 2.69   9 2.70  23 2.72  24 2.72  27 2.75   6 2.80  37 3.44  41 3.45

  46  0.222  0.999  0.378-  12 2.69  30 2.71  28 2.71  13 2.71  31 2.76  10 2.79  54 3.44  50 3.45

  47  0.222  0.333  0.378-  10 2.68  14 2.70  28 2.72  29 2.72  32 2.75  11 2.79  51 3.44  52 3.44

  48  0.223  0.667  0.378-  11 2.68  15 2.70  29 2.72  30 2.72  33 2.74  12 2.80  49 3.43  53 3.45

  49  0.555  1.000  0.378-  15 2.68  16 2.70  31 2.71  33 2.72  34 2.77  13 2.78  48 3.43  53 3.45

  50  0.556  0.333  0.378-  13 2.69  17 2.70  32 2.72  31 2.72  35 2.75  14 2.80  54 3.44  46 3.45

  51  0.555  0.667  0.378-  14 2.69  18 2.70  33 2.71  32 2.71  36 2.75  15 2.80  47 3.44  52 3.45

  52  0.889  0.000  0.378-  18 2.68  10 2.70  34 2.72  36 2.72  28 2.76  16 2.79  47 3.44  51 3.45

  53  0.889  0.333  0.378-  16 2.68  11 2.70  34 2.72  35 2.72  29 2.75  17 2.79  49 3.45  48 3.45

  54  0.889  0.667  0.378-  17 2.69  12 2.70  35 2.72  36 2.72  30 2.75  18 2.79  46 3.44  50 3.44

 

IMPORTANT INFORMATION: All symmetrisations will be switched off!
NOSYMM: (Re-)initialisation of all symmetry stuff for point group C_1.


----------------------------------------------------------------------------------------

                                     Primitive cell                                     

  volume of cell :    2899.1771

  direct lattice vectors                    reciprocal lattice vectors
    10.712046886  0.000000000  0.000000000     0.093352840  0.057953047  0.001867611
    -5.562490528  8.960258542  0.000000000     0.000000000  0.111603923 -0.001196214
    -0.805266698  0.323750965 30.205201703     0.000000000  0.000000000  0.033106880

  length of vectors
    10.712046886 10.546446511 30.217668326     0.109894479  0.111610333  0.033106880

  position of ions in fractional coordinates (direct lattice)
     0.221780984  0.110390333  0.682636356
     0.221669853  0.443931366  0.683038064
     0.222304411  0.777777813  0.682586974
     0.555507783  0.110883040  0.682713531
     0.554948748  0.444257920  0.682770560
     0.555571184  0.778547411  0.682708536
     0.888842621  0.111111822  0.682768014
     0.888722764  0.444266128  0.682800125
     0.888947297  0.777543072  0.682814292
     0.111176191  0.111120810  0.438001570
     0.111622192  0.445035532  0.438005461
     0.111016202  0.777211051  0.438169998
     0.445049143  0.110958201  0.438207940
     0.444445271  0.444445355  0.438106433
     0.444247129  0.777717841  0.438124661
     0.777789807  0.111133472  0.438059452
     0.777956759  0.444506149  0.438100939
     0.778036589  0.777966082  0.437922737
     0.222884399  0.111718808  0.561816604
     0.222447032  0.444600502  0.561813542
     0.221251550  0.777561905  0.561939435
     0.555440111  0.110797500  0.561808709
     0.556169045  0.445035806  0.561745325
     0.556051761  0.778195366  0.561741540
     0.888939225  0.111502009  0.562010328
     0.888220156  0.444557991  0.561916653
     0.888884235  0.777789607  0.561911194
     0.111181898  0.111063585  0.317257864
     0.111128698  0.444448663  0.317215258
     0.110990078  0.777610391  0.317272143
     0.444864526  0.110910357  0.317086524
     0.444350847  0.444894456  0.317179941
     0.444622661  0.777716860  0.317346526
     0.778228234  0.111901516  0.317035410
     0.777752043  0.444296522  0.317232813
     0.777442942  0.777949709  0.317201829
     0.999932411  0.999327457  0.622414322
     0.999797847  0.332900865  0.622306765
     0.000667431  0.666874712  0.622196011
     0.332847111  0.999899454  0.622473862
     0.333446811  0.332931187  0.622572072
     0.333332049  0.666716820  0.622322214
     0.666613703  0.000098534  0.622417436
     0.666508430  0.333575104  0.622157822
     0.667034133  0.666982363  0.622238412
     0.221552891  0.999450821  0.377566751
     0.222207514  0.333268711  0.377666984
     0.223028085  0.666681344  0.377628519
     0.554672510  0.999736992  0.377798758
     0.555530206  0.333332528  0.377650785
     0.555260472  0.666668624  0.377625532
     0.888617635  0.000383036  0.377851452
     0.888901780  0.333118831  0.377761818
     0.888874381  0.666652027  0.377652709

  ion indices of the primitive-cell ions
   primitive index   ion index
                 1           1
                 2           2
                 3           3
                 4           4
                 5           5
                 6           6
                 7           7
                 8           8
                 9           9
                10          10
                11          11
                12          12
                13          13
                14          14
                15          15
                16          16
                17          17
                18          18
                19          19
                20          20
                21          21
                22          22
                23          23
                24          24
                25          25
                26          26
                27          27
                28          28
                29          29
                30          30
                31          31
                32          32
                33          33
                34          34
                35          35
                36          36
                37          37
                38          38
                39          39
                40          40
                41          41
                42          42
                43          43
                44          44
                45          45
                46          46
                47          47
                48          48
                49          49
                50          50
                51          51
                52          52
                53          53
                54          54

----------------------------------------------------------------------------------------

 
 

Automatic generation of k-mesh.
 generate k-points for:    3    3    1
Space group operators:
 irot       det(A)        alpha          n_x          n_y          n_z        tau_x        tau_y        tau_z
    1     1.000000     0.000000     1.000000     0.000000     0.000000     0.000000     0.000000     0.000000
 
 Subroutine IBZKPT returns following result:
 ===========================================
 
 Found      5 irreducible k-points:
 
 Following reciprocal coordinates:
            Coordinates               Weight
  0.000000  0.000000  0.000000      1.000000
  0.333333 -0.000000  0.000000      2.000000
  0.000000  0.333333  0.000000      2.000000
  0.333333  0.333333 -0.000000      2.000000
 -0.333333  0.333333 -0.000000      2.000000
 
 Following cartesian coordinates:
            Coordinates               Weight
  0.000000  0.000000  0.000000      1.000000
  0.031118  0.019318  0.000623      2.000000
  0.000000  0.037201 -0.000399      2.000000
  0.031118  0.056519  0.000224      2.000000
 -0.031118  0.017884 -0.001021      2.000000
 


--------------------------------------------------------------------------------------------------------




 Dimension of arrays:
   k-points           NKPTS =      5   k-points in BZ     NKDIM =      5   number of bands    NBANDS=    200
   number of dos      NEDOS =    301   number of ions     NIONS =     54
   non local maximal  LDIM  =      6   non local SUM 2l+1 LMDIM =     18
   total plane-waves  NPLWV = ******
   max r-space proj   IRMAX =      1   max aug-charges    IRDMAX=  37698
   dimension x,y,z NGX =    84 NGY =   84 NGZ =  240
   dimension x,y,z NGXF=   168 NGYF=  168 NGZF=  480
   support grid    NGXF=   168 NGYF=  168 NGZF=  480
   ions per type =              36  18
   NGX,Y,Z   is equivalent  to a cutoff of  13.04, 13.24, 13.20 a.u.
   NGXF,Y,Z  is equivalent  to a cutoff of  26.07, 26.48, 26.41 a.u.

 SYSTEM =  dpgen_md                                
 POSCAR =  Te Mo                                   

 Startparameter for this run:
   NWRITE =      2    write-flag & timer
   PREC   = a         normal or accurate (medium, high low for compatibility)
   ISTART =      0    job   : 0-new  1-cont  2-samecut
   ICHARG =      2    charge: 1-file 2-atom 10-const
   ISPIN  =      1    spin polarized calculation?
   LNONCOLLINEAR =      F non collinear calculations
   LSORBIT =      F    spin-orbit coupling
   INIWAV =      1    electr: 0-lowe 1-rand  2-diag
   LASPH  =      F    aspherical Exc in radial PAW
   METAGGA=      F    non-selfconsistent MetaGGA calc.

 Electronic Relaxation 1
   ENCUT  =  550.0 eV  40.42 Ry    6.36 a.u.  20.48 20.17 57.78*2*pi/ulx,y,z
   ENINI  =  550.0     initial cutoff
   ENAUG  =  368.8 eV  augmentation charge cutoff
   NELM   =    100;   NELMIN=  6; NELMDL= -5     # of ELM steps 
   EDIFF  = 0.1E-05   stopping-criterion for ELM
   LREAL  =      F    real-space projection
   NLSPLINE    = F    spline interpolate recip. space projectors
   LCOMPAT=      F    compatible to vasp.4.4
   GGA_COMPAT  = T    GGA compatible to vasp.4.4-vasp.4.6
   LMAXPAW     = -100 max onsite density
   LMAXMIX     =    2 max onsite mixed and CHGCAR
   VOSKOWN=      0    Vosko Wilk Nusair interpolation
   ROPT   =    0.00000   0.00000
 Ionic relaxation
   EDIFFG = 0.1E-04   stopping-criterion for IOM
   NSW    =     10    number of steps for IOM
   NBLOCK =      1;   KBLOCK =      1    inner block; outer block 
   IBRION =      0    ionic relax: 0-MD 1-quasi-New 2-CG
   NFREE  =      0    steps in history (QN), initial steepest desc. (CG)
   ISIF   =      2    stress and relaxation
   IWAVPR =     11    prediction:  0-non 1-charg 2-wave 3-comb
   ISYM   =      0    0-nonsym 1-usesym 2-fastsym
   LCORR  =      T    Harris-Foulkes like correction to forces

   POTIM  = 2.0000    time-step for ionic-motion
   TEIN   =  100.0    initial temperature
   TEBEG  =  100.0;   TEEND  = 100.0 temperature during run
   SMASS  =   0.04    Nose mass-parameter (am)
   estimated Nose-frequenzy (Omega)   =  0.79E+14 period in steps = 0.40E+02 mass=   0.327E-28a.u.
   SCALEE = 1.0000    scale energy and forces
   NPACO  =    256;   APACO  = 16.0  distance and # of slots for P.C.
   PSTRESS=    0.0 pullay stress

  Mass of Ions in am
   POMASS = 127.60 95.94
  Ionic Valenz
   ZVAL   =   6.00  6.00
  Atomic Wigner-Seitz radii
   RWIGS  =  -1.00 -1.00
  virtual crystal weights 
   VCA    =   1.00  1.00
   NELECT =     324.0000    total number of electrons
   NUPDOWN=      -1.0000    fix difference up-down

 DOS related values:
   EMIN   =  10.00;   EMAX   =-10.00  energy-range for DOS
   EFERMI =   0.00
   ISMEAR =     0;   SIGMA  =   0.10  broadening in eV -4-tet -1-fermi 0-gaus

 Electronic relaxation 2 (details)
   IALGO  =     68    algorithm
   LDIAG  =      T    sub-space diagonalisation (order eigenvalues)
   LSUBROT=      F    optimize rotation matrix (better conditioning)
   TURBO    =      0    0=normal 1=particle mesh
   IRESTART =      0    0=no restart 2=restart with 2 vectors
   NREBOOT  =      0    no. of reboots
   NMIN     =      0    reboot dimension
   EREF     =   0.00    reference energy to select bands
   IMIX   =      4    mixing-type and parameters
     AMIX     =   0.40;   BMIX     =  1.00
     AMIX_MAG =   1.60;   BMIX_MAG =  1.00
     AMIN     =   0.10
     WC   =   100.;   INIMIX=   1;  MIXPRE=   1;  MAXMIX= -45

 Intra band minimization:
   WEIMIN = 0.0010     energy-eigenvalue tresh-hold
   EBREAK =  0.13E-08  absolut break condition
   DEPER  =   0.30     relativ break condition  

   TIME   =   0.40     timestep for ELM

  volume/ion in A,a.u.               =      53.69       362.31
  Fermi-wavevector in a.u.,A,eV,Ry     =   0.788554  1.490151  8.460345  0.621818
  Thomas-Fermi vector in A             =   1.893519
 
 Write flags
   LWAVE        =      F    write WAVECAR
   LDOWNSAMPLE  =      F    k-point downsampling of WAVECAR
   LCHARG       =      F    write CHGCAR
   LVTOT        =      F    write LOCPOT, total local potential
   LVHAR        =      F    write LOCPOT, Hartree potential only
   LELF         =      F    write electronic localiz. function (ELF)
   LORBIT       =      0    0 simple, 1 ext, 2 COOP (PROOUT), +10 PAW based schemes


 Dipole corrections
   LMONO  =      F    monopole corrections only (constant potential shift)
   LDIPOL =      F    correct potential (dipole corrections)
   IDIPOL =      0    1-x, 2-y, 3-z, 4-all directions 
   EPSILON=  1.0000000 bulk dielectric constant

 Exchange correlation treatment:
   GGA     =    --    GGA type
   LEXCH   =     8    internal setting for exchange type
   VOSKOWN=      0    Vosko Wilk Nusair interpolation
   LHFCALC =     F    Hartree Fock is set to
   LHFONE  =     F    Hartree Fock one center treatment
   AEXX    =    0.0000 exact exchange contribution

 Linear response parameters
   LEPSILON=     F    determine dielectric tensor
   LRPA    =     F    only Hartree local field effects (RPA)
   LNABLA  =     F    use nabla operator in PAW spheres
   LVEL    =     F    velocity operator in full k-point grid
   LINTERFAST=   F  fast interpolation
   KINTER  =     0    interpolate to denser k-point grid
   CSHIFT  =0.1000    complex shift for real part using Kramers Kronig
   OMEGAMAX=  -1.0    maximum frequency
   DEG_THRESHOLD= 0.2000000E-02 threshold for treating states as degnerate
   RTIME   =   -0.100 relaxation time in fs
  (WPLASMAI=    0.000 imaginary part of plasma frequency in eV, 0.658/RTIME)
   DFIELD  = 0.0000000 0.0000000 0.0000000 field for delta impulse in time
 
 Orbital magnetization related:
   ORBITALMAG=     F  switch on orbital magnetization
   LCHIMAG   =     F  perturbation theory with respect to B field
   DQ        =  0.001000  dq finite difference perturbation B field
   LLRAUG    =     F  two centre corrections for induced B field



--------------------------------------------------------------------------------------------------------


 molecular dynamics for ions
   using nose mass (canonical ensemble)
 charge density and potential will be updated during run
 non-spin polarized calculation
 RMM-DIIS sequential band-by-band and
  variant of blocked Davidson during initial phase
 perform sub-space diagonalisation
    before iterative eigenvector-optimisation
 modified Broyden-mixing scheme, WC =      100.0
 initial mixing is a Kerker type mixing with AMIX =  0.4000 and BMIX =      1.0000
 Hartree-type preconditioning will be used
 using additional bands           38
 reciprocal scheme for non local part
 use partial core corrections
 calculate Harris-corrections to forces 
   (improved forces if not selfconsistent)
 use gradient corrections 
 use of overlap-Matrix (Vanderbilt PP)
 Gauss-broadening in eV      SIGMA  =   0.10


--------------------------------------------------------------------------------------------------------


  energy-cutoff  :      550.00
  volume of cell :     2899.18
      direct lattice vectors                 reciprocal lattice vectors
    10.712046886  0.000000000  0.000000000     0.093352840  0.057953047  0.001867611
    -5.562490528  8.960258542  0.000000000     0.000000000  0.111603923 -0.001196214
    -0.805266698  0.323750965 30.205201703     0.000000000  0.000000000  0.033106880

  length of vectors
    10.712046886 10.546446511 30.217668326     0.109894479  0.111610333  0.033106880


 
 k-points in units of 2pi/SCALE and weight: read from INCAR                         
   0.00000000  0.00000000  0.00000000       0.111
   0.03111761  0.01931768  0.00062254       0.222
   0.00000000  0.03720131 -0.00039874       0.222
   0.03111761  0.05651899  0.00022380       0.222
  -0.03111761  0.01788363 -0.00102128       0.222
 
 k-points in reciprocal lattice and weights: read from INCAR                         
   0.00000000  0.00000000  0.00000000       0.111
   0.33333333 -0.00000000  0.00000000       0.222
   0.00000000  0.33333333  0.00000000       0.222
   0.33333333  0.33333333 -0.00000000       0.222
  -0.33333333  0.33333333 -0.00000000       0.222
 
 position of ions in fractional coordinates (direct lattice) 
   0.22178098  0.11039033  0.68263636
   0.22166985  0.44393137  0.68303806
   0.22230441  0.77777781  0.68258697
   0.55550778  0.11088304  0.68271353
   0.55494875  0.44425792  0.68277056
   0.55557118  0.77854741  0.68270854
   0.88884262  0.11111182  0.68276801
   0.88872276  0.44426613  0.68280013
   0.88894730  0.77754307  0.68281429
   0.11117619  0.11112081  0.43800157
   0.11162219  0.44503553  0.43800546
   0.11101620  0.77721105  0.43817000
   0.44504914  0.11095820  0.43820794
   0.44444527  0.44444536  0.43810643
   0.44424713  0.77771784  0.43812466
   0.77778981  0.11113347  0.43805945
   0.77795676  0.44450615  0.43810094
   0.77803659  0.77796608  0.43792274
   0.22288440  0.11171881  0.56181660
   0.22244703  0.44460050  0.56181354
   0.22125155  0.77756190  0.56193944
   0.55544011  0.11079750  0.56180871
   0.55616905  0.44503581  0.56174532
   0.55605176  0.77819537  0.56174154
   0.88893922  0.11150201  0.56201033
   0.88822016  0.44455799  0.56191665
   0.88888423  0.77778961  0.56191119
   0.11118190  0.11106358  0.31725786
   0.11112870  0.44444866  0.31721526
   0.11099008  0.77761039  0.31727214
   0.44486453  0.11091036  0.31708652
   0.44435085  0.44489446  0.31717994
   0.44462266  0.77771686  0.31734653
   0.77822823  0.11190152  0.31703541
   0.77775204  0.44429652  0.31723281
   0.77744294  0.77794971  0.31720183
   0.99993241  0.99932746  0.62241432
   0.99979785  0.33290086  0.62230676
   0.00066743  0.66687471  0.62219601
   0.33284711  0.99989945  0.62247386
   0.33344681  0.33293119  0.62257207
   0.33333205  0.66671682  0.62232221
   0.66661370  0.00009853  0.62241744
   0.66650843  0.33357510  0.62215782
   0.66703413  0.66698236  0.62223841
   0.22155289  0.99945082  0.37756675
   0.22220751  0.33326871  0.37766698
   0.22302809  0.66668134  0.37762852
   0.55467251  0.99973699  0.37779876
   0.55553021  0.33333253  0.37765079
   0.55526047  0.66666862  0.37762553
   0.88861763  0.00038304  0.37785145
   0.88890178  0.33311883  0.37776182
   0.88887438  0.66665203  0.37765271
 
 position of ions in cartesian coordinates  (Angst):
   1.21197879  1.21013010 20.61916883
  -0.64485396  4.19887405 20.63130250
  -2.49471100  7.19007848 20.61767722
   4.78407309  1.21456987 20.62149990
   2.92364414  4.20171345 20.62322248
   1.07087953  7.19701364 20.62134904
   8.35345502  1.21663746 20.62314558
   6.49897758  4.20179657 20.62411550
   4.64752154  7.18804874 20.62454343
   0.22010805  1.13747462 13.22992577
  -1.63251498  4.12943812 13.23004328
  -3.48686206  7.10586992 13.23501318
   3.79730909  1.13608441 13.23615921
   1.93590298  4.12418267 13.23309316
   0.07994075  7.11039621 13.23364374
   7.36078731  1.13760681 13.23167410
   5.50815994  4.12472562 13.23292724
   3.65429087  7.11255514 13.22754459
   1.31370112  1.18291808 16.96978384
  -0.54263278  4.16562312 16.96969135
  -2.40763486  7.14908414 16.97349399
   4.88118463  1.17466036 16.96954538
   3.02984663  4.16950147 16.96763084
   1.17539643  7.15469604 16.96751653
   8.44956158  1.18103821 16.97563533
   6.58931357  4.16527560 16.97280585
   4.74283391  7.15111526 16.97264095
   0.31771837  1.09787097  9.58283778
  -1.53726853  4.08507367  9.58155085
  -3.39200821  7.07030731  9.58326909
   3.89313263  1.09644254  9.57766240
   2.02977146  4.08905666  9.58048408
   0.18122753  7.07128538  9.58551581
   7.45866815  1.10530704  9.57611851
   5.60446413  4.08371614  9.58208112
   3.74523529  7.07332493  9.58114521
   4.65136383  9.15573962 18.80015014
   8.35700060  3.18435023 18.79690135
  -4.20336845  6.17680639 18.79355602
  -2.49771486  9.16088414 18.80194857
   1.21863475  3.18470782 18.80491502
  -0.63907281  6.17543250 18.79736800
   6.63903712  0.20239113 18.80024419
   4.78315822  3.19034337 18.79240249
   2.93414996  6.17778470 18.79483673
  -3.49019270  9.07757536 11.40447986
   0.22237062  3.10844386 11.40750743
  -1.62341302  6.09589480 11.40634559
   0.07642163  9.08021464 11.41148769
   3.79259698  3.10901044 11.40701815
   1.93554903  6.09577987 11.40625535
   9.21251194  0.12576188 11.41307933
   7.36478819  3.10713161 11.41037191
   5.50930731  6.09563995 11.40707624
 


--------------------------------------------------------------------------------------------------------


 k-point   1 :   0.0000 0.0000 0.0000  plane waves:   84935
 k-point   2 :   0.3333-0.0000 0.0000  plane waves:   84912
 k-point   3 :   0.0000 0.3333 0.0000  plane waves:   84951
 k-point   4 :   0.3333 0.3333-0.0000  plane waves:   84916
 k-point   5 :  -0.3333 0.3333-0.0000  plane waves:   84916

 maximum and minimum number of plane-waves per node :     84951    84912

 maximum number of plane-waves:     84951
 maximum index in each direction: 
   IXMAX=   20   IYMAX=   20   IZMAX=   57
   IXMIN=  -20   IYMIN=  -20   IZMIN=  -57


 serial   3D FFT for wavefunctions
 parallel 3D FFT for charge:
    minimum data exchange during FFTs selected (reduces bandwidth)


 total amount of memory used by VASP MPI-rank0   371329. kBytes
=======================================================================

   base      :      30000. kBytes
   nonl-proj :     195747. kBytes
   fftplans  :      19943. kBytes
   grid      :      90496. kBytes
   one-center:        839. kBytes
   wavefun   :      34304. kBytes
 
     INWAV:  cpu time    0.0000: real time    0.0000
 Broyden mixing: mesh for mixing (old mesh)
   NGX = 41   NGY = 41   NGZ =115
  (NGX  =168   NGY  =168   NGZ  =480)
  gives a total of 193315 points

 initial charge density was supplied:
 charge density of overlapping atoms calculated
 number of electron     324.0000000 magnetization 
 keeping initial charge density in first step


--------------------------------------------------------------------------------------------------------


 Maximum index for augmentation-charges         2249 (set IRDMAX)


--------------------------------------------------------------------------------------------------------


 First call to EWALD:  gamma=   0.124
 Maximum number of real-space cells 4x 4x 2
 Maximum number of reciprocal cells 2x 2x 5

    FEWALD:  cpu time    0.0021: real time    0.0021


--------------------------------------- Iteration      1(   1)  ---------------------------------------


    POTLOK:  cpu time    0.3532: real time    0.3545
    SETDIJ:  cpu time    0.0120: real time    0.0120
     EDDAV:  cpu time   48.7820: real time   48.9064
       DOS:  cpu time    0.0009: real time    0.0010
    --------------------------------------------
      LOOP:  cpu time   49.1482: real time   49.2739

 eigenvalue-minimisations  :  2000
 total energy-change (2. order) : 0.2113004E+04  (-0.1151749E+05)
 number of electron     324.0000000 magnetization 
 augmentation part      324.0000000 magnetization 

 Free energy of the ion-electron system (eV)
  ---------------------------------------------------
  alpha Z        PSCENC =       247.54133775
  Ewald energy   TEWEN  =     60980.49071276
  -Hartree energ DENC   =    -72667.96686364
  -exchange      EXHF   =         0.00000000
  -V(xc)+E(xc)   XCENC  =     -2100.46873089
  PAW double counting   =      7476.04436201    -4809.59211051
  entropy T*S    EENTRO =        -0.11770340
  eigenvalues    EBANDS =      1033.99059146
  atomic energy  EATOM  =     11953.08265402
  Solvation  Ediel_sol  =         0.00000000
  ---------------------------------------------------
  free energy    TOTEN  =      2113.00424956 eV

  energy without entropy =     2113.12195296  energy(sigma->0) =     2113.06310126


--------------------------------------------------------------------------------------------------------




--------------------------------------- Iteration      1(   2)  ---------------------------------------


     EDDAV:  cpu time   70.0740: real time   70.2775
       DOS:  cpu time    0.0005: real time    0.0005
    --------------------------------------------
      LOOP:  cpu time   70.0745: real time   70.2781

 eigenvalue-minimisations  :  3120
 total energy-change (2. order) :-0.2215193E+04  (-0.2138662E+04)
 number of electron     324.0000000 magnetization 
 augmentation part      324.0000000 magnetization 

 Free energy of the ion-electron system (eV)
  ---------------------------------------------------
  alpha Z        PSCENC =       247.54133775
  Ewald energy   TEWEN  =     60980.49071276
  -Hartree energ DENC   =    -72667.96686364
  -exchange      EXHF   =         0.00000000
  -V(xc)+E(xc)   XCENC  =     -2100.46873089
  PAW double counting   =      7476.04436201    -4809.59211051
  entropy T*S    EENTRO =        -0.00012457
  eigenvalues    EBANDS =     -1181.31949321
  atomic energy  EATOM  =     11953.08265402
  Solvation  Ediel_sol  =         0.00000000
  ---------------------------------------------------
  free energy    TOTEN  =      -102.18825628 eV

  energy without entropy =     -102.18813171  energy(sigma->0) =     -102.18819399


--------------------------------------------------------------------------------------------------------




--------------------------------------- Iteration      1(   3)  ---------------------------------------


     EDDAV:  cpu time   58.1503: real time   58.3039
       DOS:  cpu time    0.0004: real time    0.0003
    --------------------------------------------
      LOOP:  cpu time   58.1506: real time   58.3042

 eigenvalue-minimisations  :  2480
 total energy-change (2. order) :-0.2218090E+03  (-0.2186046E+03)
 number of electron     324.0000000 magnetization 
 augmentation part      324.0000000 magnetization 

 Free energy of the ion-electron system (eV)
  ---------------------------------------------------
  alpha Z        PSCENC =       247.54133775
  Ewald energy   TEWEN  =     60980.49071276
  -Hartree energ DENC   =    -72667.96686364
  -exchange      EXHF   =         0.00000000
  -V(xc)+E(xc)   XCENC  =     -2100.46873089
  PAW double counting   =      7476.04436201    -4809.59211051
  entropy T*S    EENTRO =        -0.00000000
  eigenvalues    EBANDS =     -1403.12856840
  atomic energy  EATOM  =     11953.08265402
  Solvation  Ediel_sol  =         0.00000000
  ---------------------------------------------------
  free energy    TOTEN  =      -323.99720690 eV

  energy without entropy =     -323.99720690  energy(sigma->0) =     -323.99720690


--------------------------------------------------------------------------------------------------------




--------------------------------------- Iteration      1(   4)  ---------------------------------------


     EDDAV:  cpu time   71.7207: real time   71.9054
       DOS:  cpu time    0.0004: real time    0.0004
    --------------------------------------------
      LOOP:  cpu time   71.7211: real time   71.9058

 eigenvalue-minimisations  :  3200
 total energy-change (2. order) :-0.1170571E+02  (-0.1164459E+02)
 number of electron     324.0000000 magnetization 
 augmentation part      324.0000000 magnetization 

 Free energy of the ion-electron system (eV)
  ---------------------------------------------------
  alpha Z        PSCENC =       247.54133775
  Ewald energy   TEWEN  =     60980.49071276
  -Hartree energ DENC   =    -72667.96686364
  -exchange      EXHF   =         0.00000000
  -V(xc)+E(xc)   XCENC  =     -2100.46873089
  PAW double counting   =      7476.04436201    -4809.59211051
  entropy T*S    EENTRO =        -0.00000000
  eigenvalues    EBANDS =     -1414.83428017
  atomic energy  EATOM  =     11953.08265402
  Solvation  Ediel_sol  =         0.00000000
  ---------------------------------------------------
  free energy    TOTEN  =      -335.70291867 eV

  energy without entropy =     -335.70291867  energy(sigma->0) =     -335.70291867


--------------------------------------------------------------------------------------------------------




--------------------------------------- Iteration      1(   5)  ---------------------------------------


     EDDAV:  cpu time   64.8707: real time   65.0702
       DOS:  cpu time    0.0004: real time    0.0004
    CHARGE:  cpu time    1.1836: real time    1.1887
    MIXING:  cpu time    0.0075: real time    0.0078
    --------------------------------------------
      LOOP:  cpu time   66.0622: real time   66.2670

 eigenvalue-minimisations  :  2840
 total energy-change (2. order) :-0.2539931E+00  (-0.2536563E+00)
 number of electron     323.9999996 magnetization 
 augmentation part      -25.4789638 magnetization 

 Broyden mixing:
  rms(total) = 0.18993E+01    rms(broyden)= 0.18993E+01
  rms(prec ) = 0.20086E+01
  weight for this iteration     100.00

 Free energy of the ion-electron system (eV)
  ---------------------------------------------------
  alpha Z        PSCENC =       247.54133775
  Ewald energy   TEWEN  =     60980.49071276
  -Hartree energ DENC   =    -72667.96686364
  -exchange      EXHF   =         0.00000000
  -V(xc)+E(xc)   XCENC  =     -2100.46873089
  PAW double counting   =      7476.04436201    -4809.59211051
  entropy T*S    EENTRO =        -0.00000000
  eigenvalues    EBANDS =     -1415.08827322
  atomic energy  EATOM  =     11953.08265402
  Solvation  Ediel_sol  =         0.00000000
  ---------------------------------------------------
  free energy    TOTEN  =      -335.95691172 eV

  energy without entropy =     -335.95691172  energy(sigma->0) =     -335.95691172


--------------------------------------------------------------------------------------------------------




--------------------------------------- Iteration      1(   6)  ---------------------------------------


    POTLOK:  cpu time    0.3029: real time    0.3031
    SETDIJ:  cpu time    0.0117: real time    0.0117
    EDDIAG:  cpu time    2.5756: real time    2.5808
  RMM-DIIS:  cpu time   41.8076: real time   41.9171
    ORTHCH:  cpu time    0.2181: real time    0.2183
       DOS:  cpu time    0.0005: real time    0.0005
    CHARGE:  cpu time    1.1903: real time    1.1995
    MIXING:  cpu time    0.0073: real time    0.0073
    --------------------------------------------
      LOOP:  cpu time   46.1139: real time   46.2383

 eigenvalue-minimisations  :  2137
 total energy-change (2. order) : 0.9001077E+01  (-0.5190646E+01)
 number of electron     323.9999996 magnetization 
 augmentation part      -20.0331520 magnetization 

 Broyden mixing:
  rms(total) = 0.70552E+00    rms(broyden)= 0.70552E+00
  rms(prec ) = 0.81774E+00
  weight for this iteration     100.00

 eigenvalues of (default mixing * dielectric matrix)
  average eigenvalue GAMMA=   1.0600
  1.0600

 Free energy of the ion-electron system (eV)
  ---------------------------------------------------
  alpha Z        PSCENC =       247.54133775
  Ewald energy   TEWEN  =     60980.49071276
  -Hartree energ DENC   =    -72649.50857923
  -exchange      EXHF   =         0.00000000
  -V(xc)+E(xc)   XCENC  =     -2094.01601561
  PAW double counting   =      7684.31898310    -5029.23102133
  entropy T*S    EENTRO =        -0.00000000
  eigenvalues    EBANDS =     -1419.63390652
  atomic energy  EATOM  =     11953.08265402
  Solvation  Ediel_sol  =         0.00000000
  ---------------------------------------------------
  free energy    TOTEN  =      -326.95583505 eV

  energy without entropy =     -326.95583505  energy(sigma->0) =     -326.95583505


--------------------------------------------------------------------------------------------------------




--------------------------------------- Iteration      1(   7)  ---------------------------------------


    POTLOK:  cpu time    0.3084: real time    0.3087
    SETDIJ:  cpu time    0.0118: real time    0.0118
    EDDIAG:  cpu time    2.5775: real time    2.5801
  RMM-DIIS:  cpu time   39.4456: real time   39.5701
    ORTHCH:  cpu time    0.2118: real time    0.2120
       DOS:  cpu time    0.0004: real time    0.0004
    CHARGE:  cpu time    1.1844: real time    1.1855
    MIXING:  cpu time    0.0095: real time    0.0095
    --------------------------------------------
      LOOP:  cpu time   43.7494: real time   43.8783

 eigenvalue-minimisations  :  2016
 total energy-change (2. order) : 0.3230085E+01  (-0.1062887E+01)
 number of electron     323.9999996 magnetization 
 augmentation part      -21.8259581 magnetization 

 Broyden mixing:
  rms(total) = 0.47039E+00    rms(broyden)= 0.47038E+00
  rms(prec ) = 0.49820E+00
  weight for this iteration     100.00

 eigenvalues of (default mixing * dielectric matrix)
  average eigenvalue GAMMA=   1.4661
  0.7319  2.2002

 Free energy of the ion-electron system (eV)
  ---------------------------------------------------
  alpha Z        PSCENC =       247.54133775
  Ewald energy   TEWEN  =     60980.49071276
  -Hartree energ DENC   =    -72736.59462948
  -exchange      EXHF   =         0.00000000
  -V(xc)+E(xc)   XCENC  =     -2092.64227140
  PAW double counting   =      7975.43351453    -5325.44762714
  entropy T*S    EENTRO =        -0.00000000
  eigenvalues    EBANDS =     -1325.58944126
  atomic energy  EATOM  =     11953.08265402
  Solvation  Ediel_sol  =         0.00000000
  ---------------------------------------------------
  free energy    TOTEN  =      -323.72575022 eV

  energy without entropy =     -323.72575022  energy(sigma->0) =     -323.72575022


--------------------------------------------------------------------------------------------------------




--------------------------------------- Iteration      1(   8)  ---------------------------------------


    POTLOK:  cpu time    0.3026: real time    0.3049
    SETDIJ:  cpu time    0.0119: real time    0.0119
    EDDIAG:  cpu time    2.5952: real time    2.6059
  RMM-DIIS:  cpu time   38.8456: real time   38.9587
    ORTHCH:  cpu time    0.2116: real time    0.2140
       DOS:  cpu time    0.0026: real time    0.0026
    CHARGE:  cpu time    1.1935: real time    1.1944
    MIXING:  cpu time    0.0074: real time    0.0074
    --------------------------------------------
      LOOP:  cpu time   43.1703: real time   43.2998

 eigenvalue-minimisations  :  2006
 total energy-change (2. order) : 0.4756051E+00  (-0.7412797E+00)
 number of electron     323.9999996 magnetization 
 augmentation part      -21.5564943 magnetization 

 Broyden mixing:
  rms(total) = 0.12832E+00    rms(broyden)= 0.12831E+00
  rms(prec ) = 0.14818E+00
  weight for this iteration     100.00

 eigenvalues of (default mixing * dielectric matrix)
  average eigenvalue GAMMA=   1.2699
  2.1341  0.8378  0.8378

 Free energy of the ion-electron system (eV)
  ---------------------------------------------------
  alpha Z        PSCENC =       247.54133775
  Ewald energy   TEWEN  =     60980.49071276
  -Hartree energ DENC   =    -72794.77866236
  -exchange      EXHF   =         0.00000000
  -V(xc)+E(xc)   XCENC  =     -2088.77412686
  PAW double counting   =      8276.63035566    -5632.91976983
  entropy T*S    EENTRO =        -0.00000000
  eigenvalues    EBANDS =     -1264.52264627
  atomic energy  EATOM  =     11953.08265402
  Solvation  Ediel_sol  =         0.00000000
  ---------------------------------------------------
  free energy    TOTEN  =      -323.25014513 eV

  energy without entropy =     -323.25014513  energy(sigma->0) =     -323.25014513


--------------------------------------------------------------------------------------------------------




--------------------------------------- Iteration      1(   9)  ---------------------------------------


    POTLOK:  cpu time    0.3046: real time    0.3049
    SETDIJ:  cpu time    0.0119: real time    0.0119
    EDDIAG:  cpu time    2.5854: real time    2.5961
  RMM-DIIS:  cpu time   43.8788: real time   44.0092
    ORTHCH:  cpu time    0.2156: real time    0.2168
       DOS:  cpu time    0.0005: real time    0.0005
    CHARGE:  cpu time    1.1900: real time    1.1911
    MIXING:  cpu time    0.0075: real time    0.0075
    --------------------------------------------
      LOOP:  cpu time   48.1941: real time   48.3379

 eigenvalue-minimisations  :  2229
 total energy-change (2. order) :-0.4629799E-01  (-0.1356012E+00)
 number of electron     323.9999996 magnetization 
 augmentation part      -21.1758914 magnetization 

 Broyden mixing:
  rms(total) = 0.10148E+00    rms(broyden)= 0.10148E+00
  rms(prec ) = 0.11283E+00
  weight for this iteration     100.00

 eigenvalues of (default mixing * dielectric matrix)
  average eigenvalue GAMMA=   1.1716
  1.9524  1.5624  0.7344  0.4371

 Free energy of the ion-electron system (eV)
  ---------------------------------------------------
  alpha Z        PSCENC =       247.54133775
  Ewald energy   TEWEN  =     60980.49071276
  -Hartree energ DENC   =    -72792.87362393
  -exchange      EXHF   =         0.00000000
  -V(xc)+E(xc)   XCENC  =     -2088.44382557
  PAW double counting   =      8276.66665855    -5633.09040415
  entropy T*S    EENTRO =        -0.00000000
  eigenvalues    EBANDS =     -1266.66995254
  atomic energy  EATOM  =     11953.08265402
  Solvation  Ediel_sol  =         0.00000000
  ---------------------------------------------------
  free energy    TOTEN  =      -323.29644312 eV

  energy without entropy =     -323.29644312  energy(sigma->0) =     -323.29644312


--------------------------------------------------------------------------------------------------------




--------------------------------------- Iteration      1(  10)  ---------------------------------------


    POTLOK:  cpu time    0.3162: real time    0.3165
    SETDIJ:  cpu time    0.0118: real time    0.0118
    EDDIAG:  cpu time    2.5853: real time    2.5964
  RMM-DIIS:  cpu time   45.9535: real time   46.0978
    ORTHCH:  cpu time    0.2118: real time    0.2119
       DOS:  cpu time    0.0004: real time    0.0004
    CHARGE:  cpu time    1.1897: real time    1.1908
    MIXING:  cpu time    0.0096: real time    0.0096
    --------------------------------------------
      LOOP:  cpu time   50.2783: real time   50.4353

 eigenvalue-minimisations  :  2327
 total energy-change (2. order) :-0.2444293E-02  (-0.3897182E-01)
 number of electron     323.9999996 magnetization 
 augmentation part      -20.9982791 magnetization 

 Broyden mixing:
  rms(total) = 0.72806E-01    rms(broyden)= 0.72806E-01
  rms(prec ) = 0.81905E-01
  weight for this iteration     100.00

 eigenvalues of (default mixing * dielectric matrix)
  average eigenvalue GAMMA=   1.2915
  2.3325  1.9021  0.9163  0.9163  0.3904

 Free energy of the ion-electron system (eV)
  ---------------------------------------------------
  alpha Z        PSCENC =       247.54133775
  Ewald energy   TEWEN  =     60980.49071276
  -Hartree energ DENC   =    -72795.86040086
  -exchange      EXHF   =         0.00000000
  -V(xc)+E(xc)   XCENC  =     -2088.22509847
  PAW double counting   =      8290.06813064    -5646.50270171
  entropy T*S    EENTRO =        -0.00000000
  eigenvalues    EBANDS =     -1263.89352155
  atomic energy  EATOM  =     11953.08265402
  Solvation  Ediel_sol  =         0.00000000
  ---------------------------------------------------
  free energy    TOTEN  =      -323.29888741 eV

  energy without entropy =     -323.29888741  energy(sigma->0) =     -323.29888741


--------------------------------------------------------------------------------------------------------




--------------------------------------- Iteration      1(  11)  ---------------------------------------


    POTLOK:  cpu time    0.3038: real time    0.3042
    SETDIJ:  cpu time    0.0119: real time    0.0119
    EDDIAG:  cpu time    2.5873: real time    2.5971
  RMM-DIIS:  cpu time   41.5399: real time   41.6571
    ORTHCH:  cpu time    0.2133: real time    0.2135
       DOS:  cpu time    0.0005: real time    0.0005
    CHARGE:  cpu time    1.1849: real time    1.1942
    MIXING:  cpu time    0.0076: real time    0.0076
    --------------------------------------------
      LOOP:  cpu time   45.8491: real time   45.9860

 eigenvalue-minimisations  :  2135
 total energy-change (2. order) : 0.1281417E-01  (-0.1801122E-01)
 number of electron     323.9999996 magnetization 
 augmentation part      -21.3049658 magnetization 

 Broyden mixing:
  rms(total) = 0.36362E-01    rms(broyden)= 0.36361E-01
  rms(prec ) = 0.41481E-01
  weight for this iteration     100.00

 eigenvalues of (default mixing * dielectric matrix)
  average eigenvalue GAMMA=   1.2183
  2.5272  1.7293  1.3081  0.7293  0.6319  0.3843

 Free energy of the ion-electron system (eV)
  ---------------------------------------------------
  alpha Z        PSCENC =       247.54133775
  Ewald energy   TEWEN  =     60980.49071276
  -Hartree energ DENC   =    -72814.12908965
  -exchange      EXHF   =         0.00000000
  -V(xc)+E(xc)   XCENC  =     -2087.95856317
  PAW double counting   =      8338.67723455    -5695.32821179
  entropy T*S    EENTRO =        -0.00000000
  eigenvalues    EBANDS =     -1245.66214772
  atomic energy  EATOM  =     11953.08265402
  Solvation  Ediel_sol  =         0.00000000
  ---------------------------------------------------
  free energy    TOTEN  =      -323.28607324 eV

  energy without entropy =     -323.28607324  energy(sigma->0) =     -323.28607324


--------------------------------------------------------------------------------------------------------




--------------------------------------- Iteration      1(  12)  ---------------------------------------


    POTLOK:  cpu time    0.3049: real time    0.3053
    SETDIJ:  cpu time    0.0118: real time    0.0118
    EDDIAG:  cpu time    2.5870: real time    2.5897
  RMM-DIIS:  cpu time   48.5733: real time   48.7053
    ORTHCH:  cpu time    0.2214: real time    0.2218
       DOS:  cpu time    0.0004: real time    0.0004
    CHARGE:  cpu time    1.1822: real time    1.1852
    MIXING:  cpu time    0.0077: real time    0.0077
    --------------------------------------------
      LOOP:  cpu time   52.8887: real time   53.0271

 eigenvalue-minimisations  :  2456
 total energy-change (2. order) : 0.1679341E-03  (-0.3768630E-02)
 number of electron     323.9999996 magnetization 
 augmentation part      -21.3065067 magnetization 

 Broyden mixing:
  rms(total) = 0.27297E-01    rms(broyden)= 0.27297E-01
  rms(prec ) = 0.31438E-01
  weight for this iteration     100.00

 eigenvalues of (default mixing * dielectric matrix)
  average eigenvalue GAMMA=   1.2056
  2.5170  1.7691  1.7691  0.8041  0.8041  0.4033  0.3725

 Free energy of the ion-electron system (eV)
  ---------------------------------------------------
  alpha Z        PSCENC =       247.54133775
  Ewald energy   TEWEN  =     60980.49071276
  -Hartree energ DENC   =    -72817.82150546
  -exchange      EXHF   =         0.00000000
  -V(xc)+E(xc)   XCENC  =     -2087.85462686
  PAW double counting   =      8343.16009803    -5699.84308674
  entropy T*S    EENTRO =        -0.00000000
  eigenvalues    EBANDS =     -1242.04148883
  atomic energy  EATOM  =     11953.08265402
  Solvation  Ediel_sol  =         0.00000000
  ---------------------------------------------------
  free energy    TOTEN  =      -323.28590531 eV

  energy without entropy =     -323.28590531  energy(sigma->0) =     -323.28590531


--------------------------------------------------------------------------------------------------------




--------------------------------------- Iteration      1(  13)  ---------------------------------------


    POTLOK:  cpu time    0.3050: real time    0.3052
    SETDIJ:  cpu time    0.0119: real time    0.0119
    EDDIAG:  cpu time    2.5922: real time    2.5991
  RMM-DIIS:  cpu time   46.4473: real time   46.5731
    ORTHCH:  cpu time    0.2197: real time    0.2199
       DOS:  cpu time    0.0004: real time    0.0004
    CHARGE:  cpu time    1.1848: real time    1.1859
    MIXING:  cpu time    0.0079: real time    0.0079
    --------------------------------------------
      LOOP:  cpu time   50.7692: real time   50.9034

 eigenvalue-minimisations  :  2345
 total energy-change (2. order) : 0.1889026E-02  (-0.2132204E-02)
 number of electron     323.9999996 magnetization 
 augmentation part      -21.2029620 magnetization 

 Broyden mixing:
  rms(total) = 0.94375E-02    rms(broyden)= 0.94374E-02
  rms(prec ) = 0.12441E-01
  weight for this iteration     100.00

 eigenvalues of (default mixing * dielectric matrix)
  average eigenvalue GAMMA=   1.2827
  2.4452  2.4452  1.9181  1.0692  0.8019  0.8019  0.4073  0.3728

 Free energy of the ion-electron system (eV)
  ---------------------------------------------------
  alpha Z        PSCENC =       247.54133775
  Ewald energy   TEWEN  =     60980.49071276
  -Hartree energ DENC   =    -72819.99515262
  -exchange      EXHF   =         0.00000000
  -V(xc)+E(xc)   XCENC  =     -2087.77248220
  PAW double counting   =      8338.94648060    -5695.60732832
  entropy T*S    EENTRO =        -0.00000000
  eigenvalues    EBANDS =     -1239.97023826
  atomic energy  EATOM  =     11953.08265402
  Solvation  Ediel_sol  =         0.00000000
  ---------------------------------------------------
  free energy    TOTEN  =      -323.28401628 eV

  energy without entropy =     -323.28401628  energy(sigma->0) =     -323.28401628


--------------------------------------------------------------------------------------------------------




--------------------------------------- Iteration      1(  14)  ---------------------------------------


    POTLOK:  cpu time    0.3095: real time    0.3098
    SETDIJ:  cpu time    0.0120: real time    0.0120
    EDDIAG:  cpu time    2.5847: real time    2.5872
  RMM-DIIS:  cpu time   49.9429: real time   50.1182
    ORTHCH:  cpu time    0.2154: real time    0.2156
       DOS:  cpu time    0.0004: real time    0.0004
    CHARGE:  cpu time    1.1795: real time    1.1846
    MIXING:  cpu time    0.0107: real time    0.0108
    --------------------------------------------
      LOOP:  cpu time   54.2551: real time   54.4385

 eigenvalue-minimisations  :  2513
 total energy-change (2. order) :-0.9227387E-03  (-0.6787722E-03)
 number of electron     323.9999996 magnetization 
 augmentation part      -21.1916723 magnetization 

 Broyden mixing:
  rms(total) = 0.75779E-02    rms(broyden)= 0.75779E-02
  rms(prec ) = 0.98246E-02
  weight for this iteration     100.00

 eigenvalues of (default mixing * dielectric matrix)
  average eigenvalue GAMMA=   1.3003
  3.1259  2.5586  1.5401  1.5401  0.7991  0.7991  0.5606  0.4063  0.3732

 Free energy of the ion-electron system (eV)
  ---------------------------------------------------
  alpha Z        PSCENC =       247.54133775
  Ewald energy   TEWEN  =     60980.49071276
  -Hartree energ DENC   =    -72827.09893913
  -exchange      EXHF   =         0.00000000
  -V(xc)+E(xc)   XCENC  =     -2087.73543421
  PAW double counting   =      8336.76370085    -5693.34001416
  entropy T*S    EENTRO =        -0.00000000
  eigenvalues    EBANDS =     -1232.98895691
  atomic energy  EATOM  =     11953.08265402
  Solvation  Ediel_sol  =         0.00000000
  ---------------------------------------------------
  free energy    TOTEN  =      -323.28493902 eV

  energy without entropy =     -323.28493902  energy(sigma->0) =     -323.28493902


--------------------------------------------------------------------------------------------------------




--------------------------------------- Iteration      1(  15)  ---------------------------------------


    POTLOK:  cpu time    0.3128: real time    0.3131
    SETDIJ:  cpu time    0.0119: real time    0.0119
    EDDIAG:  cpu time    2.5870: real time    2.6022
  RMM-DIIS:  cpu time   46.6712: real time   46.7873
    ORTHCH:  cpu time    0.2198: real time    0.2200
       DOS:  cpu time    0.0004: real time    0.0004
    CHARGE:  cpu time    1.1853: real time    1.1864
    MIXING:  cpu time    0.0106: real time    0.0106
    --------------------------------------------
      LOOP:  cpu time   50.9990: real time   51.1318

 eigenvalue-minimisations  :  2333
 total energy-change (2. order) :-0.4465163E-03  (-0.1426121E-03)
 number of electron     323.9999996 magnetization 
 augmentation part      -21.2058902 magnetization 

 Broyden mixing:
  rms(total) = 0.46097E-02    rms(broyden)= 0.46097E-02
  rms(prec ) = 0.60977E-02
  weight for this iteration     100.00

 eigenvalues of (default mixing * dielectric matrix)
  average eigenvalue GAMMA=   1.2811
  3.4143  2.4824  1.6824  1.6824  0.7978  0.7978  0.7484  0.3721  0.4011  0.4322

 Free energy of the ion-electron system (eV)
  ---------------------------------------------------
  alpha Z        PSCENC =       247.54133775
  Ewald energy   TEWEN  =     60980.49071276
  -Hartree energ DENC   =    -72831.09240394
  -exchange      EXHF   =         0.00000000
  -V(xc)+E(xc)   XCENC  =     -2087.71896392
  PAW double counting   =      8336.88102789    -5693.43272273
  entropy T*S    EENTRO =        -0.00000000
  eigenvalues    EBANDS =     -1229.03702737
  atomic energy  EATOM  =     11953.08265402
  Solvation  Ediel_sol  =         0.00000000
  ---------------------------------------------------
  free energy    TOTEN  =      -323.28538554 eV

  energy without entropy =     -323.28538554  energy(sigma->0) =     -323.28538554


--------------------------------------------------------------------------------------------------------




--------------------------------------- Iteration      1(  16)  ---------------------------------------


    POTLOK:  cpu time    0.3082: real time    0.3085
    SETDIJ:  cpu time    0.0118: real time    0.0118
    EDDIAG:  cpu time    2.5885: real time    2.5946
  RMM-DIIS:  cpu time   48.2357: real time   48.3791
    ORTHCH:  cpu time    0.2097: real time    0.2128
       DOS:  cpu time    0.0005: real time    0.0005
    CHARGE:  cpu time    1.1848: real time    1.1858
    MIXING:  cpu time    0.0084: real time    0.0084
    --------------------------------------------
      LOOP:  cpu time   52.5477: real time   52.7015

 eigenvalue-minimisations  :  2429
 total energy-change (2. order) :-0.7858187E-03  (-0.6718662E-04)
 number of electron     323.9999996 magnetization 
 augmentation part      -21.2156467 magnetization 

 Broyden mixing:
  rms(total) = 0.36772E-02    rms(broyden)= 0.36772E-02
  rms(prec ) = 0.46986E-02
  weight for this iteration     100.00

 eigenvalues of (default mixing * dielectric matrix)
  average eigenvalue GAMMA=   1.3251
  3.6300  2.3808  2.0575  2.0575  1.0235  0.8099  0.8099  0.6374  0.3708  0.4067
  0.3919

 Free energy of the ion-electron system (eV)
  ---------------------------------------------------
  alpha Z        PSCENC =       247.54133775
  Ewald energy   TEWEN  =     60980.49071276
  -Hartree energ DENC   =    -72833.18636284
  -exchange      EXHF   =         0.00000000
  -V(xc)+E(xc)   XCENC  =     -2087.70960787
  PAW double counting   =      8336.85046971    -5693.40466892
  entropy T*S    EENTRO =        -0.00000000
  eigenvalues    EBANDS =     -1226.95070597
  atomic energy  EATOM  =     11953.08265402
  Solvation  Ediel_sol  =         0.00000000
  ---------------------------------------------------
  free energy    TOTEN  =      -323.28617136 eV

  energy without entropy =     -323.28617136  energy(sigma->0) =     -323.28617136


--------------------------------------------------------------------------------------------------------




--------------------------------------- Iteration      1(  17)  ---------------------------------------


    POTLOK:  cpu time    0.3159: real time    0.3161
    SETDIJ:  cpu time    0.0121: real time    0.0122
    EDDIAG:  cpu time    2.5792: real time    2.5944
  RMM-DIIS:  cpu time   40.7465: real time   40.8260
    ORTHCH:  cpu time    0.2186: real time    0.2188
       DOS:  cpu time    0.0004: real time    0.0004
    CHARGE:  cpu time    1.1853: real time    1.1904
    MIXING:  cpu time    0.0085: real time    0.0085
    --------------------------------------------
      LOOP:  cpu time   45.0666: real time   45.1667

 eigenvalue-minimisations  :  2059
 total energy-change (2. order) :-0.1604800E-02  (-0.3017517E-04)
 number of electron     323.9999996 magnetization 
 augmentation part      -21.2137912 magnetization 

 Broyden mixing:
  rms(total) = 0.18301E-02    rms(broyden)= 0.18301E-02
  rms(prec ) = 0.24633E-02
  weight for this iteration     100.00

 eigenvalues of (default mixing * dielectric matrix)
  average eigenvalue GAMMA=   1.4014
  4.4304  2.6578  2.2875  1.5560  1.5560  0.9343  0.8153  0.8153  0.5980  0.4073
  0.3712  0.3879

 Free energy of the ion-electron system (eV)
  ---------------------------------------------------
  alpha Z        PSCENC =       247.54133775
  Ewald energy   TEWEN  =     60980.49071276
  -Hartree energ DENC   =    -72836.39841491
  -exchange      EXHF   =         0.00000000
  -V(xc)+E(xc)   XCENC  =     -2087.69140512
  PAW double counting   =      8335.74560503    -5692.31255944
  entropy T*S    EENTRO =        -0.00000000
  eigenvalues    EBANDS =     -1223.74570625
  atomic energy  EATOM  =     11953.08265402
  Solvation  Ediel_sol  =         0.00000000
  ---------------------------------------------------
  free energy    TOTEN  =      -323.28777616 eV

  energy without entropy =     -323.28777616  energy(sigma->0) =     -323.28777616


--------------------------------------------------------------------------------------------------------




--------------------------------------- Iteration      1(  18)  ---------------------------------------


    POTLOK:  cpu time    0.3068: real time    0.3072
    SETDIJ:  cpu time    0.0119: real time    0.0119
    EDDIAG:  cpu time    2.6043: real time    2.6070
  RMM-DIIS:  cpu time   41.7179: real time   41.8470
    ORTHCH:  cpu time    0.2187: real time    0.2189
       DOS:  cpu time    0.0004: real time    0.0004
    CHARGE:  cpu time    1.1875: real time    1.1908
    MIXING:  cpu time    0.0086: real time    0.0086
    --------------------------------------------
      LOOP:  cpu time   46.0561: real time   46.1918

 eigenvalue-minimisations  :  2088
 total energy-change (2. order) :-0.1004406E-02  (-0.3017682E-04)
 number of electron     323.9999996 magnetization 
 augmentation part      -21.2111476 magnetization 

 Broyden mixing:
  rms(total) = 0.17155E-02    rms(broyden)= 0.17155E-02
  rms(prec ) = 0.20645E-02
  weight for this iteration     100.00

 eigenvalues of (default mixing * dielectric matrix)
  average eigenvalue GAMMA=   1.4156
  5.0950  2.8029  2.2816  1.7229  1.7229  0.9576  0.8172  0.8172  0.6014  0.4158
  0.4120  0.3724  0.3837

 Free energy of the ion-electron system (eV)
  ---------------------------------------------------
  alpha Z        PSCENC =       247.54133775
  Ewald energy   TEWEN  =     60980.49071276
  -Hartree energ DENC   =    -72838.48528952
  -exchange      EXHF   =         0.00000000
  -V(xc)+E(xc)   XCENC  =     -2087.68255454
  PAW double counting   =      8335.11478550    -5691.67861792
  entropy T*S    EENTRO =        -0.00000000
  eigenvalues    EBANDS =     -1221.67180862
  atomic energy  EATOM  =     11953.08265402
  Solvation  Ediel_sol  =         0.00000000
  ---------------------------------------------------
  free energy    TOTEN  =      -323.28878056 eV

  energy without entropy =     -323.28878056  energy(sigma->0) =     -323.28878056


--------------------------------------------------------------------------------------------------------




--------------------------------------- Iteration      1(  19)  ---------------------------------------


    POTLOK:  cpu time    0.3123: real time    0.3136
    SETDIJ:  cpu time    0.0119: real time    0.0119
    EDDIAG:  cpu time    2.5886: real time    2.5955
  RMM-DIIS:  cpu time   45.8528: real time   45.9524
    ORTHCH:  cpu time    0.2143: real time    0.2145
       DOS:  cpu time    0.0005: real time    0.0005
    CHARGE:  cpu time    1.1892: real time    1.1905
    MIXING:  cpu time    0.0088: real time    0.0088
    --------------------------------------------
      LOOP:  cpu time   50.1784: real time   50.2877

 eigenvalue-minimisations  :  2318
 total energy-change (2. order) :-0.4589142E-03  (-0.8880632E-05)
 number of electron     323.9999996 magnetization 
 augmentation part      -21.2097608 magnetization 

 Broyden mixing:
  rms(total) = 0.11565E-02    rms(broyden)= 0.11565E-02
  rms(prec ) = 0.13837E-02
  weight for this iteration     100.00

 eigenvalues of (default mixing * dielectric matrix)
  average eigenvalue GAMMA=   1.5330
  6.4101  2.9791  2.3691  1.9424  1.9424  1.0114  1.0114  0.8137  0.8137  0.6197
  0.4091  0.3928  0.3704  0.3764

 Free energy of the ion-electron system (eV)
  ---------------------------------------------------
  alpha Z        PSCENC =       247.54133775
  Ewald energy   TEWEN  =     60980.49071276
  -Hartree energ DENC   =    -72839.27758815
  -exchange      EXHF   =         0.00000000
  -V(xc)+E(xc)   XCENC  =     -2087.68050601
  PAW double counting   =      8335.09212691    -5691.65353522
  entropy T*S    EENTRO =        -0.00000000
  eigenvalues    EBANDS =     -1220.88444154
  atomic energy  EATOM  =     11953.08265402
  Solvation  Ediel_sol  =         0.00000000
  ---------------------------------------------------
  free energy    TOTEN  =      -323.28923948 eV

  energy without entropy =     -323.28923948  energy(sigma->0) =     -323.28923948


--------------------------------------------------------------------------------------------------------




--------------------------------------- Iteration      1(  20)  ---------------------------------------


    POTLOK:  cpu time    0.3098: real time    0.3100
    SETDIJ:  cpu time    0.0117: real time    0.0117
    EDDIAG:  cpu time    2.6135: real time    2.6245
  RMM-DIIS:  cpu time   40.7049: real time   40.8133
    ORTHCH:  cpu time    0.2150: real time    0.2152
       DOS:  cpu time    0.0004: real time    0.0004
    CHARGE:  cpu time    1.1905: real time    1.1917
    MIXING:  cpu time    0.0090: real time    0.0090
    --------------------------------------------
      LOOP:  cpu time   45.0549: real time   45.1759

 eigenvalue-minimisations  :  2037
 total energy-change (2. order) :-0.5225909E-03  (-0.7345916E-05)
 number of electron     323.9999996 magnetization 
 augmentation part      -21.2095204 magnetization 

 Broyden mixing:
  rms(total) = 0.45574E-03    rms(broyden)= 0.45573E-03
  rms(prec ) = 0.56252E-03
  weight for this iteration     100.00

 eigenvalues of (default mixing * dielectric matrix)
  average eigenvalue GAMMA=   1.5684
  6.8775  3.2706  2.5030  1.7879  1.7879  1.5042  1.0640  0.9332  0.8109  0.8109
  0.6265  0.4085  0.3953  0.3758  0.3693

 Free energy of the ion-electron system (eV)
  ---------------------------------------------------
  alpha Z        PSCENC =       247.54133775
  Ewald energy   TEWEN  =     60980.49071276
  -Hartree energ DENC   =    -72839.85328255
  -exchange      EXHF   =         0.00000000
  -V(xc)+E(xc)   XCENC  =     -2087.68137702
  PAW double counting   =      8335.62330374    -5692.18402495
  entropy T*S    EENTRO =        -0.00000000
  eigenvalues    EBANDS =     -1220.30908582
  atomic energy  EATOM  =     11953.08265402
  Solvation  Ediel_sol  =         0.00000000
  ---------------------------------------------------
  free energy    TOTEN  =      -323.28976207 eV

  energy without entropy =     -323.28976207  energy(sigma->0) =     -323.28976207


--------------------------------------------------------------------------------------------------------




--------------------------------------- Iteration      1(  21)  ---------------------------------------


    POTLOK:  cpu time    0.3082: real time    0.3084
    SETDIJ:  cpu time    0.0137: real time    0.0137
    EDDIAG:  cpu time    2.5802: real time    2.5893
  RMM-DIIS:  cpu time   44.2375: real time   44.3357
    ORTHCH:  cpu time    0.2169: real time    0.2171
       DOS:  cpu time    0.0004: real time    0.0004
    CHARGE:  cpu time    1.2197: real time    1.2208
    MIXING:  cpu time    0.0098: real time    0.0098
    --------------------------------------------
      LOOP:  cpu time   48.5863: real time   48.6951

 eigenvalue-minimisations  :  2223
 total energy-change (2. order) :-0.1736242E-03  (-0.2212824E-05)
 number of electron     323.9999996 magnetization 
 augmentation part      -21.2110986 magnetization 

 Broyden mixing:
  rms(total) = 0.39545E-03    rms(broyden)= 0.39544E-03
  rms(prec ) = 0.46697E-03
  weight for this iteration     100.00

 eigenvalues of (default mixing * dielectric matrix)
  average eigenvalue GAMMA=   1.5553
  7.1330  3.4229  2.5342  1.8764  1.8764  1.8420  0.9807  0.9807  0.8119  0.8119
  0.6275  0.4360  0.4084  0.3981  0.3694  0.3747

 Free energy of the ion-electron system (eV)
  ---------------------------------------------------
  alpha Z        PSCENC =       247.54133775
  Ewald energy   TEWEN  =     60980.49071276
  -Hartree energ DENC   =    -72840.04439853
  -exchange      EXHF   =         0.00000000
  -V(xc)+E(xc)   XCENC  =     -2087.68262974
  PAW double counting   =      8335.79473607    -5692.35746469
  entropy T*S    EENTRO =        -0.00000000
  eigenvalues    EBANDS =     -1220.11488332
  atomic energy  EATOM  =     11953.08265402
  Solvation  Ediel_sol  =         0.00000000
  ---------------------------------------------------
  free energy    TOTEN  =      -323.28993569 eV

  energy without entropy =     -323.28993569  energy(sigma->0) =     -323.28993569


--------------------------------------------------------------------------------------------------------




--------------------------------------- Iteration      1(  22)  ---------------------------------------


    POTLOK:  cpu time    0.3169: real time    0.3172
    SETDIJ:  cpu time    0.0118: real time    0.0118
    EDDIAG:  cpu time    2.5878: real time    2.5988
  RMM-DIIS:  cpu time   36.0078: real time   36.1112
    ORTHCH:  cpu time    0.2115: real time    0.2142
       DOS:  cpu time    0.0005: real time    0.0005
    CHARGE:  cpu time    1.1876: real time    1.1887
    MIXING:  cpu time    0.0115: real time    0.0115
    --------------------------------------------
      LOOP:  cpu time   40.3355: real time   40.4539

 eigenvalue-minimisations  :  1696
 total energy-change (2. order) :-0.6553282E-04  (-0.8024634E-06)
 number of electron     323.9999996 magnetization 
 augmentation part      -21.2117028 magnetization 

 Broyden mixing:
[...]
 -0.000  -0.000   0.000   0.000  -0.000   0.011  -0.000   0.000
 -0.000   0.000   0.000   0.000  -0.000  -0.000   0.011   0.000
  0.000   0.000  -0.000  -0.000   0.000   0.000   0.000   0.011
  0.001   0.000  -0.000  -0.000   0.002   0.000   0.000   0.000
  0.000  -0.000  -0.014   0.001  -0.000  -0.000  -0.000   0.000
 -0.009  -0.000  -0.000  -0.018   0.000   0.000  -0.000  -0.000
 -0.000   0.000  -0.000  -0.000  -0.014   0.000   0.000  -0.000
 -0.001  -0.000  -0.001   0.000  -0.000   0.000  -0.000   0.000
 total augmentation occupancy for first ion, spin component:           1
  1.935   0.201  -0.001   0.199  -0.002  -0.011   0.038   0.003  -0.000  -0.002   0.007   0.001   0.001
  0.201   1.354   0.031  -0.928   0.000  -0.016   0.362   0.003   0.005  -0.004  -0.025  -0.000  -0.009
 -0.001   0.031   1.339  -0.015  -0.000  -0.478   0.015  -0.003  -0.002  -0.117   0.001  -0.002  -0.048
  0.199  -0.928  -0.015   1.498   0.004   0.015  -0.536  -0.005  -0.001   0.006  -0.037  -0.002   0.001
 -0.002   0.000  -0.000   0.004   1.329  -0.003  -0.004  -0.472  -0.039  -0.002  -0.002  -0.113   0.002
 -0.011  -0.016  -0.478   0.015  -0.003   0.311  -0.005   0.006   0.001   0.036   0.001  -0.000   0.010
  0.038   0.362   0.015  -0.536  -0.004  -0.005   0.282   0.000  -0.000  -0.004   0.044   0.001   0.000
  0.003   0.003  -0.003  -0.005  -0.472   0.006   0.000   0.295   0.005  -0.000  -0.000   0.038  -0.001
 -0.000   0.005  -0.002  -0.001  -0.039   0.001  -0.000   0.005   0.021   0.000  -0.001  -0.001  -0.000
 -0.002  -0.004  -0.117   0.006  -0.002   0.036  -0.004  -0.000   0.000   0.019  -0.001   0.000   0.000
  0.007  -0.025   0.001  -0.037  -0.002   0.001   0.044  -0.000  -0.001  -0.001   0.019   0.000   0.001
  0.001  -0.000  -0.002  -0.002  -0.113  -0.000   0.001   0.038  -0.001   0.000   0.000   0.017   0.000
  0.001  -0.009  -0.048   0.001   0.002   0.010   0.000  -0.001  -0.000   0.000   0.001   0.000   0.020


------------------------ aborting loop because EDIFF is reached ----------------------------------------


    CHARGE:  cpu time    1.1901: real time    1.1910
    FORLOC:  cpu time    0.1070: real time    0.1070
    FORNL :  cpu time   13.6311: real time   13.6660
    STRESS:  cpu time   71.2264: real time   71.4335
    FORCOR:  cpu time    0.3437: real time    0.3440
    FORHAR:  cpu time    0.1431: real time    0.1432
    MIXING:  cpu time    0.0076: real time    0.0076
    OFIELD:  cpu time    0.0000: real time    0.0000

  Number of pair interactions contributing to vdW energy:  271692
  Edisp (eV):  -19.08774
    FORVDW:  cpu time    0.0302: real time    0.0302

  FORCE on cell =-STRESS in cart. coord.  units (eV):
  Direction    XX          YY          ZZ          XY          YZ          ZX
  --------------------------------------------------------------------------------------
  Alpha Z   247.54134   247.54134   247.54134
  Ewald   70088.34721 70175.56874-79288.44425    32.75839   -21.12398    65.58816
  Hartree 72454.22492 72476.33206-72094.76747     9.71776    -2.33190    10.82756
  E(xc)   -1353.83060 -1355.75664 -1373.69145    -0.50496     0.83888    -1.83570
  Local  ************************146321.52537   -41.51045    23.12805   -74.54000
  n-local  3554.43282  3552.09352  3737.94038    -1.99774    -6.05733    12.78740
  augment  -761.61474  -759.10577  -801.38754     1.14203     1.00593    -1.81860
  Kinetic  3279.47841  3308.19994  3254.26148    10.64845    -3.03218    10.74484
  Fock        0.00000     0.00000     0.00000     0.00000     0.00000     0.00000
  vdW       -12.25007   -12.40949    -9.36420     0.11334     0.31025     0.08090
  -------------------------------------------------------------------------------------
  Total     -11.00250    18.37397    -6.38635    10.36683    -7.26228    21.83455
  in kB      -6.08033    10.15404    -3.52930     5.72904    -4.01336    12.06646
  external pressure =        0.18 kB  Pullay stress =        0.00 kB

  kinetic pressure (ideal gas correction) =      0.20 kB
  total pressure  =      0.38 kB
  Total+kin.    -5.898      10.370      -3.319       5.698      -4.016      12.138

 VOLUME and BASIS-vectors are now :
 -----------------------------------------------------------------------------
  energy-cutoff  :      550.00
  volume of cell :     2899.18
      direct lattice vectors                 reciprocal lattice vectors
    10.712046886  0.000000000  0.000000000     0.093352840  0.057953047  0.001867611
    -5.562490528  8.960258542  0.000000000     0.000000000  0.111603923 -0.001196214
    -0.805266698  0.323750965 30.205201703     0.000000000  0.000000000  0.033106880

  length of vectors
    10.712046886 10.546446511 30.217668326     0.109894479  0.111610333  0.033106880


 FORCES acting on ions
    electron-ion (+dipol)            ewald-force                    non-local-force                 convergence-correction
 -----------------------------------------------------------------------------------------------
   -.111E-01 0.315E+01 -.832E+03   -.744E-01 -.307E+01 0.838E+03   0.192E+00 -.388E+00 -.543E+01   -.387E-03 0.641E-04 -.701E-04
   -.204E+01 0.446E-01 -.836E+03   0.195E+01 0.328E-01 0.841E+03   0.357E+00 0.273E-01 -.550E+01   0.524E-03 0.905E-03 -.205E-05
   -.106E+01 0.158E+01 -.834E+03   0.100E+01 -.153E+01 0.839E+03   0.259E+00 -.153E+00 -.547E+01   0.314E-03 -.784E-03 -.463E-03
   -.271E+01 0.266E+01 -.833E+03   0.260E+01 -.264E+01 0.838E+03   0.463E+00 -.299E+00 -.527E+01   -.487E-04 0.930E-03 -.505E-04
   -.161E+00 0.474E+00 -.835E+03   0.749E-01 -.394E+00 0.840E+03   0.190E+00 -.105E+00 -.542E+01   0.534E-03 -.813E-03 -.649E-04
   -.239E+00 0.305E+01 -.833E+03   0.127E+00 -.293E+01 0.839E+03   0.296E+00 -.452E+00 -.507E+01   -.104E-02 -.441E-03 -.220E-04
   -.216E+01 0.765E+00 -.832E+03   0.209E+01 -.770E+00 0.837E+03   0.355E+00 -.150E+00 -.533E+01   0.429E-03 -.494E-03 0.511E-03
   -.191E+01 0.706E+00 -.834E+03   0.183E+01 -.614E+00 0.839E+03   0.331E+00 -.831E-01 -.531E+01   -.105E-02 0.322E-03 -.153E-03
   -.336E+01 0.171E+01 -.836E+03   0.328E+01 -.158E+01 0.842E+03   0.393E+00 -.346E+00 -.541E+01   0.723E-03 0.238E-03 -.149E-04
   -.248E+01 0.187E+01 0.102E+03   0.232E+01 -.184E+01 -.968E+02   0.424E+00 -.287E+00 -.527E+01   -.145E-03 0.622E-03 0.129E-02
   0.211E+01 0.292E+01 0.102E+03   -.229E+01 -.291E+01 -.962E+02   0.171E+00 -.303E+00 -.564E+01   -.104E-02 -.355E-03 -.327E-03
   -.229E+01 0.134E+01 0.102E+03   0.212E+01 -.116E+01 -.964E+02   0.441E+00 -.308E+00 -.522E+01   0.721E-03 -.608E-03 0.106E-02
   -.488E+00 0.275E+01 0.105E+03   0.340E+00 -.267E+01 -.998E+02   0.298E+00 -.492E+00 -.590E+01   0.185E-02 -.151E-03 -.356E-03
   -.418E+01 0.387E+01 0.103E+03   0.408E+01 -.383E+01 -.976E+02   0.624E+00 -.285E+00 -.533E+01   0.911E-04 0.267E-03 0.406E-03
   -.712E-01 -.168E+01 0.997E+02   -.118E+00 0.186E+01 -.944E+02   0.442E+00 -.462E-01 -.539E+01   0.412E-04 0.117E-02 -.538E-03
   -.121E+01 0.129E+01 0.101E+03   0.104E+01 -.118E+01 -.955E+02   0.545E+00 -.401E+00 -.524E+01   -.172E-02 0.762E-03 -.133E-02
   -.221E+01 0.216E+01 0.103E+03   0.201E+01 -.211E+01 -.980E+02   0.504E+00 -.234E+00 -.572E+01   0.935E-03 -.126E-02 -.312E-03
   -.192E+01 0.117E+01 0.100E+03   0.181E+01 -.108E+01 -.947E+02   0.390E+00 -.213E+00 -.540E+01   -.718E-03 -.394E-03 0.101E-02
   0.188E+01 0.488E+00 -.103E+03   -.174E+01 -.453E+00 0.980E+02   -.581E+00 0.495E-01 0.553E+01   -.403E-03 0.114E-03 0.308E-03
   0.583E+00 0.398E+01 -.104E+03   -.461E+00 -.403E+01 0.982E+02   -.473E+00 -.348E-01 0.537E+01   0.404E-03 0.105E-02 0.258E-03
   0.155E+00 -.247E+00 -.103E+03   -.423E-01 0.262E+00 0.975E+02   -.355E+00 0.207E+00 0.526E+01   0.499E-03 -.865E-03 0.552E-03
   -.290E+01 0.119E+01 -.100E+03   0.304E+01 -.125E+01 0.950E+02   -.189E+00 0.667E-01 0.577E+01   0.319E-04 0.826E-03 -.357E-04
   0.180E+01 -.116E+01 -.102E+03   -.168E+01 0.121E+01 0.971E+02   -.617E+00 0.287E+00 0.563E+01   0.690E-03 -.831E-03 0.440E-03
   -.214E+01 0.419E+00 -.998E+02   0.235E+01 -.379E+00 0.946E+02   -.326E+00 0.580E-01 0.538E+01   -.117E-02 -.299E-03 -.839E-04
   0.968E+00 -.207E+01 -.103E+03   -.821E+00 0.207E+01 0.977E+02   -.605E+00 0.231E+00 0.543E+01   0.386E-03 -.547E-03 -.388E-03
   -.228E+01 0.363E+01 -.101E+03   0.248E+01 -.364E+01 0.953E+02   -.277E+00 -.323E-01 0.573E+01   -.105E-02 0.342E-03 0.159E-03
   0.115E+01 0.154E+01 -.103E+03   -.107E+01 -.150E+01 0.978E+02   -.562E+00 -.962E-01 0.510E+01   0.654E-03 0.166E-03 0.280E-03
   -.108E+01 0.502E+00 0.835E+03   0.111E+01 -.519E+00 -.841E+03   -.254E+00 -.425E-01 0.534E+01   -.128E-03 0.626E-03 -.107E-02
   0.136E+01 0.811E+00 0.834E+03   -.132E+01 -.842E+00 -.839E+03   -.304E+00 0.887E-01 0.567E+01   -.996E-03 -.285E-03 0.597E-03
   -.975E+00 0.223E+01 0.835E+03   0.977E+00 -.216E+01 -.841E+03   -.263E+00 -.948E-01 0.505E+01   0.768E-03 -.554E-03 -.782E-03
   -.154E+01 -.988E-01 0.832E+03   0.160E+01 0.144E+00 -.838E+03   -.118E+00 0.323E-01 0.576E+01   0.180E-02 -.280E-03 0.790E-03
   0.402E+00 0.366E+01 0.831E+03   -.369E+00 -.366E+01 -.837E+03   -.289E+00 -.128E+00 0.528E+01   0.192E-04 0.254E-03 -.117E-04
   0.734E-01 -.327E+00 0.835E+03   -.296E-02 0.400E+00 -.840E+03   -.198E+00 0.662E-01 0.541E+01   -.970E-04 0.112E-02 0.898E-03
   0.200E+01 0.858E+00 0.835E+03   -.197E+01 -.844E+00 -.840E+03   -.338E+00 -.845E-01 0.536E+01   -.172E-02 0.804E-03 0.145E-02
   -.284E+01 0.322E+01 0.832E+03   0.285E+01 -.327E+01 -.838E+03   0.386E-01 0.141E-02 0.534E+01   0.989E-03 -.124E-02 0.822E-03
   0.317E+00 -.161E+01 0.834E+03   -.252E+00 0.165E+01 -.839E+03   -.301E+00 0.398E+00 0.504E+01   -.689E-03 -.386E-03 -.733E-03
   -.789E+00 -.561E+01 -.466E+03   0.844E+00 0.572E+01 0.466E+03   0.582E+00 0.375E+00 0.382E+00   0.627E-03 -.858E-04 0.236E-03
   0.208E+01 -.113E+01 -.469E+03   -.212E+01 0.125E+01 0.469E+03   0.651E-02 -.323E+00 -.301E+00   0.779E-04 0.545E-03 0.218E-04
   0.115E+01 -.177E+01 -.470E+03   -.111E+01 0.175E+01 0.470E+03   -.292E-01 0.565E-01 0.252E+00   0.151E-03 -.122E-03 0.828E-04
   0.154E+01 -.136E+01 -.469E+03   -.152E+01 0.138E+01 0.469E+03   -.771E-02 -.155E+00 -.447E-01   0.157E-04 -.165E-03 0.147E-03
   0.182E+01 -.309E+01 -.470E+03   -.177E+01 0.320E+01 0.470E+03   0.162E+00 0.143E+00 -.103E+00   0.265E-03 0.216E-04 0.827E-04
   0.154E+01 -.633E+00 -.466E+03   -.153E+01 0.622E+00 0.466E+03   0.217E+00 -.830E-01 0.434E+00   -.236E-03 0.170E-04 0.975E-04
   0.299E+01 -.635E+01 -.463E+03   -.308E+01 0.647E+01 0.463E+03   -.852E-01 0.451E+00 -.104E+00   -.425E-03 -.254E-03 0.116E-03
   -.928E+00 -.168E+01 -.467E+03   0.950E+00 0.172E+01 0.467E+03   0.345E+00 -.107E+00 -.182E+00   -.165E-03 0.231E-03 0.966E-05
   0.148E+01 0.941E+00 -.469E+03   -.149E+01 -.914E+00 0.469E+03   0.160E+00 -.345E+00 -.160E+00   0.240E-03 -.418E-03 0.461E-04
   -.268E+01 -.771E+01 0.469E+03   0.270E+01 0.789E+01 -.469E+03   0.256E+00 0.665E+00 0.138E+00   0.144E-02 0.172E-03 0.273E-03
   0.232E+01 -.191E+01 0.468E+03   -.246E+01 0.197E+01 -.468E+03   0.488E-01 0.110E+00 -.199E+00   -.580E-03 0.707E-03 0.175E-03
   0.263E+01 -.394E+00 0.468E+03   -.264E+01 0.445E+00 -.468E+03   -.190E+00 -.294E+00 -.970E-01   0.480E-03 -.684E-04 0.191E-03
   0.554E+01 -.489E+01 0.467E+03   -.564E+01 0.496E+01 -.467E+03   -.264E+00 0.144E+00 -.122E+00   0.229E-03 0.761E-03 0.255E-03
   0.139E+01 0.256E+01 0.470E+03   -.140E+01 -.259E+01 -.470E+03   -.381E+00 -.507E-01 0.267E+00   0.133E-02 -.613E-03 0.346E-03
   0.251E+01 -.335E+01 0.464E+03   -.262E+01 0.351E+01 -.464E+03   -.226E+00 0.488E-02 -.126E+00   -.805E-03 0.338E-03 0.180E-03
   0.299E+01 -.287E+01 0.470E+03   -.306E+01 0.295E+01 -.470E+03   -.241E+00 -.104E+00 0.555E-01   -.177E-02 0.580E-03 0.316E-03
   0.254E+01 -.588E+01 0.466E+03   -.256E+01 0.601E+01 -.466E+03   -.936E-01 0.590E+00 -.940E-01   -.789E-03 -.647E-03 0.239E-03
   0.344E+00 0.117E+01 0.471E+03   -.354E+00 -.113E+01 -.471E+03   0.641E-01 -.431E+00 0.400E+00   0.292E-03 -.144E-02 0.345E-03
 -----------------------------------------------------------------------------------------------
   -.983E+00 0.289E+01 -.542E+00   -.603E-13 -.293E-13 -.284E-12   0.989E+00 -.290E+01 0.533E+00   0.374E-03 -.442E-03 0.718E-02
 
 
 POSITION                                       TOTAL-FORCE (eV/Angst)
 -----------------------------------------------------------------------------------
      1.21405      1.20378     20.61792         0.098003     -0.314660     -0.134206
     -0.63181      4.18456     20.64970         0.267193      0.100774     -0.296701
     -2.47829      7.17919     20.62658         0.195432     -0.099982     -0.217668
      4.78435      1.22791     20.61422         0.348401     -0.267223     -0.029460
      2.94163      4.19366     20.63596         0.102450     -0.029481     -0.182720
      1.07060      7.19822     20.60091         0.176403     -0.329313      0.141044
      8.34255      1.20893     20.60654         0.276148     -0.157929     -0.044897
      6.49628      4.18856     20.62456         0.241338      0.003760     -0.077329
      4.64484      7.19013     20.63967         0.298387     -0.210475     -0.170238
      0.23052      1.13759     13.21727         0.236412     -0.255152      0.096406
     -1.61000      4.13496     13.24802        -0.027331     -0.281291     -0.263425
     -3.48701      7.09456     13.21913         0.244495     -0.139802      0.127485
      3.79243      1.15403     13.24966         0.117780     -0.395389     -0.544340
      1.92366      4.12290     13.22109         0.478956     -0.244483      0.105245
      0.09487      7.08271     13.24876         0.221060      0.110530     -0.077386
      7.35801      1.13610     13.23314         0.337108     -0.298575      0.073525
      5.50306      4.14242     13.24475         0.270288     -0.169909     -0.376539
      3.66401      7.12623     13.23338         0.252843     -0.112144     -0.030259
      1.32513      1.16749     16.98001        -0.401420      0.076285      0.084136
     -0.52397      4.16663     16.98121        -0.308281     -0.080156      0.014168
     -2.40229      7.14352     16.98586        -0.210046      0.210653     -0.116186
      4.86563      1.18728     16.94059        -0.016886      0.006196      0.438769
      3.03998      4.14701     16.96260        -0.458181      0.319149      0.285638
      1.16699      7.13926     16.96208        -0.078470      0.086983      0.032912
      8.46249      1.17934     16.98082        -0.417684      0.221420      0.017690
      6.58368      4.17149     16.94449        -0.044669     -0.037556      0.426030
      4.76173      7.14407     16.99898        -0.437174     -0.065839     -0.299178
      0.31828      1.11655      9.57539        -0.212481     -0.059089      0.080787
     -1.54108      4.08664      9.56362        -0.251988      0.048506      0.442916
     -3.38202      7.06316      9.58728        -0.244355     -0.029903     -0.196694
      3.87031      1.08109      9.55765        -0.051795      0.060155      0.499971
      2.03235      4.10855      9.60763        -0.241262     -0.120808     -0.059453
      0.18306      7.06177      9.57464        -0.115596      0.126964      0.226301
      7.46470      1.10452      9.57141        -0.288183     -0.073142      0.155121
      5.58812      4.09488      9.58958         0.058008     -0.053692      0.032585
      3.73439      7.04934      9.60362        -0.229864      0.411664     -0.216761
      4.60833      9.13913     18.77702         0.656307      0.536980      0.521631
     -2.36472      3.22332     18.81650        -0.051666     -0.244068     -0.434071
      6.49775      6.17660     18.78995        -0.006375      0.064309      0.393439
      3.06926      0.21785     18.80022        -0.011856     -0.140601     -0.032686
      1.20048      3.18393     18.81103         0.196160      0.259662     -0.128114
     -0.65052      6.18047     18.76945         0.219693     -0.081692      0.617065
      1.06395      9.14739     18.78485        -0.178999      0.626292     -0.239493
      4.76020      3.20665     18.79906         0.372347     -0.063509     -0.223311
      2.91308      6.19653     18.81116         0.140060     -0.353535     -0.215324
     -3.50806      9.04639     11.39330         0.303071      0.926060      0.163792
      0.21544      3.11698     11.41633        -0.078390      0.185656     -0.351134
     -1.61998      6.11795     11.41247        -0.219132     -0.277670     -0.173479
      0.10268      9.07063     11.41418        -0.381859      0.242051     -0.232560
      3.80840      3.12198     11.39048        -0.409363     -0.102986      0.274280
      1.94549      6.10854     11.42757        -0.331288      0.164569     -0.164698
      9.22583      0.14554     11.39794        -0.326432     -0.039935     -0.021034
      7.36470      3.08716     11.41716        -0.115834      0.773177     -0.173183
      5.50354      6.12922     11.38305         0.045064     -0.439481      0.469821
 -----------------------------------------------------------------------------------
    total drift:                                0.006548     -0.007674     -0.001771


--------------------------------------------------------------------------------------------------------



  FREE ENERGIE OF THE ION-ELECTRON SYSTEM (eV)
  ---------------------------------------------------
  free  energy   TOTEN  =      -342.20812179 eV

  energy  without entropy=     -342.20812179  energy(sigma->0) =     -342.20812179
 
 d Force =-0.3138078E-01[-0.338E-01,-0.290E-01]  d Energy =-0.3136250E-01-0.183E-04
 d Force =-0.9402099E+00[-0.945E+00,-0.935E+00]  d Ewald  =-0.9402106E+00 0.730E-06


--------------------------------------------------------------------------------------------------------


    POTLOK:  cpu time    0.3217: real time    0.3220


--------------------------------------------------------------------------------------------------------


           RANDOM_SEED =         239423752              324                0
   IONSTEP:  cpu time    0.0001: real time    0.0001

  ENERGY OF THE ELECTRON-ION-THERMOSTAT SYSTEM (eV)
  ---------------------------------------------------
% ion-electron   TOTEN  =      -342.208122  see above
  kinetic energy EKIN   =         0.538674
  kin. lattice  EKIN_LAT=         0.000000  (temperature   78.63 K)
  nose potential ES     =        -0.028256
  nose kinetic   EPS    =         0.004396
  ---------------------------------------------------
  total energy   ETOTAL =      -341.693308 eV

  maximum distance moved by ions :      0.49E-03


 mean value of Nose-termostat <S>:     0.970 mean value of <T> :    78.629
 mean temperature <T/S>/<1/S>  :    78.629

    WAVPRE:  cpu time    0.1083: real time    0.1119
    FEWALD:  cpu time    0.0010: real time    0.0010
    ORTHCH:  cpu time    7.9601: real time    7.9846
    POTLOK:  cpu time    0.3222: real time    0.3225
    EDDIAG:  cpu time    2.5988: real time    2.6055
     LOOP+:  cpu time  477.6070: real time  479.0098
    4ORBIT:  cpu time    0.0000: real time    0.0000

 total amount of memory used by VASP MPI-rank0   371329. kBytes
=======================================================================

   base      :      30000. kBytes
   nonl-proj :     195747. kBytes
   fftplans  :      19943. kBytes
   grid      :      90496. kBytes
   one-center:        839. kBytes
   wavefun   :      34304. kBytes
 
  
  
 General timing and accounting informations for this job:
 ========================================================
  
                  Total CPU time used (sec):     5752.914
                            User time (sec):     5739.854
                          System time (sec):       13.060
                         Elapsed time (sec):     5769.378
  
                   Maximum memory used (kb):      832904.
                   Average memory used (kb):           0.
  
                          Minor page faults:       381734
                          Major page faults:            0
                 Voluntary context switches:          626
