 vasp.6.1.1 19Jun20 (build Dec 21 2021 08:45:49) complex                        
  
 executed on             LinuxIFC date 2023.10.06  09:43:12
 running on   40 total cores
 distrk:  each k-point on   40 cores,    1 groups
 distr:  one band on NCORE=   1 cores,   40 groups


--------------------------------------------------------------------------------------------------------


 INCAR:
 POTCAR:   PAW_PBE Te 08Apr2002                   
 POTCAR:   PAW_PBE Mo 08Apr2002                   
 -----------------------------------------------------------------------------
|                                                                             |
|           W    W    AA    RRRRR   N    N  II  N    N   GGGG   !!!           |
|           W    W   A  A   R    R  NN   N  II  NN   N  G    G  !!!           |
|           W    W  A    A  R    R  N N  N  II  N N  N  G       !!!           |
|           W WW W  AAAAAA  RRRRR   N  N N  II  N  N N  G  GGG   !            |
|           WW  WW  A    A  R   R   N   NN  II  N   NN  G    G                |
|           W    W  A    A  R    R  N    N  II  N    N   GGGG   !!!           |
|                                                                             |
|     For optimal performance we recommend to set                             |
|       NCORE = 4 - approx SQRT(number of cores).                             |
|     NCORE specifies how many cores store one orbital (NPAR=cpu/NCORE).      |
|     This setting can greatly improve the performance of VASP for DFT.       |
|     The default, NCORE=1 might be grossly inefficient on modern             |
|     multi-core architectures or massively parallel machines. Do your        |
|     own testing!!!!                                                         |
|     Unfortunately you need to use the default for GW and RPA                |
|     calculations (for HF NCORE is supported but not extensively tested      |
|     yet).                                                                   |
|                                                                             |
 -----------------------------------------------------------------------------

 POTCAR:   PAW_PBE Te 08Apr2002                   
   VRHFIN =Te: s2p4                                                                                 
   LEXCH  = PE                                                                                      
   EATOM  =   223.2721 eV,   16.4100 Ry                                                             
                                                                                                    
   TITEL  = PAW_PBE Te 08Apr2002                                                                    
   LULTRA =        F    use ultrasoft PP ?                                                          
   IUNSCR =        1    unscreen: 0-lin 1-nonlin 2-no                                               
   RPACOR =    2.200    partial core radius                                                         
   POMASS =  127.600; ZVAL   =    6.000    mass and valenz                                          
   RCORE  =    2.300    outmost cutoff radius                                                       
   RWIGS  =    2.900; RWIGS  =    1.535    wigner-seitz radius (au A)                               
   ENMAX  =  174.982; ENMIN  =  131.236 eV                                                          
   ICORE  =        3    local potential                                                             
   LCOR   =        T    correct aug charges                                                         
   LPAW   =        T    paw PP                                                                      
   EAUG   =  368.792                                                                                
   DEXC   =    -.169                                                                                
   RMAX   =    3.486    core radius for proj-oper                                                   
   RAUG   =    1.300    factor for augmentation sphere                                              
   RDEP   =    2.397    radius for radial grids                                                     
   QCUT   =   -3.586; QGAM   =    7.172    optimization parameters                                  
                                                                                                    
   Description                                                                                      
     l     E      TYP  RCUT    TYP  RCUT                                                            
     0   .000     23  2.300                                                                         
     0   .000     23  2.300                                                                         
     1   .000     23  2.300                                                                         
     1   .000     23  2.300                                                                         
     2   .000     23  2.300                                                                         
     3  -.100     23  2.300                                                                         
  local pseudopotential read in
  partial core-charges read in
  atomic valenz-charges read in
  non local Contribution for L=           0  read in
    real space projection operators read in
  non local Contribution for L=           0  read in
    real space projection operators read in
  non local Contribution for L=           1  read in
    real space projection operators read in
  non local Contribution for L=           1  read in
    real space projection operators read in
  non local Contribution for L=           2  read in
    real space projection operators read in
    PAW grid and wavefunctions read in
 
   number of l-projection  operators is LMAX  =           5
   number of lm-projection operators is LMMAX =          13
 
 POTCAR:   PAW_PBE Mo 08Apr2002                   
   VRHFIN =Mo: 4p5s4d                                                                               
   LEXCH  = PE                                                                                      
   EATOM  =   217.5180 eV,   15.9871 Ry                                                             
                                                                                                    
   TITEL  = PAW_PBE Mo 08Apr2002                                                                    
   LULTRA =        F    use ultrasoft PP ?                                                          
   IUNSCR =        1    unscreen: 0-lin 1-nonlin 2-no                                               
   RPACOR =    2.200    partial core radius                                                         
   POMASS =   95.940; ZVAL   =    6.000    mass and valenz                                          
   RCORE  =    2.750    outmost cutoff radius                                                       
   RWIGS  =    2.750; RWIGS  =    1.455    wigner-seitz radius (au A)                               
   ENMAX  =  224.584; ENMIN  =  168.438 eV                                                          
   RCLOC  =    2.111    cutoff for local pot                                                        
   LCOR   =        T    correct aug charges                                                         
   LPAW   =        T    paw PP                                                                      
   EAUG   =  345.278                                                                                
   DEXC   =    -.088                                                                                
   RMAX   =    3.077    core radius for proj-oper                                                   
   RAUG   =    1.300    factor for augmentation sphere                                              
   RDEP   =    2.815    radius for radial grids                                                     
   QCUT   =   -4.063; QGAM   =    8.126    optimization parameters                                  
                                                                                                    
   Description                                                                                      
     l     E      TYP  RCUT    TYP  RCUT                                                            
     2   .000     23  2.500                                                                         
     2   .000     23  2.500                                                                         
     0   .000     23  2.600                                                                         
     0  1.000     23  2.600                                                                         
     1   .400     23  2.750                                                                         
     1  2.000     23  2.750                                                                         
     3   .000      7   .000                                                                         
  local pseudopotential read in
  partial core-charges read in
  atomic valenz-charges read in
  non local Contribution for L=           2  read in
    real space projection operators read in
  non local Contribution for L=           2  read in
    real space projection operators read in
  non local Contribution for L=           0  read in
    real space projection operators read in
  non local Contribution for L=           0  read in
    real space projection operators read in
  non local Contribution for L=           1  read in
    real space projection operators read in
  non local Contribution for L=           1  read in
    real space projection operators read in
    PAW grid and wavefunctions read in
 
   number of l-projection  operators is LMAX  =           6
   number of lm-projection operators is LMMAX =          18
 
 -----------------------------------------------------------------------------
|                                                                             |
|               ----> ADVICE to this user running VASP <----                  |
|                                                                             |
|     You have a (more or less) 'large supercell' and for larger cells it     |
|     might be more efficient to use real-space projection operators.         |
|     Therefore, try LREAL= Auto in the INCAR file.                           |
|     Mind: If you want to do very accurate calculations, keep the            |
|     reciprocal projection scheme (i.e. LREAL=.FALSE.).                      |
|                                                                             |
 -----------------------------------------------------------------------------

 PAW_PBE Te 08Apr2002                   :
 energy of atom  1       EATOM= -223.2721
 kinetic energy error for atom=    0.0006 (will be added to EATOM!!)
 PAW_PBE Mo 08Apr2002                   :
 energy of atom  2       EATOM= -217.5180
 kinetic energy error for atom=    0.0009 (will be added to EATOM!!)
 
 
 POSCAR: Te Mo
  positions in cartesian coordinates
  No initial velocities read in
 exchange correlation table for  LEXCH =        8
   RHO(1)=    0.500       N(1)  =     2000
   RHO(2)=  100.500       N(2)  =     4000
 


--------------------------------------------------------------------------------------------------------


 ion  position               nearest neighbor table
   1  0.222  0.111  0.677-  41 2.69  40 2.74  37 2.78   9 3.48   5 3.49   3 3.51   2 3.52   4 3.57
                             7 3.58  19 3.65
   2  0.223  0.445  0.677-  42 2.68  41 2.74  38 2.78   6 3.47   7 3.49   3 3.52   1 3.52   5 3.57
                             8 3.57  20 3.65
   3  0.222  0.778  0.677-  40 2.68  42 2.74  39 2.78   8 3.48   4 3.48   1 3.51   2 3.52   9 3.57
                             6 3.57  21 3.64
   4  0.556  0.111  0.677-  44 2.69  43 2.74  40 2.78   3 3.48   8 3.49   6 3.52   5 3.52   7 3.57
                             1 3.57  22 3.66
   5  0.556  0.445  0.677-  45 2.68  44 2.73  41 2.77   9 3.48   1 3.49   6 3.51   4 3.52   2 3.57
                             8 3.58  23 3.64
   6  0.555  0.777  0.678-  43 2.70  45 2.74  42 2.77   2 3.47   7 3.49   5 3.51   4 3.52   3 3.57
                             9 3.58  24 3.66
   7  0.889  0.111  0.677-  38 2.68  37 2.73  43 2.78   6 3.49   2 3.49   9 3.52   8 3.52   4 3.57
                             1 3.58  25 3.66
   8  0.889  0.445  0.677-  39 2.68  38 2.72  44 2.78   3 3.48   4 3.49   9 3.52   7 3.52   2 3.57
                             5 3.58  26 3.66
   9  0.889  0.778  0.677-  37 2.68  39 2.73  45 2.78   5 3.48   1 3.48   7 3.52   8 3.52   3 3.57
                             6 3.58  27 3.65
  10  1.000  0.000  0.444-  46 2.69  48 2.73  54 2.77  14 3.48  18 3.48  11 3.52  12 3.52  16 3.57
                            13 3.58  28 3.65
  11  0.000  0.333  0.443-  47 2.69  46 2.74  52 2.78  16 3.48  15 3.49  10 3.52  12 3.52  17 3.57
                            14 3.57  29 3.66
  12  1.000  0.667  0.443-  48 2.69  47 2.73  53 2.78  17 3.48  13 3.49  11 3.52  10 3.52  18 3.57
                            15 3.57  30 3.65
  13  0.334  0.000  0.443-  49 2.69  51 2.73  48 2.78  17 3.49  12 3.49  14 3.51  15 3.52  16 3.57
                            10 3.58  31 3.65
  14  0.333  0.333  0.443-  50 2.69  49 2.73  46 2.78  10 3.48  18 3.49  13 3.51  15 3.52  17 3.57
                            11 3.57  32 3.65
  15  0.334  0.667  0.443-  51 2.68  50 2.73  47 2.78  16 3.49  11 3.49  13 3.52  14 3.52  18 3.57
                            12 3.57  33 3.65
  16  0.667  0.001  0.443-  52 2.68  54 2.73  51 2.78  11 3.48  15 3.49  17 3.51  18 3.53  13 3.57
                            10 3.57  34 3.65
  17  0.667  0.334  0.443-  53 2.68  52 2.73  49 2.78  12 3.48  13 3.49  18 3.51  16 3.51  11 3.57
                            14 3.57  35 3.65
  18  0.667  0.666  0.443-  54 2.69  53 2.73  50 2.79  10 3.48  14 3.49  17 3.51  16 3.53  12 3.57
                            15 3.57  36 3.65
  19  0.222  0.111  0.557-  37 2.70  41 2.74  40 2.77  27 3.49  23 3.49  20 3.52  21 3.52  22 3.57
                            25 3.57   1 3.65
  20  0.222  0.445  0.557-  38 2.71  42 2.74  41 2.77  24 3.49  25 3.49  21 3.51  19 3.52  26 3.57
                            23 3.58   2 3.65
  21  0.222  0.777  0.557-  39 2.69  40 2.74  42 2.77  26 3.47  22 3.49  20 3.51  19 3.52  27 3.57
                            24 3.58   3 3.64
  22  0.555  0.111  0.556-  40 2.69  44 2.75  43 2.78  26 3.49  21 3.49  23 3.51  24 3.53  19 3.57
                            25 3.58   4 3.66
  23  0.556  0.444  0.557-  41 2.69  45 2.74  44 2.77  27 3.48  19 3.49  22 3.51  24 3.52  26 3.57
                            20 3.58   5 3.64
  24  0.556  0.778  0.557-  42 2.70  43 2.74  45 2.76  25 3.48  20 3.49  23 3.52  22 3.53  27 3.56
                            21 3.58   6 3.66
  25  0.889  0.110  0.556-  43 2.69  38 2.75  37 2.77  24 3.48  20 3.49  27 3.51  26 3.52  19 3.57
                            22 3.58   7 3.66
  26  0.889  0.445  0.556-  44 2.70  39 2.74  38 2.77  21 3.47  22 3.49  27 3.52  25 3.52  20 3.57
                            23 3.57   8 3.66
  27  0.889  0.778  0.557-  45 2.70  37 2.75  39 2.76  23 3.48  19 3.49  25 3.51  26 3.52  24 3.56
                            21 3.57   9 3.65
  28  0.000  0.000  0.323-  54 2.69  46 2.73  48 2.76  32 3.48  36 3.49  30 3.52  29 3.53  34 3.57
                            31 3.57  10 3.65
  29  0.000  0.334  0.322-  52 2.70  47 2.74  46 2.78  33 3.48  34 3.49  30 3.51  28 3.53  32 3.57
                            35 3.57  11 3.66
  30  1.000  0.666  0.323-  53 2.69  48 2.74  47 2.76  35 3.48  31 3.50  29 3.51  28 3.52  33 3.57
                            36 3.58  12 3.65
  31  0.334  0.001  0.323-  48 2.70  49 2.73  51 2.77  35 3.48  30 3.50  32 3.52  33 3.52  34 3.57
                            28 3.57  13 3.65
  32  0.333  0.333  0.323-  46 2.69  50 2.74  49 2.77  36 3.48  28 3.48  33 3.52  31 3.52  35 3.57
                            29 3.57  14 3.65
  33  0.334  0.667  0.322-  47 2.70  51 2.74  50 2.76  34 3.48  29 3.48  32 3.52  31 3.52  36 3.56
                            30 3.57  15 3.65
  34  0.667  0.999  0.323-  51 2.70  52 2.74  54 2.77  33 3.48  29 3.49  36 3.51  35 3.53  28 3.57
                            31 3.57  16 3.65
  35  0.666  0.334  0.323-  49 2.69  53 2.74  52 2.77  31 3.48  30 3.48  36 3.51  34 3.53  32 3.57
                            29 3.57  17 3.65
  36  0.666  0.666  0.323-  50 2.69  54 2.75  53 2.77  32 3.48  28 3.49  34 3.51  35 3.51  33 3.56
                            30 3.58  18 3.65
  37  1.000  0.000  0.617-   9 2.68  19 2.70   7 2.73  27 2.75  25 2.77   1 2.78  41 3.48  45 3.49

  38  0.999  0.333  0.617-   7 2.68  20 2.71   8 2.72  25 2.75  26 2.77   2 2.78  43 3.48  42 3.49

  39  0.999  0.667  0.617-   8 2.68  21 2.69   9 2.73  26 2.74  27 2.76   3 2.78  44 3.48  40 3.49

  40  0.334  1.000  0.617-   3 2.68  22 2.69   1 2.74  21 2.74  19 2.77   4 2.78  44 3.48  39 3.49

  41  0.334  0.333  0.617-   1 2.69  23 2.69   2 2.74  19 2.74   5 2.77  20 2.77  45 3.48  37 3.48

  42  0.333  0.666  0.617-   2 2.68  24 2.70   3 2.74  20 2.74  21 2.77   6 2.77  38 3.49  43 3.49

  43  0.667  1.000  0.617-  25 2.69   6 2.70  24 2.74   4 2.74   7 2.78  22 2.78  38 3.48  42 3.49

  44  0.667  0.334  0.617-   4 2.69  26 2.70   5 2.73  22 2.75  23 2.77   8 2.78  39 3.48  40 3.48

  45  0.666  0.667  0.617-   5 2.68  27 2.70  23 2.74   6 2.74  24 2.76   9 2.78  41 3.48  37 3.49

  46  0.111  0.222  0.383-  10 2.69  32 2.69  28 2.73  11 2.74  14 2.78  29 2.78  54 3.48  50 3.48

  47  0.111  0.556  0.383-  11 2.69  33 2.70  12 2.73  29 2.74  30 2.76  15 2.78  51 3.48  52 3.49

  48  0.111  0.889  0.383-  12 2.69  31 2.70  10 2.73  30 2.74  28 2.76  13 2.78  53 3.48  49 3.49

  49  0.445  0.222  0.383-  13 2.69  35 2.69  14 2.73  31 2.73  32 2.77  17 2.78  53 3.48  48 3.49

  50  0.444  0.555  0.383-  14 2.69  36 2.69  15 2.73  32 2.74  33 2.76  18 2.79  46 3.48  54 3.49

  51  0.445  0.889  0.383-  15 2.68  34 2.70  13 2.73  33 2.74  31 2.77  16 2.78  52 3.48  47 3.48

  52  0.777  0.222  0.383-  16 2.68  29 2.70  17 2.73  34 2.74  35 2.77  11 2.78  51 3.48  47 3.49

  53  0.778  0.556  0.383-  17 2.68  30 2.69  18 2.73  35 2.74  36 2.77  12 2.78  48 3.48  49 3.48

  54  0.778  0.889  0.383-  18 2.69  28 2.69  16 2.73  36 2.75  34 2.77  10 2.77  46 3.48  50 3.49

 

IMPORTANT INFORMATION: All symmetrisations will be switched off!
NOSYMM: (Re-)initialisation of all symmetry stuff for point group C_1.


----------------------------------------------------------------------------------------

                                     Primitive cell                                     

  volume of cell :    2925.4374

  direct lattice vectors                    reciprocal lattice vectors
    10.716067189  0.000000000  0.000000000     0.093317817  0.056396730 -0.003441993
    -5.459084291  9.032967479  0.000000000     0.000000000  0.110705591 -0.002159793
     0.758398131  0.589613706 30.222121045     0.000000000  0.000000000  0.033088346

  length of vectors
    10.716067189 10.554435218 30.237384352     0.109090117  0.110726657  0.033088346

  position of ions in fractional coordinates (direct lattice)
     0.222172410  0.110825322  0.677385029
     0.222674416  0.444950213  0.677376563
     0.222212511  0.778378021  0.677269608
     0.555728851  0.111291709  0.677373265
     0.555649918  0.445164779  0.677237875
     0.554749947  0.777197274  0.677609551
     0.888557928  0.110960479  0.677444217
     0.889375864  0.444851002  0.677314661
     0.888926493  0.777893901  0.677440138
     0.999606455  0.000026302  0.443534116
     0.000009521  0.333293301  0.443368940
     0.999987711  0.666562398  0.443401518
     0.333574352  0.000103344  0.443471508
     0.333212368  0.332774735  0.443164533
     0.333612544  0.666780292  0.443259085
     0.666821515  0.000548949  0.443196972
     0.667029260  0.333619158  0.443224222
     0.666742309  0.666113192  0.443365145
     0.222226677  0.111087289  0.556600622
     0.222329571  0.444601823  0.556532328
     0.221652597  0.776877244  0.556735359
     0.555261865  0.111428686  0.556442224
     0.555890865  0.444466811  0.556690898
     0.556146882  0.777793133  0.556643816
     0.888572705  0.110410198  0.556398286
     0.889392451  0.444645676  0.556435397
     0.888718358  0.777647832  0.556571004
     0.000304569  0.000001994  0.322750683
     0.000098295  0.333951354  0.322384374
     0.999815789  0.666005026  0.322754339
     0.334070938  0.000613383  0.322720541
     0.333135705  0.333316434  0.322613457
     0.333505594  0.666625571  0.322475709
     0.666600122  0.999116050  0.322529259
     0.666451441  0.333536854  0.322658914
     0.665817164  0.666153794  0.322580720
     0.999845293  0.000159947  0.617202410
     0.999188253  0.333191017  0.617197991
     0.999100749  0.666608994  0.616984384
     0.333994534  0.999889549  0.617009489
     0.333537714  0.333035174  0.617038060
     0.333430912  0.666355123  0.617169479
     0.667366106  0.999946539  0.616919690
     0.666990939  0.333624876  0.617110388
     0.666328174  0.666786519  0.616958450
     0.110895044  0.221500453  0.382977984
     0.111203325  0.555589743  0.383015628
     0.110702610  0.888921699  0.383126394
     0.444634293  0.222011124  0.383026692
     0.443657456  0.555482742  0.382990735
     0.444505588  0.889057641  0.383033052
     0.777499972  0.221713437  0.383031842
     0.777766131  0.555603473  0.383020030
     0.778149919  0.888934144  0.383204985

  ion indices of the primitive-cell ions
   primitive index   ion index
                 1           1
                 2           2
                 3           3
                 4           4
                 5           5
                 6           6
                 7           7
                 8           8
                 9           9
                10          10
                11          11
                12          12
                13          13
                14          14
                15          15
                16          16
                17          17
                18          18
                19          19
                20          20
                21          21
                22          22
                23          23
                24          24
                25          25
                26          26
                27          27
                28          28
                29          29
                30          30
                31          31
                32          32
                33          33
                34          34
                35          35
                36          36
                37          37
                38          38
                39          39
                40          40
                41          41
                42          42
                43          43
                44          44
                45          45
                46          46
                47          47
                48          48
                49          49
                50          50
                51          51
                52          52
                53          53
                54          54

----------------------------------------------------------------------------------------

 
 

Automatic generation of k-mesh.
 generate k-points for:    3    3    1
Space group operators:
 irot       det(A)        alpha          n_x          n_y          n_z        tau_x        tau_y        tau_z
    1     1.000000     0.000000     1.000000     0.000000     0.000000     0.000000     0.000000     0.000000
 
 Subroutine IBZKPT returns following result:
 ===========================================
 
 Found      5 irreducible k-points:
 
 Following reciprocal coordinates:
            Coordinates               Weight
  0.000000  0.000000  0.000000      1.000000
  0.333333  0.000000 -0.000000      2.000000
  0.000000  0.333333 -0.000000      2.000000
  0.333333  0.333333  0.000000      2.000000
 -0.333333  0.333333  0.000000      2.000000
 
 Following cartesian coordinates:
            Coordinates               Weight
  0.000000  0.000000  0.000000      1.000000
  0.031106  0.018799 -0.001147      2.000000
  0.000000  0.036902 -0.000720      2.000000
  0.031106  0.055701 -0.001867      2.000000
 -0.031106  0.018103  0.000427      2.000000
 


--------------------------------------------------------------------------------------------------------




 Dimension of arrays:
   k-points           NKPTS =      5   k-points in BZ     NKDIM =      5   number of bands    NBANDS=    200
   number of dos      NEDOS =    301   number of ions     NIONS =     54
   non local maximal  LDIM  =      6   non local SUM 2l+1 LMDIM =     18
   total plane-waves  NPLWV = ******
   max r-space proj   IRMAX =      1   max aug-charges    IRDMAX=  37361
   dimension x,y,z NGX =    84 NGY =   84 NGZ =  240
   dimension x,y,z NGXF=   168 NGYF=  168 NGZF=  480
   support grid    NGXF=   168 NGYF=  168 NGZF=  480
   ions per type =              36  18
   NGX,Y,Z   is equivalent  to a cutoff of  13.03, 13.23, 13.20 a.u.
   NGXF,Y,Z  is equivalent  to a cutoff of  26.06, 26.46, 26.39 a.u.

 SYSTEM =  dpgen_md                                
 POSCAR =  Te Mo                                   

 Startparameter for this run:
   NWRITE =      2    write-flag & timer
   PREC   = a         normal or accurate (medium, high low for compatibility)
   ISTART =      0    job   : 0-new  1-cont  2-samecut
   ICHARG =      2    charge: 1-file 2-atom 10-const
   ISPIN  =      1    spin polarized calculation?
   LNONCOLLINEAR =      F non collinear calculations
   LSORBIT =      F    spin-orbit coupling
   INIWAV =      1    electr: 0-lowe 1-rand  2-diag
   LASPH  =      F    aspherical Exc in radial PAW
   METAGGA=      F    non-selfconsistent MetaGGA calc.

 Electronic Relaxation 1
   ENCUT  =  550.0 eV  40.42 Ry    6.36 a.u.  20.49 20.18 57.82*2*pi/ulx,y,z
   ENINI  =  550.0     initial cutoff
   ENAUG  =  368.8 eV  augmentation charge cutoff
   NELM   =    100;   NELMIN=  6; NELMDL= -5     # of ELM steps 
   EDIFF  = 0.1E-05   stopping-criterion for ELM
   LREAL  =      F    real-space projection
   NLSPLINE    = F    spline interpolate recip. space projectors
   LCOMPAT=      F    compatible to vasp.4.4
   GGA_COMPAT  = T    GGA compatible to vasp.4.4-vasp.4.6
   LMAXPAW     = -100 max onsite density
   LMAXMIX     =    2 max onsite mixed and CHGCAR
   VOSKOWN=      0    Vosko Wilk Nusair interpolation
   ROPT   =    0.00000   0.00000
 Ionic relaxation
   EDIFFG = 0.1E-04   stopping-criterion for IOM
   NSW    =     10    number of steps for IOM
   NBLOCK =      1;   KBLOCK =      1    inner block; outer block 
   IBRION =      0    ionic relax: 0-MD 1-quasi-New 2-CG
   NFREE  =      0    steps in history (QN), initial steepest desc. (CG)
   ISIF   =      2    stress and relaxation
   IWAVPR =     11    prediction:  0-non 1-charg 2-wave 3-comb
   ISYM   =      0    0-nonsym 1-usesym 2-fastsym
   LCORR  =      T    Harris-Foulkes like correction to forces

   POTIM  = 2.0000    time-step for ionic-motion
   TEIN   =  100.0    initial temperature
   TEBEG  =  100.0;   TEEND  = 100.0 temperature during run
   SMASS  =   0.04    Nose mass-parameter (am)
   estimated Nose-frequenzy (Omega)   =  0.79E+14 period in steps = 0.40E+02 mass=   0.327E-28a.u.
   SCALEE = 1.0000    scale energy and forces
   NPACO  =    256;   APACO  = 16.0  distance and # of slots for P.C.
   PSTRESS=    0.0 pullay stress

  Mass of Ions in am
   POMASS = 127.60 95.94
  Ionic Valenz
   ZVAL   =   6.00  6.00
  Atomic Wigner-Seitz radii
   RWIGS  =  -1.00 -1.00
  virtual crystal weights 
   VCA    =   1.00  1.00
   NELECT =     324.0000    total number of electrons
   NUPDOWN=      -1.0000    fix difference up-down

 DOS related values:
   EMIN   =  10.00;   EMAX   =-10.00  energy-range for DOS
   EFERMI =   0.00
   ISMEAR =     0;   SIGMA  =   0.10  broadening in eV -4-tet -1-fermi 0-gaus

 Electronic relaxation 2 (details)
   IALGO  =     68    algorithm
   LDIAG  =      T    sub-space diagonalisation (order eigenvalues)
   LSUBROT=      F    optimize rotation matrix (better conditioning)
   TURBO    =      0    0=normal 1=particle mesh
   IRESTART =      0    0=no restart 2=restart with 2 vectors
   NREBOOT  =      0    no. of reboots
   NMIN     =      0    reboot dimension
   EREF     =   0.00    reference energy to select bands
   IMIX   =      4    mixing-type and parameters
     AMIX     =   0.40;   BMIX     =  1.00
     AMIX_MAG =   1.60;   BMIX_MAG =  1.00
     AMIN     =   0.10
     WC   =   100.;   INIMIX=   1;  MIXPRE=   1;  MAXMIX= -45

 Intra band minimization:
   WEIMIN = 0.0010     energy-eigenvalue tresh-hold
   EBREAK =  0.13E-08  absolut break condition
   DEPER  =   0.30     relativ break condition  

   TIME   =   0.40     timestep for ELM

  volume/ion in A,a.u.               =      54.17       365.59
  Fermi-wavevector in a.u.,A,eV,Ry     =   0.786188  1.485679  8.409639  0.618091
  Thomas-Fermi vector in A             =   1.890676
 
 Write flags
   LWAVE        =      F    write WAVECAR
   LDOWNSAMPLE  =      F    k-point downsampling of WAVECAR
   LCHARG       =      F    write CHGCAR
   LVTOT        =      F    write LOCPOT, total local potential
   LVHAR        =      F    write LOCPOT, Hartree potential only
   LELF         =      F    write electronic localiz. function (ELF)
   LORBIT       =      0    0 simple, 1 ext, 2 COOP (PROOUT), +10 PAW based schemes


 Dipole corrections
   LMONO  =      F    monopole corrections only (constant potential shift)
   LDIPOL =      F    correct potential (dipole corrections)
   IDIPOL =      0    1-x, 2-y, 3-z, 4-all directions 
   EPSILON=  1.0000000 bulk dielectric constant

 Exchange correlation treatment:
   GGA     =    --    GGA type
   LEXCH   =     8    internal setting for exchange type
   VOSKOWN=      0    Vosko Wilk Nusair interpolation
   LHFCALC =     F    Hartree Fock is set to
   LHFONE  =     F    Hartree Fock one center treatment
   AEXX    =    0.0000 exact exchange contribution

 Linear response parameters
   LEPSILON=     F    determine dielectric tensor
   LRPA    =     F    only Hartree local field effects (RPA)
   LNABLA  =     F    use nabla operator in PAW spheres
   LVEL    =     F    velocity operator in full k-point grid
   LINTERFAST=   F  fast interpolation
   KINTER  =     0    interpolate to denser k-point grid
   CSHIFT  =0.1000    complex shift for real part using Kramers Kronig
   OMEGAMAX=  -1.0    maximum frequency
   DEG_THRESHOLD= 0.2000000E-02 threshold for treating states as degnerate
   RTIME   =   -0.100 relaxation time in fs
  (WPLASMAI=    0.000 imaginary part of plasma frequency in eV, 0.658/RTIME)
   DFIELD  = 0.0000000 0.0000000 0.0000000 field for delta impulse in time
 
 Orbital magnetization related:
   ORBITALMAG=     F  switch on orbital magnetization
   LCHIMAG   =     F  perturbation theory with respect to B field
   DQ        =  0.001000  dq finite difference perturbation B field
   LLRAUG    =     F  two centre corrections for induced B field



--------------------------------------------------------------------------------------------------------


 molecular dynamics for ions
   using nose mass (canonical ensemble)
 charge density and potential will be updated during run
 non-spin polarized calculation
 RMM-DIIS sequential band-by-band and
  variant of blocked Davidson during initial phase
 perform sub-space diagonalisation
    before iterative eigenvector-optimisation
 modified Broyden-mixing scheme, WC =      100.0
 initial mixing is a Kerker type mixing with AMIX =  0.4000 and BMIX =      1.0000
 Hartree-type preconditioning will be used
 using additional bands           38
 reciprocal scheme for non local part
 use partial core corrections
 calculate Harris-corrections to forces 
   (improved forces if not selfconsistent)
 use gradient corrections 
 use of overlap-Matrix (Vanderbilt PP)
 Gauss-broadening in eV      SIGMA  =   0.10


--------------------------------------------------------------------------------------------------------


  energy-cutoff  :      550.00
  volume of cell :     2925.44
      direct lattice vectors                 reciprocal lattice vectors
    10.716067189  0.000000000  0.000000000     0.093317817  0.056396730 -0.003441993
    -5.459084291  9.032967479  0.000000000     0.000000000  0.110705591 -0.002159793
     0.758398131  0.589613706 30.222121045     0.000000000  0.000000000  0.033088346

  length of vectors
    10.716067189 10.554435218 30.237384352     0.109090117  0.110726657  0.033088346


 
 k-points in units of 2pi/SCALE and weight: read from INCAR                         
   0.00000000  0.00000000  0.00000000       0.111
   0.03110594  0.01879891 -0.00114733       0.222
   0.00000000  0.03690186 -0.00071993       0.222
   0.03110594  0.05570077 -0.00186726       0.222
  -0.03110594  0.01810295  0.00042740       0.222
 
 k-points in reciprocal lattice and weights: read from INCAR                         
   0.00000000  0.00000000  0.00000000       0.111
   0.33333333  0.00000000 -0.00000000       0.222
   0.00000000  0.33333333 -0.00000000       0.222
   0.33333333  0.33333333  0.00000000       0.222
  -0.33333333  0.33333333  0.00000000       0.222
 
 position of ions in fractional coordinates (direct lattice) 
   0.22217241  0.11082532  0.67738503
   0.22267442  0.44495021  0.67737656
   0.22221251  0.77837802  0.67726961
   0.55572885  0.11129171  0.67737327
   0.55564992  0.44516478  0.67723788
   0.55474995  0.77719727  0.67760955
   0.88855793  0.11096048  0.67744422
   0.88937586  0.44485100  0.67731466
   0.88892649  0.77789390  0.67744014
   0.99960645  0.00002630  0.44353412
   0.00000952  0.33329330  0.44336894
   0.99998771  0.66656240  0.44340152
   0.33357435  0.00010334  0.44347151
   0.33321237  0.33277473  0.44316453
   0.33361254  0.66678029  0.44325909
   0.66682152  0.00054895  0.44319697
   0.66702926  0.33361916  0.44322422
   0.66674231  0.66611319  0.44336515
   0.22222668  0.11108729  0.55660062
   0.22232957  0.44460182  0.55653233
   0.22165260  0.77687724  0.55673536
   0.55526187  0.11142869  0.55644222
   0.55589087  0.44446681  0.55669090
   0.55614688  0.77779313  0.55664382
   0.88857271  0.11041020  0.55639829
   0.88939245  0.44464568  0.55643540
   0.88871836  0.77764783  0.55657100
   0.00030457  0.00000199  0.32275068
   0.00009829  0.33395135  0.32238437
   0.99981579  0.66600503  0.32275434
   0.33407094  0.00061338  0.32272054
   0.33313571  0.33331643  0.32261346
   0.33350559  0.66662557  0.32247571
   0.66660012  0.99911605  0.32252926
   0.66645144  0.33353685  0.32265891
   0.66581716  0.66615379  0.32258072
   0.99984529  0.00015995  0.61720241
   0.99918825  0.33319102  0.61719799
   0.99910075  0.66660899  0.61698438
   0.33399453  0.99988955  0.61700949
   0.33353771  0.33303517  0.61703806
   0.33343091  0.66635512  0.61716948
   0.66736611  0.99994654  0.61691969
   0.66699094  0.33362488  0.61711039
   0.66632817  0.66678652  0.61695845
   0.11089504  0.22150045  0.38297798
   0.11120332  0.55558974  0.38301563
   0.11070261  0.88892170  0.38312639
   0.44463429  0.22201112  0.38302669
   0.44365746  0.55548274  0.38299073
   0.44450559  0.88905764  0.38303305
   0.77749997  0.22171344  0.38303184
   0.77776613  0.55560347  0.38302003
   0.77814992  0.88893414  0.38320498
 
 position of ions in cartesian coordinates  (Angst):
   2.28953724  1.40047702 20.47201235
   0.47089441  4.41861131 20.47175649
  -1.35434702  7.43039079 20.46852407
   5.86139551  1.40468295 20.47165681
   4.03780574  4.42046771 20.46756505
   2.21585010  7.41992558 20.47879788
   9.42987628  1.40173279 20.47380113
   7.61580657  4.41767865 20.46988566
   5.79297698  7.42611830 20.47367786
  11.04808179  0.26175138 13.40454174
  -1.48312402  3.27204395 13.39954978
   7.41339007  6.28247208 13.40053434
   3.91036897  0.26241039 13.40264959
   2.09017595  3.26723924 13.39337215
   0.27117147  6.28435633 13.39622973
   7.47882716  0.26627364 13.39435254
   5.66281568  3.27490208 13.39517610
   3.84473462  6.27839297 13.39943508
   2.19708600  1.33162722 16.82165136
   0.37745287  4.34421290 16.81958738
  -1.44356718  7.34576568 16.82572340
   5.76392961  1.33461766 16.81686425
   3.95277541  4.34308683 16.82437970
   2.13582671  7.35398490 16.82295680
   9.34123766  1.32539178 16.81553634
   7.52543061  4.34455187 16.81665792
   5.70042298  7.35262947 16.82075625
   0.24802641  0.19031624  9.75421020
  -1.57751955  3.20665397  9.74313958
   7.32309188  6.20630212  9.75432072
   3.82132877  0.19582112  9.75329927
   1.99497153  3.20105383  9.75006294
   0.17926815  6.21174320  9.74589992
   1.93367855  9.21515046  9.74751832
   5.56563654  3.20307168  9.75143675
   3.74299636  6.20754358  9.74907356
  11.18162133  0.36535579 18.65316593
   9.35653241  3.37361202 18.65303240
   7.53527588  6.38523981 18.64657673
  -1.41143462  9.39576703 18.64733547
   2.22410598  3.37210999 18.64819894
   0.40343945  6.38305574 18.65217070
   2.16061833  9.39622887 18.64462154
   5.79424876  3.37747940 18.65038485
   3.96827381  6.38682810 18.64579296
   0.26961888  2.22661546 11.57440700
  -1.55087060  5.24445535 11.57554468
  -3.37583954  8.25549738 11.57889224
   3.84324025  2.23125705 11.57587904
   2.01229545  5.24347413 11.57479235
   0.20040269  8.25667030 11.57607127
   7.41188024  2.22857109 11.57603468
   5.59198960  5.24458196 11.57567771
   3.77656233  8.25565613 11.58126743
 


--------------------------------------------------------------------------------------------------------


 k-point   1 :   0.0000 0.0000 0.0000  plane waves:   85637
 k-point   2 :   0.3333 0.0000-0.0000  plane waves:   85698
 k-point   3 :   0.0000 0.3333-0.0000  plane waves:   85718
 k-point   4 :   0.3333 0.3333 0.0000  plane waves:   85724
 k-point   5 :  -0.3333 0.3333 0.0000  plane waves:   85637

 maximum and minimum number of plane-waves per node :     85724    85637

 maximum number of plane-waves:     85724
 maximum index in each direction: 
   IXMAX=   20   IYMAX=   20   IZMAX=   57
   IXMIN=  -20   IYMIN=  -20   IZMIN=  -57


 serial   3D FFT for wavefunctions
 parallel 3D FFT for charge:
    minimum data exchange during FFTs selected (reduces bandwidth)


 total amount of memory used by VASP MPI-rank0   373493. kBytes
=======================================================================

   base      :      30000. kBytes
   nonl-proj :     197591. kBytes
   fftplans  :      19943. kBytes
   grid      :      90496. kBytes
   one-center:        839. kBytes
   wavefun   :      34624. kBytes
 
     INWAV:  cpu time    0.0001: real time    0.0001
 Broyden mixing: mesh for mixing (old mesh)
   NGX = 41   NGY = 41   NGZ =115
  (NGX  =168   NGY  =168   NGZ  =480)
  gives a total of 193315 points

 initial charge density was supplied:
 charge density of overlapping atoms calculated
 number of electron     324.0000000 magnetization 
 keeping initial charge density in first step


--------------------------------------------------------------------------------------------------------


 Maximum index for augmentation-charges         2258 (set IRDMAX)


--------------------------------------------------------------------------------------------------------


 First call to EWALD:  gamma=   0.124
 Maximum number of real-space cells 4x 4x 2
 Maximum number of reciprocal cells 2x 2x 5

    FEWALD:  cpu time    0.0040: real time    0.0094


--------------------------------------- Iteration      1(   1)  ---------------------------------------


    POTLOK:  cpu time    0.3601: real time    0.3756
    SETDIJ:  cpu time    0.0190: real time    0.0380
     EDDAV:  cpu time   52.3411: real time   52.6215
       DOS:  cpu time    0.0069: real time    0.0209
    --------------------------------------------
      LOOP:  cpu time   52.7272: real time   53.0560

 eigenvalue-minimisations  :  2000
 total energy-change (2. order) : 0.2123644E+04  (-0.1151107E+05)
 number of electron     324.0000000 magnetization 
 augmentation part      324.0000000 magnetization 

 Free energy of the ion-electron system (eV)
  ---------------------------------------------------
  alpha Z        PSCENC =       245.31927047
  Ewald energy   TEWEN  =     64571.31924835
  -Hartree energ DENC   =    -76246.97244400
  -exchange      EXHF   =         0.00000000
  -V(xc)+E(xc)   XCENC  =     -2100.67862310
  PAW double counting   =      7476.04436201    -4809.59211051
  entropy T*S    EENTRO =        -0.12820895
  eigenvalues    EBANDS =      1035.25034213
  atomic energy  EATOM  =     11953.08265402
  Solvation  Ediel_sol  =         0.00000000
  ---------------------------------------------------
  free energy    TOTEN  =      2123.64449042 eV

  energy without entropy =     2123.77269937  energy(sigma->0) =     2123.70859490


--------------------------------------------------------------------------------------------------------




--------------------------------------- Iteration      1(   2)  ---------------------------------------


     EDDAV:  cpu time   74.2745: real time   74.4846
       DOS:  cpu time    0.0006: real time    0.0006
    --------------------------------------------
      LOOP:  cpu time   74.2751: real time   74.4852

 eigenvalue-minimisations  :  3080
 total energy-change (2. order) :-0.2220756E+04  (-0.2157615E+04)
 number of electron     324.0000000 magnetization 
 augmentation part      324.0000000 magnetization 

 Free energy of the ion-electron system (eV)
  ---------------------------------------------------
  alpha Z        PSCENC =       245.31927047
  Ewald energy   TEWEN  =     64571.31924835
  -Hartree energ DENC   =    -76246.97244400
  -exchange      EXHF   =         0.00000000
  -V(xc)+E(xc)   XCENC  =     -2100.67862310
  PAW double counting   =      7476.04436201    -4809.59211051
  entropy T*S    EENTRO =        -0.03086413
  eigenvalues    EBANDS =     -1185.60333639
  atomic energy  EATOM  =     11953.08265402
  Solvation  Ediel_sol  =         0.00000000
  ---------------------------------------------------
  free energy    TOTEN  =       -97.11184328 eV

  energy without entropy =      -97.08097915  energy(sigma->0) =      -97.09641121


--------------------------------------------------------------------------------------------------------




--------------------------------------- Iteration      1(   3)  ---------------------------------------


     EDDAV:  cpu time   63.0173: real time   63.1692
       DOS:  cpu time    0.0004: real time    0.0004
    --------------------------------------------
      LOOP:  cpu time   63.0177: real time   63.1695

 eigenvalue-minimisations  :  2520
 total energy-change (2. order) :-0.2277054E+03  (-0.2244269E+03)
 number of electron     324.0000000 magnetization 
 augmentation part      324.0000000 magnetization 

 Free energy of the ion-electron system (eV)
  ---------------------------------------------------
  alpha Z        PSCENC =       245.31927047
  Ewald energy   TEWEN  =     64571.31924835
  -Hartree energ DENC   =    -76246.97244400
  -exchange      EXHF   =         0.00000000
  -V(xc)+E(xc)   XCENC  =     -2100.67862310
  PAW double counting   =      7476.04436201    -4809.59211051
  entropy T*S    EENTRO =        -0.00000000
  eigenvalues    EBANDS =     -1413.33956915
  atomic energy  EATOM  =     11953.08265402
  Solvation  Ediel_sol  =         0.00000000
  ---------------------------------------------------
  free energy    TOTEN  =      -324.81721191 eV

  energy without entropy =     -324.81721191  energy(sigma->0) =     -324.81721191


--------------------------------------------------------------------------------------------------------




--------------------------------------- Iteration      1(   4)  ---------------------------------------


     EDDAV:  cpu time   73.3755: real time   73.6249
       DOS:  cpu time    0.0004: real time    0.0004
    --------------------------------------------
      LOOP:  cpu time   73.3759: real time   73.6253

 eigenvalue-minimisations  :  3040
 total energy-change (2. order) :-0.1115899E+02  (-0.1107720E+02)
 number of electron     324.0000000 magnetization 
 augmentation part      324.0000000 magnetization 

 Free energy of the ion-electron system (eV)
  ---------------------------------------------------
  alpha Z        PSCENC =       245.31927047
  Ewald energy   TEWEN  =     64571.31924835
  -Hartree energ DENC   =    -76246.97244400
  -exchange      EXHF   =         0.00000000
  -V(xc)+E(xc)   XCENC  =     -2100.67862310
  PAW double counting   =      7476.04436201    -4809.59211051
  entropy T*S    EENTRO =        -0.00000000
  eigenvalues    EBANDS =     -1424.49856113
  atomic energy  EATOM  =     11953.08265402
  Solvation  Ediel_sol  =         0.00000000
  ---------------------------------------------------
  free energy    TOTEN  =      -335.97620388 eV

  energy without entropy =     -335.97620388  energy(sigma->0) =     -335.97620388


--------------------------------------------------------------------------------------------------------




--------------------------------------- Iteration      1(   5)  ---------------------------------------


     EDDAV:  cpu time   73.4944: real time   73.6641
       DOS:  cpu time    0.0004: real time    0.0004
    CHARGE:  cpu time    1.2439: real time    1.2574
    MIXING:  cpu time    0.0210: real time    0.0327
    --------------------------------------------
      LOOP:  cpu time   74.7597: real time   74.9546

 eigenvalue-minimisations  :  3040
 total energy-change (2. order) :-0.3563884E+00  (-0.3555836E+00)
 number of electron     324.0000002 magnetization 
 augmentation part      -25.6065595 magnetization 

 Broyden mixing:
  rms(total) = 0.19210E+01    rms(broyden)= 0.19210E+01
  rms(prec ) = 0.20322E+01
  weight for this iteration     100.00

 Free energy of the ion-electron system (eV)
  ---------------------------------------------------
  alpha Z        PSCENC =       245.31927047
  Ewald energy   TEWEN  =     64571.31924835
  -Hartree energ DENC   =    -76246.97244400
  -exchange      EXHF   =         0.00000000
  -V(xc)+E(xc)   XCENC  =     -2100.67862310
  PAW double counting   =      7476.04436201    -4809.59211051
  entropy T*S    EENTRO =        -0.00000000
  eigenvalues    EBANDS =     -1424.85494950
  atomic energy  EATOM  =     11953.08265402
  Solvation  Ediel_sol  =         0.00000000
  ---------------------------------------------------
  free energy    TOTEN  =      -336.33259225 eV

  energy without entropy =     -336.33259225  energy(sigma->0) =     -336.33259225


--------------------------------------------------------------------------------------------------------




--------------------------------------- Iteration      1(   6)  ---------------------------------------


    POTLOK:  cpu time    0.3202: real time    0.3205
    SETDIJ:  cpu time    0.0120: real time    0.0120
    EDDIAG:  cpu time    2.6908: real time    2.7037
  RMM-DIIS:  cpu time   44.8798: real time   44.9872
    ORTHCH:  cpu time    0.2086: real time    0.2088
       DOS:  cpu time    0.0005: real time    0.0005
    CHARGE:  cpu time    1.2427: real time    1.2478
    MIXING:  cpu time    0.0113: real time    0.0332
    --------------------------------------------
      LOOP:  cpu time   49.3661: real time   49.5137

 eigenvalue-minimisations  :  2137
 total energy-change (2. order) : 0.8954561E+01  (-0.5654481E+01)
 number of electron     324.0000002 magnetization 
 augmentation part      -19.8877940 magnetization 

 Broyden mixing:
  rms(total) = 0.71119E+00    rms(broyden)= 0.71119E+00
  rms(prec ) = 0.82566E+00
  weight for this iteration     100.00

 eigenvalues of (default mixing * dielectric matrix)
  average eigenvalue GAMMA=   1.0334
  1.0334

 Free energy of the ion-electron system (eV)
  ---------------------------------------------------
  alpha Z        PSCENC =       245.31927047
  Ewald energy   TEWEN  =     64571.31924835
  -Hartree energ DENC   =    -76223.11755773
  -exchange      EXHF   =         0.00000000
  -V(xc)+E(xc)   XCENC  =     -2094.22848354
  PAW double counting   =      7666.02044670    -5010.77862459
  entropy T*S    EENTRO =        -0.00000000
  eigenvalues    EBANDS =     -1434.99498483
  atomic energy  EATOM  =     11953.08265402
  Solvation  Ediel_sol  =         0.00000000
  ---------------------------------------------------
  free energy    TOTEN  =      -327.37803114 eV

  energy without entropy =     -327.37803114  energy(sigma->0) =     -327.37803114


--------------------------------------------------------------------------------------------------------




--------------------------------------- Iteration      1(   7)  ---------------------------------------


    POTLOK:  cpu time    0.3143: real time    0.3147
    SETDIJ:  cpu time    0.0119: real time    0.0120
    EDDIAG:  cpu time    2.6625: real time    2.6695
  RMM-DIIS:  cpu time   42.1277: real time   42.2483
    ORTHCH:  cpu time    0.2089: real time    0.2110
       DOS:  cpu time    0.0005: real time    0.0005
    CHARGE:  cpu time    1.2333: real time    1.2345
    MIXING:  cpu time    0.0082: real time    0.0082
    --------------------------------------------
      LOOP:  cpu time   46.5672: real time   46.6984

 eigenvalue-minimisations  :  2016
 total energy-change (2. order) : 0.3303673E+01  (-0.1096103E+01)
 number of electron     324.0000002 magnetization 
 augmentation part      -21.7794773 magnetization 

 Broyden mixing:
  rms(total) = 0.47301E+00    rms(broyden)= 0.47301E+00
  rms(prec ) = 0.50056E+00
  weight for this iteration     100.00

 eigenvalues of (default mixing * dielectric matrix)
  average eigenvalue GAMMA=   1.4686
  0.7289  2.2083

 Free energy of the ion-electron system (eV)
  ---------------------------------------------------
  alpha Z        PSCENC =       245.31927047
  Ewald energy   TEWEN  =     64571.31924835
  -Hartree energ DENC   =    -76311.17219248
  -exchange      EXHF   =         0.00000000
  -V(xc)+E(xc)   XCENC  =     -2093.01922408
  PAW double counting   =      7947.46182030    -5297.04216653
  entropy T*S    EENTRO =        -0.00000000
  eigenvalues    EBANDS =     -1340.02376782
  atomic energy  EATOM  =     11953.08265402
  Solvation  Ediel_sol  =         0.00000000
  ---------------------------------------------------
  free energy    TOTEN  =      -324.07435776 eV

  energy without entropy =     -324.07435776  energy(sigma->0) =     -324.07435776


--------------------------------------------------------------------------------------------------------




--------------------------------------- Iteration      1(   8)  ---------------------------------------


    POTLOK:  cpu time    0.3164: real time    0.3167
    SETDIJ:  cpu time    0.0118: real time    0.0118
    EDDIAG:  cpu time    2.6638: real time    2.6710
  RMM-DIIS:  cpu time   42.0945: real time   42.2177
    ORTHCH:  cpu time    0.2132: real time    0.2134
       DOS:  cpu time    0.0004: real time    0.0004
    CHARGE:  cpu time    1.2418: real time    1.2473
    MIXING:  cpu time    0.0076: real time    0.0076
    --------------------------------------------
      LOOP:  cpu time   46.5495: real time   46.6860

 eigenvalue-minimisations  :  2014
 total energy-change (2. order) : 0.4356986E+00  (-0.7844518E+00)
 number of electron     324.0000002 magnetization 
 augmentation part      -21.5983796 magnetization 

 Broyden mixing:
  rms(total) = 0.13600E+00    rms(broyden)= 0.13600E+00
  rms(prec ) = 0.15840E+00
  weight for this iteration     100.00

 eigenvalues of (default mixing * dielectric matrix)
  average eigenvalue GAMMA=   1.2623
  2.1331  0.8270  0.8270

 Free energy of the ion-electron system (eV)
  ---------------------------------------------------
  alpha Z        PSCENC =       245.31927047
  Ewald energy   TEWEN  =     64571.31924835
  -Hartree energ DENC   =    -76371.31464692
  -exchange      EXHF   =         0.00000000
  -V(xc)+E(xc)   XCENC  =     -2089.20227565
  PAW double counting   =      8249.04407328    -5604.90019082
  entropy T*S    EENTRO =        -0.00000000
  eigenvalues    EBANDS =     -1276.98679186
  atomic energy  EATOM  =     11953.08265402
  Solvation  Ediel_sol  =         0.00000000
  ---------------------------------------------------
  free energy    TOTEN  =      -323.63865912 eV

  energy without entropy =     -323.63865912  energy(sigma->0) =     -323.63865912


--------------------------------------------------------------------------------------------------------




--------------------------------------- Iteration      1(   9)  ---------------------------------------


    POTLOK:  cpu time    0.3142: real time    0.3145
    SETDIJ:  cpu time    0.0132: real time    0.0132
    EDDIAG:  cpu time    2.6738: real time    2.6788
  RMM-DIIS:  cpu time   47.2085: real time   47.3648
    ORTHCH:  cpu time    0.2180: real time    0.2193
       DOS:  cpu time    0.0004: real time    0.0004
    CHARGE:  cpu time    1.2392: real time    1.2405
    MIXING:  cpu time    0.0077: real time    0.0077
    --------------------------------------------
      LOOP:  cpu time   51.6750: real time   51.8392

 eigenvalue-minimisations  :  2236
 total energy-change (2. order) :-0.3057497E-01  (-0.1466347E+00)
 number of electron     324.0000002 magnetization 
 augmentation part      -21.1694407 magnetization 

 Broyden mixing:
  rms(total) = 0.10194E+00    rms(broyden)= 0.10194E+00
  rms(prec ) = 0.11324E+00
  weight for this iteration     100.00

 eigenvalues of (default mixing * dielectric matrix)
  average eigenvalue GAMMA=   1.1457
  2.0051  1.4023  0.7347  0.4405

 Free energy of the ion-electron system (eV)
  ---------------------------------------------------
  alpha Z        PSCENC =       245.31927047
  Ewald energy   TEWEN  =     64571.31924835
  -Hartree energ DENC   =    -76367.49087855
  -exchange      EXHF   =         0.00000000
  -V(xc)+E(xc)   XCENC  =     -2088.90507103
  PAW double counting   =      8246.04891098    -5602.01098549
  entropy T*S    EENTRO =        -0.00000000
  eigenvalues    EBANDS =     -1281.03238285
  atomic energy  EATOM  =     11953.08265402
  Solvation  Ediel_sol  =         0.00000000
  ---------------------------------------------------
  free energy    TOTEN  =      -323.66923409 eV

  energy without entropy =     -323.66923409  energy(sigma->0) =     -323.66923409


--------------------------------------------------------------------------------------------------------




--------------------------------------- Iteration      1(  10)  ---------------------------------------


    POTLOK:  cpu time    0.3120: real time    0.3162
    SETDIJ:  cpu time    0.0118: real time    0.0119
    EDDIAG:  cpu time    2.6527: real time    2.6553
  RMM-DIIS:  cpu time   50.0307: real time   50.1753
    ORTHCH:  cpu time    0.2126: real time    0.2128
       DOS:  cpu time    0.0004: real time    0.0004
    CHARGE:  cpu time    1.2338: real time    1.2349
    MIXING:  cpu time    0.0102: real time    0.0102
    --------------------------------------------
      LOOP:  cpu time   54.4643: real time   54.6170

 eigenvalue-minimisations  :  2352
 total energy-change (2. order) :-0.4563810E-02  (-0.4205383E-01)
 number of electron     324.0000002 magnetization 
 augmentation part      -20.9879738 magnetization 

 Broyden mixing:
  rms(total) = 0.75721E-01    rms(broyden)= 0.75721E-01
  rms(prec ) = 0.84580E-01
  weight for this iteration     100.00

 eigenvalues of (default mixing * dielectric matrix)
  average eigenvalue GAMMA=   1.2786
  2.3471  1.8398  0.9118  0.9118  0.3827

 Free energy of the ion-electron system (eV)
  ---------------------------------------------------
  alpha Z        PSCENC =       245.31927047
  Ewald energy   TEWEN  =     64571.31924835
  -Hartree energ DENC   =    -76369.39580283
  -exchange      EXHF   =         0.00000000
  -V(xc)+E(xc)   XCENC  =     -2088.72415614
  PAW double counting   =      8258.59716291    -5614.57180500
  entropy T*S    EENTRO =        -0.00000000
  eigenvalues    EBANDS =     -1279.30036968
  atomic energy  EATOM  =     11953.08265402
  Solvation  Ediel_sol  =         0.00000000
  ---------------------------------------------------
  free energy    TOTEN  =      -323.67379790 eV

  energy without entropy =     -323.67379790  energy(sigma->0) =     -323.67379790


--------------------------------------------------------------------------------------------------------




--------------------------------------- Iteration      1(  11)  ---------------------------------------


    POTLOK:  cpu time    0.3145: real time    0.3148
    SETDIJ:  cpu time    0.0119: real time    0.0119
    EDDIAG:  cpu time    2.6583: real time    2.6633
  RMM-DIIS:  cpu time   44.0033: real time   44.1354
    ORTHCH:  cpu time    0.2152: real time    0.2154
       DOS:  cpu time    0.0005: real time    0.0005
    CHARGE:  cpu time    1.2407: real time    1.2418
    MIXING:  cpu time    0.0079: real time    0.0079
    --------------------------------------------
      LOOP:  cpu time   48.4522: real time   48.5910

 eigenvalue-minimisations  :  2120
 total energy-change (2. order) : 0.1371499E-01  (-0.1946346E-01)
 number of electron     324.0000002 magnetization 
 augmentation part      -21.3083876 magnetization 

 Broyden mixing:
  rms(total) = 0.37489E-01    rms(broyden)= 0.37488E-01
  rms(prec ) = 0.42698E-01
  weight for this iteration     100.00

 eigenvalues of (default mixing * dielectric matrix)
  average eigenvalue GAMMA=   1.2125
  2.5289  1.6811  1.2933  0.6973  0.6973  0.3769

 Free energy of the ion-electron system (eV)
  ---------------------------------------------------
  alpha Z        PSCENC =       245.31927047
  Ewald energy   TEWEN  =     64571.31924835
  -Hartree energ DENC   =    -76387.71093236
  -exchange      EXHF   =         0.00000000
  -V(xc)+E(xc)   XCENC  =     -2088.46766461
  PAW double counting   =      8310.26602602    -5666.47666795
  entropy T*S    EENTRO =        -0.00000000
  eigenvalues    EBANDS =     -1260.99201687
  atomic energy  EATOM  =     11953.08265402
  Solvation  Ediel_sol  =         0.00000000
  ---------------------------------------------------
  free energy    TOTEN  =      -323.66008291 eV

  energy without entropy =     -323.66008291  energy(sigma->0) =     -323.66008291


--------------------------------------------------------------------------------------------------------




--------------------------------------- Iteration      1(  12)  ---------------------------------------


    POTLOK:  cpu time    0.3225: real time    0.3227
    SETDIJ:  cpu time    0.0140: real time    0.0140
    EDDIAG:  cpu time    2.6741: real time    2.6811
  RMM-DIIS:  cpu time   51.9048: real time   52.0771
    ORTHCH:  cpu time    0.2095: real time    0.2097
       DOS:  cpu time    0.0005: real time    0.0005
    CHARGE:  cpu time    1.2433: real time    1.2517
    MIXING:  cpu time    0.0080: real time    0.0080
    --------------------------------------------
      LOOP:  cpu time   56.3767: real time   56.5648

 eigenvalue-minimisations  :  2451
 total energy-change (2. order) : 0.2988260E-03  (-0.4200999E-02)
 number of electron     324.0000002 magnetization 
 augmentation part      -21.3028597 magnetization 

 Broyden mixing:
  rms(total) = 0.28379E-01    rms(broyden)= 0.28379E-01
  rms(prec ) = 0.32635E-01
  weight for this iteration     100.00

 eigenvalues of (default mixing * dielectric matrix)
  average eigenvalue GAMMA=   1.1875
  2.5252  1.7134  1.7134  0.7996  0.7996  0.3951  0.3663

 Free energy of the ion-electron system (eV)
  ---------------------------------------------------
  alpha Z        PSCENC =       245.31927047
  Ewald energy   TEWEN  =     64571.31924835
  -Hartree energ DENC   =    -76391.33360087
  -exchange      EXHF   =         0.00000000
  -V(xc)+E(xc)   XCENC  =     -2088.36118980
  PAW double counting   =      8314.56973268    -5670.81747271
  entropy T*S    EENTRO =        -0.00000000
  eigenvalues    EBANDS =     -1257.43842623
  atomic energy  EATOM  =     11953.08265402
  Solvation  Ediel_sol  =         0.00000000
  ---------------------------------------------------
  free energy    TOTEN  =      -323.65978409 eV

  energy without entropy =     -323.65978409  energy(sigma->0) =     -323.65978409


--------------------------------------------------------------------------------------------------------




--------------------------------------- Iteration      1(  13)  ---------------------------------------


    POTLOK:  cpu time    0.3215: real time    0.3218
    SETDIJ:  cpu time    0.0120: real time    0.0120
    EDDIAG:  cpu time    2.6611: real time    2.6674
  RMM-DIIS:  cpu time   49.1737: real time   49.3245
    ORTHCH:  cpu time    0.2086: real time    0.2089
       DOS:  cpu time    0.0005: real time    0.0005
    CHARGE:  cpu time    1.2343: real time    1.2353
    MIXING:  cpu time    0.0082: real time    0.0082
    --------------------------------------------
      LOOP:  cpu time   53.6198: real time   53.7785

 eigenvalue-minimisations  :  2348
 total energy-change (2. order) : 0.2208370E-02  (-0.2145744E-02)
 number of electron     324.0000002 magnetization 
 augmentation part      -21.2057319 magnetization 

 Broyden mixing:
  rms(total) = 0.85159E-02    rms(broyden)= 0.85158E-02
  rms(prec ) = 0.11460E-01
  weight for this iteration     100.00

 eigenvalues of (default mixing * dielectric matrix)
  average eigenvalue GAMMA=   1.2723
  2.3983  2.3983  1.9608  1.0493  0.8029  0.8029  0.3990  0.3667

 Free energy of the ion-electron system (eV)
  ---------------------------------------------------
  alpha Z        PSCENC =       245.31927047
  Ewald energy   TEWEN  =     64571.31924835
  -Hartree energ DENC   =    -76393.43372577
  -exchange      EXHF   =         0.00000000
  -V(xc)+E(xc)   XCENC  =     -2088.28436696
  PAW double counting   =      8310.83355588    -5667.06797994
  entropy T*S    EENTRO =        -0.00000000
  eigenvalues    EBANDS =     -1255.42623177
  atomic energy  EATOM  =     11953.08265402
  Solvation  Ediel_sol  =         0.00000000
  ---------------------------------------------------
  free energy    TOTEN  =      -323.65757572 eV

  energy without entropy =     -323.65757572  energy(sigma->0) =     -323.65757572


--------------------------------------------------------------------------------------------------------




--------------------------------------- Iteration      1(  14)  ---------------------------------------


    POTLOK:  cpu time    0.3192: real time    0.3194
    SETDIJ:  cpu time    0.0134: real time    0.0134
    EDDIAG:  cpu time    2.7036: real time    2.7103
  RMM-DIIS:  cpu time   55.5349: real time   55.6824
    ORTHCH:  cpu time    0.2101: real time    0.2103
       DOS:  cpu time    0.0005: real time    0.0004
    CHARGE:  cpu time    1.2455: real time    1.2467
    MIXING:  cpu time    0.0082: real time    0.0082
    --------------------------------------------
      LOOP:  cpu time   60.0353: real time   60.1912

 eigenvalue-minimisations  :  2616
 total energy-change (2. order) :-0.9588018E-03  (-0.8773974E-03)
 number of electron     324.0000002 magnetization 
 augmentation part      -21.1793717 magnetization 

 Broyden mixing:
  rms(total) = 0.86598E-02    rms(broyden)= 0.86598E-02
  rms(prec ) = 0.10819E-01
  weight for this iteration     100.00

 eigenvalues of (default mixing * dielectric matrix)
  average eigenvalue GAMMA=   1.3123
  3.1967  2.5604  1.5376  1.5376  0.7949  0.7949  0.6238  0.3985  0.3667

 Free energy of the ion-electron system (eV)
  ---------------------------------------------------
  alpha Z        PSCENC =       245.31927047
  Ewald energy   TEWEN  =     64571.31924835
  -Hartree energ DENC   =    -76400.58662979
  -exchange      EXHF   =         0.00000000
  -V(xc)+E(xc)   XCENC  =     -2088.24653810
  PAW double counting   =      8307.98013934    -5664.13184191
  entropy T*S    EENTRO =        -0.00000000
  eigenvalues    EBANDS =     -1248.39483691
  atomic energy  EATOM  =     11953.08265402
  Solvation  Ediel_sol  =         0.00000000
  ---------------------------------------------------
  free energy    TOTEN  =      -323.65853452 eV

  energy without entropy =     -323.65853452  energy(sigma->0) =     -323.65853452


--------------------------------------------------------------------------------------------------------




--------------------------------------- Iteration      1(  15)  ---------------------------------------


    POTLOK:  cpu time    0.3239: real time    0.3243
    SETDIJ:  cpu time    0.0118: real time    0.0118
    EDDIAG:  cpu time    2.6513: real time    2.6579
  RMM-DIIS:  cpu time   46.8620: real time   47.0087
    ORTHCH:  cpu time    0.2194: real time    0.2196
       DOS:  cpu time    0.0004: real time    0.0005
    CHARGE:  cpu time    1.2435: real time    1.2487
    MIXING:  cpu time    0.0083: real time    0.0083
    --------------------------------------------
      LOOP:  cpu time   51.3206: real time   51.4798

 eigenvalue-minimisations  :  2225
 total energy-change (2. order) :-0.2760199E-03  (-0.1576446E-03)
 number of electron     324.0000002 magnetization 
 augmentation part      -21.1999327 magnetization 

 Broyden mixing:
  rms(total) = 0.49222E-02    rms(broyden)= 0.49222E-02
  rms(prec ) = 0.62782E-02
  weight for this iteration     100.00

 eigenvalues of (default mixing * dielectric matrix)
  average eigenvalue GAMMA=   1.2802
  3.4292  2.4966  1.6637  1.6637  0.7982  0.7982  0.7610  0.3660  0.3953  0.4299

 Free energy of the ion-electron system (eV)
  ---------------------------------------------------
  alpha Z        PSCENC =       245.31927047
  Ewald energy   TEWEN  =     64571.31924835
  -Hartree energ DENC   =    -76405.17286163
  -exchange      EXHF   =         0.00000000
  -V(xc)+E(xc)   XCENC  =     -2088.23129640
  PAW double counting   =      8308.34492207    -5664.46655686
  entropy T*S    EENTRO =        -0.00000000
  eigenvalues    EBANDS =     -1243.85419057
  atomic energy  EATOM  =     11953.08265402
  Solvation  Ediel_sol  =         0.00000000
  ---------------------------------------------------
  free energy    TOTEN  =      -323.65881054 eV

  energy without entropy =     -323.65881054  energy(sigma->0) =     -323.65881054


--------------------------------------------------------------------------------------------------------




--------------------------------------- Iteration      1(  16)  ---------------------------------------


    POTLOK:  cpu time    0.3228: real time    0.3232
    SETDIJ:  cpu time    0.0140: real time    0.0140
    EDDIAG:  cpu time    2.6705: real time    2.6776
  RMM-DIIS:  cpu time   53.3530: real time   53.5321
    ORTHCH:  cpu time    0.2173: real time    0.2176
       DOS:  cpu time    0.0005: real time    0.0005
    CHARGE:  cpu time    1.2465: real time    1.2474
    MIXING:  cpu time    0.0087: real time    0.0087
    --------------------------------------------
      LOOP:  cpu time   57.8332: real time   58.0210

 eigenvalue-minimisations  :  2486
 total energy-change (2. order) :-0.6334729E-03  (-0.7827928E-04)
 number of electron     324.0000002 magnetization 
 augmentation part      -21.2111230 magnetization 

 Broyden mixing:
  rms(total) = 0.39296E-02    rms(broyden)= 0.39296E-02
  rms(prec ) = 0.48796E-02
  weight for this iteration     100.00

 eigenvalues of (default mixing * dielectric matrix)
  average eigenvalue GAMMA=   1.2981
  3.4587  2.3996  2.0114  2.0114  1.0148  0.8088  0.8088  0.6150  0.3654  0.3985
  0.3861

 Free energy of the ion-electron system (eV)
  ---------------------------------------------------
  alpha Z        PSCENC =       245.31927047
  Ewald energy   TEWEN  =     64571.31924835
  -Hartree energ DENC   =    -76406.85683390
  -exchange      EXHF   =         0.00000000
  -V(xc)+E(xc)   XCENC  =     -2088.22431950
  PAW double counting   =      8308.41930667    -5664.54412634
  entropy T*S    EENTRO =        -0.00000000
  eigenvalues    EBANDS =     -1242.17464379
  atomic energy  EATOM  =     11953.08265402
  Solvation  Ediel_sol  =         0.00000000
  ---------------------------------------------------
  free energy    TOTEN  =      -323.65944401 eV

  energy without entropy =     -323.65944401  energy(sigma->0) =     -323.65944401


--------------------------------------------------------------------------------------------------------




--------------------------------------- Iteration      1(  17)  ---------------------------------------


    POTLOK:  cpu time    0.3235: real time    0.3238
    SETDIJ:  cpu time    0.0120: real time    0.0120
    EDDIAG:  cpu time    2.6819: real time    2.6886
  RMM-DIIS:  cpu time   44.3038: real time   44.4406
    ORTHCH:  cpu time    0.2145: real time    0.2148
       DOS:  cpu time    0.0005: real time    0.0005
    CHARGE:  cpu time    1.2433: real time    1.2444
    MIXING:  cpu time    0.0087: real time    0.0087
    --------------------------------------------
      LOOP:  cpu time   48.7882: real time   48.9335

 eigenvalue-minimisations  :  2081
 total energy-change (2. order) :-0.1405015E-02  (-0.2971713E-04)
 number of electron     324.0000002 magnetization 
 augmentation part      -21.2091858 magnetization 

 Broyden mixing:
  rms(total) = 0.19384E-02    rms(broyden)= 0.19384E-02
  rms(prec ) = 0.26482E-02
  weight for this iteration     100.00

 eigenvalues of (default mixing * dielectric matrix)
  average eigenvalue GAMMA=   1.3811
  4.3783  2.6335  2.3200  1.5081  1.5081  0.8949  0.8139  0.8139  0.5583  0.3986
  0.3656  0.3795

 Free energy of the ion-electron system (eV)
  ---------------------------------------------------
  alpha Z        PSCENC =       245.31927047
  Ewald energy   TEWEN  =     64571.31924835
  -Hartree energ DENC   =    -76409.52897299
  -exchange      EXHF   =         0.00000000
  -V(xc)+E(xc)   XCENC  =     -2088.20836055
  PAW double counting   =      8307.55782548    -5663.70103271
  entropy T*S    EENTRO =        -0.00000000
  eigenvalues    EBANDS =     -1239.50148111
  atomic energy  EATOM  =     11953.08265402
  Solvation  Ediel_sol  =         0.00000000
  ---------------------------------------------------
  free energy    TOTEN  =      -323.66084903 eV

  energy without entropy =     -323.66084903  energy(sigma->0) =     -323.66084903


--------------------------------------------------------------------------------------------------------




--------------------------------------- Iteration      1(  18)  ---------------------------------------


    POTLOK:  cpu time    0.3272: real time    0.3303
    SETDIJ:  cpu time    0.0117: real time    0.0118
    EDDIAG:  cpu time    2.6874: real time    2.6905
  RMM-DIIS:  cpu time   43.5886: real time   43.6926
    ORTHCH:  cpu time    0.2108: real time    0.2112
       DOS:  cpu time    0.0005: real time    0.0005
    CHARGE:  cpu time    1.2397: real time    1.2490
    MIXING:  cpu time    0.0089: real time    0.0089
    --------------------------------------------
      LOOP:  cpu time   48.0747: real time   48.1946

 eigenvalue-minimisations  :  2075
 total energy-change (2. order) :-0.1046070E-02  (-0.3300887E-04)
 number of electron     324.0000002 magnetization 
 augmentation part      -21.2064372 magnetization 

 Broyden mixing:
  rms(total) = 0.17534E-02    rms(broyden)= 0.17533E-02
  rms(prec ) = 0.21073E-02
  weight for this iteration     100.00

 eigenvalues of (default mixing * dielectric matrix)
  average eigenvalue GAMMA=   1.3910
  5.0564  2.7432  2.2893  1.6433  1.6433  0.9409  0.8164  0.8164  0.5440  0.4540
  0.3988  0.3654  0.3721

 Free energy of the ion-electron system (eV)
  ---------------------------------------------------
  alpha Z        PSCENC =       245.31927047
  Ewald energy   TEWEN  =     64571.31924835
  -Hartree energ DENC   =    -76412.02754840
  -exchange      EXHF   =         0.00000000
  -V(xc)+E(xc)   XCENC  =     -2088.19738111
  PAW double counting   =      8306.74385351    -5662.88449237
  entropy T*S    EENTRO =        -0.00000000
  eigenvalues    EBANDS =     -1237.01749957
  atomic energy  EATOM  =     11953.08265402
  Solvation  Ediel_sol  =         0.00000000
  ---------------------------------------------------
  free energy    TOTEN  =      -323.66189510 eV

  energy without entropy =     -323.66189510  energy(sigma->0) =     -323.66189510


--------------------------------------------------------------------------------------------------------




--------------------------------------- Iteration      1(  19)  ---------------------------------------


    POTLOK:  cpu time    0.3206: real time    0.3221
    SETDIJ:  cpu time    0.0120: real time    0.0120
    EDDIAG:  cpu time    2.6798: real time    2.6825
  RMM-DIIS:  cpu time   48.8575: real time   49.0269
    ORTHCH:  cpu time    0.2103: real time    0.2105
       DOS:  cpu time    0.0005: real time    0.0005
    CHARGE:  cpu time    1.2422: real time    1.2433
    MIXING:  cpu time    0.0089: real time    0.0090
    --------------------------------------------
      LOOP:  cpu time   53.3317: real time   53.5067

 eigenvalue-minimisations  :  2328
 total energy-change (2. order) :-0.3836590E-03  (-0.8614529E-05)
 number of electron     324.0000002 magnetization 
 augmentation part      -21.2051117 magnetization 

 Broyden mixing:
  rms(total) = 0.12194E-02    rms(broyden)= 0.12194E-02
  rms(prec ) = 0.14647E-02
  weight for this iteration     100.00

 eigenvalues of (default mixing * dielectric matrix)
  average eigenvalue GAMMA=   1.5051
  6.1510  2.9341  2.4250  1.8953  1.8953  1.0031  1.0031  0.8140  0.8140  0.5970
  0.4089  0.3962  0.3648  0.3704

 Free energy of the ion-electron system (eV)
  ---------------------------------------------------
  alpha Z        PSCENC =       245.31927047
  Ewald energy   TEWEN  =     64571.31924835
  -Hartree energ DENC   =    -76412.77557623
  -exchange      EXHF   =         0.00000000
  -V(xc)+E(xc)   XCENC  =     -2088.19546442
  PAW double counting   =      8306.71680319    -5662.85390804
  entropy T*S    EENTRO =        -0.00000000
  eigenvalues    EBANDS =     -1236.27530611
  atomic energy  EATOM  =     11953.08265402
  Solvation  Ediel_sol  =         0.00000000
  ---------------------------------------------------
  free energy    TOTEN  =      -323.66227876 eV

  energy without entropy =     -323.66227876  energy(sigma->0) =     -323.66227876


--------------------------------------------------------------------------------------------------------




--------------------------------------- Iteration      1(  20)  ---------------------------------------


    POTLOK:  cpu time    0.3210: real time    0.3234
    SETDIJ:  cpu time    0.0121: real time    0.0121
    EDDIAG:  cpu time    2.6733: real time    2.6822
  RMM-DIIS:  cpu time   43.3410: real time   43.4662
    ORTHCH:  cpu time    0.2138: real time    0.2140
       DOS:  cpu time    0.0004: real time    0.0004
    CHARGE:  cpu time    1.2376: real time    1.2468
    MIXING:  cpu time    0.0092: real time    0.0092
    --------------------------------------------
      LOOP:  cpu time   47.8083: real time   47.9544

 eigenvalue-minimisations  :  2045
 total energy-change (2. order) :-0.6330873E-03  (-0.9108530E-05)
 number of electron     324.0000002 magnetization 
 augmentation part      -21.2045736 magnetization 

 Broyden mixing:
  rms(total) = 0.49951E-03    rms(broyden)= 0.49951E-03
  rms(prec ) = 0.62223E-03
  weight for this iteration     100.00

 eigenvalues of (default mixing * dielectric matrix)
  average eigenvalue GAMMA=   1.5589
  6.8640  3.2930  2.4968  1.7909  1.7909  1.2235  1.2235  0.9384  0.8104  0.8104
  0.6007  0.4093  0.3975  0.3699  0.3642

 Free energy of the ion-electron system (eV)
  ---------------------------------------------------
  alpha Z        PSCENC =       245.31927047
  Ewald energy   TEWEN  =     64571.31924835
  -Hartree energ DENC   =    -76413.44485344
  -exchange      EXHF   =         0.00000000
  -V(xc)+E(xc)   XCENC  =     -2088.19611242
  PAW double counting   =      8307.38344799    -5663.51912718
  entropy T*S    EENTRO =        -0.00000000
  eigenvalues    EBANDS =     -1235.60743965
  atomic energy  EATOM  =     11953.08265402
  Solvation  Ediel_sol  =         0.00000000
  ---------------------------------------------------
  free energy    TOTEN  =      -323.66291184 eV

  energy without entropy =     -323.66291184  energy(sigma->0) =     -323.66291184


--------------------------------------------------------------------------------------------------------




--------------------------------------- Iteration      1(  21)  ---------------------------------------


    POTLOK:  cpu time    0.3225: real time    0.3229
    SETDIJ:  cpu time    0.0121: real time    0.0121
    EDDIAG:  cpu time    2.6859: real time    2.6888
  RMM-DIIS:  cpu time   46.4515: real time   46.6000
    ORTHCH:  cpu time    0.2141: real time    0.2143
       DOS:  cpu time    0.0005: real time    0.0005
    CHARGE:  cpu time    1.2438: real time    1.2450
    MIXING:  cpu time    0.0115: real time    0.0115
    --------------------------------------------
      LOOP:  cpu time   50.9419: real time   51.0951

 eigenvalue-minimisations  :  2155
 total energy-change (2. order) :-0.1739347E-03  (-0.2057850E-05)
 number of electron     324.0000002 magnetization 
 augmentation part      -21.2062764 magnetization 

 Broyden mixing:
  rms(total) = 0.36289E-03    rms(broyden)= 0.36289E-03
  rms(prec ) = 0.42851E-03
  weight for this iteration     100.00

 eigenvalues of (default mixing * dielectric matrix)
  average eigenvalue GAMMA=   1.5233
  7.0836  3.3301  2.4937  1.8238  1.8238  1.5590  1.0313  0.9659  0.8115  0.8115
  0.6045  0.4907  0.4115  0.3973  0.3642  0.3697

 Free energy of the ion-electron system (eV)
  ---------------------------------------------------
  alpha Z        PSCENC =       245.31927047
  Ewald energy   TEWEN  =     64571.31924835
  -Hartree energ DENC   =    -76413.71225861
  -exchange      EXHF   =         0.00000000
  -V(xc)+E(xc)   XCENC  =     -2088.19701723
  PAW double counting   =      8307.44537215    -5663.58309496
  entropy T*S    EENTRO =        -0.00000000
  eigenvalues    EBANDS =     -1235.33725997
  atomic energy  EATOM  =     11953.08265402
  Solvation  Ediel_sol  =         0.00000000
  ---------------------------------------------------
  free energy    TOTEN  =      -323.66308578 eV

  energy without entropy =     -323.66308578  energy(sigma->0) =     -323.66308578


--------------------------------------------------------------------------------------------------------




--------------------------------------- Iteration      1(  22)  ---------------------------------------


    POTLOK:  cpu time    0.3238: real time    0.3274
    SETDIJ:  cpu time    0.0118: real time    0.0118
    EDDIAG:  cpu time    2.6690: real time    2.6753
  RMM-DIIS:  cpu time   35.4355: real time   35.5378
    ORTHCH:  cpu time    0.2097: real time    0.2099
       DOS:  cpu time    0.0005: real time    0.0005
    CHARGE:  cpu time    1.2419: real time    1.2432
    MIXING:  cpu time    0.0095: real time    0.0095
    --------------------------------------------
      LOOP:  cpu time   39.9017: real time   40.0155

 eigenvalue-minimisations  :  1574
 total energy-change (2. order) :-0.4965675E-04  (-0.6091758E-06)
 number of electron     324.0000002 magnetization 
 augmentation part      -21.2065547 magnetization 

 Broyden mixing:
[...]
 -0.000   0.000   0.000   0.000   0.000   0.011  -0.000  -0.000
 -0.000   0.000   0.000   0.000   0.000  -0.000   0.011  -0.000
 -0.000  -0.000   0.000   0.000   0.000  -0.000  -0.000   0.011
  0.000  -0.000   0.001   0.000   0.000  -0.000  -0.000   0.000
  0.000  -0.000  -0.014  -0.000   0.000  -0.000  -0.000  -0.000
 -0.009  -0.000   0.000  -0.018  -0.000   0.000  -0.000   0.000
  0.000  -0.000   0.000   0.001  -0.014  -0.000  -0.000  -0.000
  0.000  -0.000   0.001   0.000   0.001   0.000   0.000  -0.000
 total augmentation occupancy for first ion, spin component:           1
  1.937   0.190  -0.002   0.200   0.003  -0.005   0.035  -0.005  -0.001  -0.001   0.006  -0.001   0.001
  0.190   1.328   0.009  -0.919   0.004   0.008   0.366  -0.004   0.000  -0.002  -0.021   0.000  -0.002
 -0.002   0.009   1.342   0.000  -0.009  -0.458   0.009   0.007   0.000  -0.113   0.002   0.003  -0.044
  0.200  -0.919   0.000   1.489  -0.012   0.008  -0.533   0.004   0.004   0.002  -0.039   0.003  -0.003
  0.003   0.004  -0.009  -0.012   1.326   0.007   0.004  -0.470  -0.040   0.002   0.001  -0.115   0.000
 -0.005   0.008  -0.458   0.008   0.007   0.294  -0.003  -0.000  -0.001   0.036  -0.001  -0.001   0.007
  0.035   0.366   0.009  -0.533   0.004  -0.003   0.279  -0.001  -0.000  -0.001   0.043  -0.001   0.000
 -0.005  -0.004   0.007   0.004  -0.470  -0.000  -0.001   0.292   0.008  -0.001   0.001   0.038  -0.002
 -0.001   0.000   0.000   0.004  -0.040  -0.001  -0.000   0.008   0.020  -0.000   0.000  -0.001  -0.000
 -0.001  -0.002  -0.113   0.002   0.002   0.036  -0.001  -0.001  -0.000   0.017  -0.000  -0.000  -0.000
  0.006  -0.021   0.002  -0.039   0.001  -0.001   0.043   0.001   0.000  -0.000   0.019  -0.000   0.000
 -0.001   0.000   0.003   0.003  -0.115  -0.001  -0.001   0.038  -0.001  -0.000  -0.000   0.017  -0.000
  0.001  -0.002  -0.044  -0.003   0.000   0.007   0.000  -0.002  -0.000  -0.000   0.000  -0.000   0.019


------------------------ aborting loop because EDIFF is reached ----------------------------------------


    CHARGE:  cpu time    1.2474: real time    1.2487
    FORLOC:  cpu time    0.0823: real time    0.0824
    FORNL :  cpu time   14.0938: real time   14.1313
    STRESS:  cpu time   77.7484: real time   77.9745
    FORCOR:  cpu time    0.3560: real time    0.3597
    FORHAR:  cpu time    0.1466: real time    0.1468
    MIXING:  cpu time    0.0099: real time    0.0099
    OFIELD:  cpu time    0.0000: real time    0.0000

  Number of pair interactions contributing to vdW energy:  269438
  Edisp (eV):  -19.62878
    FORVDW:  cpu time    0.0295: real time    0.0296

  FORCE on cell =-STRESS in cart. coord.  units (eV):
  Direction    XX          YY          ZZ          XY          YZ          ZX
  --------------------------------------------------------------------------------------
  Alpha Z   245.31927   245.31927   245.31927
  Ewald   73817.61669 73889.15041-82998.74359     4.68155   -39.11541   -42.13111
  Hartree 76167.05831 76187.68876-75806.08133     1.93554    -4.80044    -4.75333
  E(xc)   -1353.27970 -1354.44565 -1372.19460    -0.13075     1.46077     1.62284
  Local  ************************153747.33492    -6.36682    42.94493    46.15870
  n-local  3551.59011  3548.18455  3731.83318    -1.99598   -10.12348   -11.49011
  augment  -761.58101  -759.42415  -800.33561     0.65164     1.62757     1.85050
  Kinetic  3277.95808  3301.00218  3253.69224     5.29157    -6.69209    -6.85778
  Fock        0.00000     0.00000     0.00000     0.00000     0.00000     0.00000
  vdW       -12.53345   -12.42951    -9.10101    -0.07833     0.28707     0.40063
  -------------------------------------------------------------------------------------
  Total     -13.28212     9.74697    -8.27653     3.98842   -14.41110   -15.19966
  in kB      -7.27423     5.33813    -4.53282     2.18434    -7.89254    -8.32441
  external pressure =       -2.16 kB  Pullay stress =        0.00 kB

  kinetic pressure (ideal gas correction) =      0.23 kB
  total pressure  =     -1.93 kB
  Total+kin.    -6.989       5.506      -4.300       2.168      -7.905      -8.243

 VOLUME and BASIS-vectors are now :
 -----------------------------------------------------------------------------
  energy-cutoff  :      550.00
  volume of cell :     2925.44
      direct lattice vectors                 reciprocal lattice vectors
    10.716067189  0.000000000  0.000000000     0.093317817  0.056396730 -0.003441993
    -5.459084291  9.032967479  0.000000000     0.000000000  0.110705591 -0.002159793
     0.758398131  0.589613706 30.222121045     0.000000000  0.000000000  0.033088346

  length of vectors
    10.716067189 10.554435218 30.237384352     0.109090117  0.110726657  0.033088346


 FORCES acting on ions
    electron-ion (+dipol)            ewald-force                    non-local-force                 convergence-correction
 -----------------------------------------------------------------------------------------------
   0.116E+01 -.219E+00 -.848E+03   -.112E+01 0.345E+00 0.854E+03   -.315E+00 -.268E-02 -.556E+01   -.294E-03 -.106E-02 0.127E-02
   0.712E+00 0.293E+01 -.846E+03   -.633E+00 -.282E+01 0.851E+03   -.324E+00 -.559E+00 -.557E+01   -.105E-02 0.139E-02 0.140E-03
   -.112E+01 0.177E+01 -.845E+03   0.120E+01 -.174E+01 0.850E+03   -.141E+00 -.181E+00 -.560E+01   0.234E-03 -.105E-02 -.411E-03
   -.352E+00 0.874E+00 -.848E+03   0.369E+00 -.746E+00 0.853E+03   -.135E+00 -.241E+00 -.528E+01   -.257E-03 -.342E-03 0.155E-02
   -.555E+00 0.381E+01 -.848E+03   0.636E+00 -.374E+01 0.853E+03   -.258E+00 -.601E+00 -.527E+01   0.232E-03 0.152E-02 0.101E-02
   0.255E+01 0.148E+01 -.849E+03   -.252E+01 -.139E+01 0.854E+03   -.404E+00 -.390E+00 -.530E+01   -.185E-03 -.125E-02 -.503E-04
   -.127E+00 0.559E+00 -.848E+03   0.240E+00 -.433E+00 0.853E+03   -.400E+00 -.301E+00 -.502E+01   0.515E-03 0.346E-03 0.738E-03
   0.116E+01 0.127E+01 -.847E+03   -.110E+01 -.121E+01 0.853E+03   -.443E+00 -.251E+00 -.552E+01   0.760E-03 0.840E-03 0.292E-03
   -.458E+00 0.128E+01 -.844E+03   0.543E+00 -.126E+01 0.850E+03   -.375E+00 -.168E+00 -.529E+01   -.330E-04 -.480E-03 -.314E-03
   -.190E+00 -.171E+00 0.118E+03   0.259E+00 0.253E+00 -.112E+03   -.163E+00 -.181E+00 -.544E+01   -.471E-03 -.182E-02 0.442E-04
   -.987E+00 0.288E+01 0.122E+03   0.113E+01 -.277E+01 -.117E+03   -.305E+00 -.377E+00 -.532E+01   -.105E-02 0.746E-03 0.520E-03
   0.396E+00 0.101E+01 0.119E+03   -.357E+00 -.866E+00 -.113E+03   -.354E+00 -.499E+00 -.544E+01   -.300E-03 -.426E-05 -.891E-03
   -.354E+00 0.363E+01 0.121E+03   0.443E+00 -.353E+01 -.116E+03   -.313E+00 -.524E+00 -.552E+01   0.858E-03 -.105E-02 -.829E-03
   0.309E+01 -.201E+00 0.122E+03   -.303E+01 0.278E+00 -.117E+03   -.601E+00 -.700E-01 -.533E+01   0.783E-03 0.135E-02 0.289E-03
   -.140E+01 -.227E+00 0.119E+03   0.151E+01 0.303E+00 -.114E+03   -.197E+00 -.114E+00 -.547E+01   0.429E-03 0.941E-03 -.132E-02
   -.105E+01 0.428E+01 0.122E+03   0.102E+01 -.419E+01 -.116E+03   -.353E-01 -.593E+00 -.551E+01   -.431E-03 -.113E-02 -.150E-02
   0.129E+01 0.198E+01 0.118E+03   -.117E+01 -.184E+01 -.112E+03   -.502E+00 -.508E+00 -.532E+01   0.144E-03 0.680E-03 -.540E-03
   0.154E+01 0.122E+01 0.119E+03   -.153E+01 -.109E+01 -.114E+03   -.146E+00 -.455E+00 -.546E+01   -.122E-03 0.334E-03 -.157E-02
   -.316E-01 0.205E+01 -.120E+03   -.172E-01 -.206E+01 0.114E+03   0.166E+00 0.198E+00 0.513E+01   -.228E-03 -.109E-02 0.124E-03
   -.595E+00 0.156E+01 -.118E+03   0.516E+00 -.164E+01 0.113E+03   0.394E+00 0.495E-01 0.547E+01   -.101E-02 0.147E-02 0.116E-02
   -.120E+00 0.160E+00 -.121E+03   0.152E-01 -.205E+00 0.116E+03   0.272E+00 0.280E+00 0.561E+01   0.373E-03 -.938E-03 0.170E-02
   -.355E+01 0.370E+01 -.120E+03   0.350E+01 -.382E+01 0.115E+03   0.456E+00 0.165E+00 0.526E+01   -.178E-03 -.446E-03 -.230E-03
   -.154E+01 -.113E+01 -.118E+03   0.143E+01 0.110E+01 0.113E+03   0.437E+00 0.204E+00 0.526E+01   0.339E-03 0.158E-02 0.292E-04
   -.397E+00 -.208E+01 -.120E+03   0.338E+00 0.208E+01 0.115E+03   0.297E+00 0.307E+00 0.544E+01   -.295E-03 -.121E-02 0.138E-02
   0.139E+01 0.318E+00 -.118E+03   -.149E+01 -.384E+00 0.113E+03   0.268E-01 0.349E+00 0.522E+01   0.522E-03 0.176E-03 0.644E-03
   -.219E+01 -.220E+01 -.120E+03   0.213E+01 0.219E+01 0.115E+03   0.343E+00 0.399E+00 0.525E+01   0.695E-03 0.894E-03 0.934E-03
   -.263E+01 0.163E+01 -.122E+03   0.259E+01 -.176E+01 0.116E+03   0.306E+00 0.234E+00 0.547E+01   -.103E-03 -.450E-03 0.162E-02
   0.182E+01 0.100E+01 0.848E+03   -.193E+01 -.109E+01 -.854E+03   0.129E+00 0.206E+00 0.552E+01   -.449E-03 -.169E-02 -.113E-02
   -.597E+00 0.145E+01 0.847E+03   0.581E+00 -.144E+01 -.853E+03   0.118E+00 0.105E+00 0.553E+01   -.101E-02 0.541E-03 -.160E-02
   -.274E+01 -.472E-01 0.845E+03   0.261E+01 0.347E-01 -.851E+03   0.559E+00 0.161E+00 0.526E+01   -.383E-03 0.535E-04 -.371E-04
   -.314E+01 0.210E+01 0.847E+03   0.312E+01 -.212E+01 -.852E+03   0.272E+00 0.490E-01 0.558E+01   0.871E-03 -.974E-03 -.384E-03
   -.134E+01 -.133E+01 0.847E+03   0.130E+01 0.132E+01 -.853E+03   0.271E+00 0.321E+00 0.525E+01   0.832E-03 0.123E-02 -.166E-02
   -.240E+01 -.163E+01 0.848E+03   0.231E+01 0.164E+01 -.853E+03   0.455E+00 0.227E+00 0.543E+01   0.495E-03 0.105E-02 0.397E-03
   -.241E+01 0.360E+01 0.845E+03   0.234E+01 -.368E+01 -.850E+03   0.307E+00 0.681E-01 0.568E+01   -.378E-03 -.103E-02 0.341E-03
   0.122E+01 0.972E+00 0.848E+03   -.124E+01 -.101E+01 -.853E+03   -.727E-01 0.203E+00 0.518E+01   0.254E-03 0.521E-03 -.666E-03
   0.461E+00 -.194E+01 0.845E+03   -.558E+00 0.195E+01 -.850E+03   0.379E+00 0.300E+00 0.542E+01   -.983E-04 0.407E-03 0.654E-03
   -.205E+01 -.290E+00 -.481E+03   0.211E+01 0.326E+00 0.481E+03   0.289E+00 -.353E+00 0.150E+00   -.128E-03 -.111E-02 0.137E-02
   -.679E+00 -.510E+01 -.482E+03   0.728E+00 0.519E+01 0.482E+03   0.191E+00 0.133E+00 0.661E-01   0.180E-03 0.120E-02 0.143E-02
   -.644E+00 -.146E+01 -.484E+03   0.680E+00 0.139E+01 0.484E+03   0.721E-01 -.510E-01 -.268E+00   0.374E-03 0.136E-04 0.124E-02
   0.680E+00 0.303E+01 -.484E+03   -.706E+00 -.307E+01 0.484E+03   -.942E-01 -.460E+00 0.131E-01   -.132E-03 -.164E-02 0.129E-02
   0.383E+01 -.208E+01 -.482E+03   -.393E+01 0.210E+01 0.483E+03   -.203E+00 0.905E-01 0.340E+00   -.616E-03 0.948E-03 0.142E-02
   0.271E+01 -.332E+01 -.482E+03   -.276E+01 0.338E+01 0.482E+03   -.937E-01 0.249E+00 0.136E+00   -.502E-03 -.130E-03 0.132E-02
   0.308E+01 -.602E+00 -.489E+03   -.312E+01 0.667E+00 0.489E+03   -.814E-01 -.948E-01 -.588E+00   0.325E-03 -.106E-02 0.110E-02
   -.248E+00 -.374E+01 -.481E+03   0.145E+00 0.380E+01 0.482E+03   0.784E-01 0.119E+00 0.372E+00   0.589E-03 0.108E-02 0.138E-02
   0.926E-01 -.262E+01 -.487E+03   -.126E+00 0.268E+01 0.487E+03   0.970E-01 0.152E+00 -.429E+00   0.172E-03 0.440E-03 0.114E-02
   0.235E+01 -.582E+00 0.484E+03   -.239E+01 0.546E+00 -.484E+03   0.939E-01 -.244E+00 0.176E+00   -.231E-03 -.146E-03 -.102E-02
   0.217E+00 -.327E+01 0.483E+03   -.223E+00 0.335E+01 -.483E+03   -.220E+00 0.163E+00 -.399E-01   -.279E-03 0.128E-02 -.958E-03
   -.102E+01 -.290E+01 0.484E+03   0.976E+00 0.302E+01 -.484E+03   0.293E+00 0.270E+00 0.150E+00   0.291E-03 -.137E-02 -.974E-03
   -.135E+01 -.943E+00 0.487E+03   0.148E+01 0.971E+00 -.487E+03   0.361E+00 0.159E+00 0.113E+00   0.115E-02 -.141E-04 -.949E-03
   0.126E+01 -.429E+01 0.486E+03   -.135E+01 0.433E+01 -.486E+03   0.258E-01 -.773E-01 0.250E+00   0.505E-03 0.180E-02 -.919E-03
   -.164E+00 -.677E+00 0.483E+03   0.140E+00 0.692E+00 -.483E+03   -.129E+00 -.231E-01 -.733E-01   0.557E-03 -.522E-03 -.103E-02
   -.239E+01 0.927E+00 0.486E+03   0.242E+01 -.862E+00 -.486E+03   0.572E+00 0.975E-02 0.984E-01   -.640E-03 -.504E-03 -.101E-02
   0.256E+01 -.365E+01 0.480E+03   -.261E+01 0.378E+01 -.480E+03   -.181E+00 0.727E-01 0.143E+00   -.244E-03 0.688E-03 -.101E-02
   0.487E+01 -.297E+01 0.479E+03   -.490E+01 0.305E+01 -.480E+03   -.387E+00 0.273E+00 -.380E+00   -.924E-03 -.147E-02 -.111E-02
 -----------------------------------------------------------------------------------------------
   -.382E+00 0.181E+01 0.531E-02   -.231E-13 -.639E-13 0.216E-11   0.385E+00 -.180E+01 -.122E-01   0.467E-03 -.471E-03 0.442E-02
 
 
 POSITION                                       TOTAL-FORCE (eV/Angst)
 -----------------------------------------------------------------------------------
      2.28606      1.36883     20.47802        -0.267711      0.110652     -0.302383
      0.47571      4.41989     20.46962        -0.230157     -0.437246     -0.332054
     -1.36417      7.41072     20.46626        -0.060119     -0.147742     -0.272194
      5.83485      1.40442     20.46119        -0.113054     -0.105753      0.016433
      4.03054      4.42048     20.46099        -0.167327     -0.514614     -0.024913
      2.21887      7.42146     20.47553        -0.354896     -0.305052      0.017143
      9.44242      1.40351     20.44622        -0.274132     -0.169950      0.269187
      7.61863      4.39326     20.47302        -0.372129     -0.190902     -0.253722
      5.78998      7.42587     20.43956        -0.280740     -0.132518      0.104821
      5.58601      9.29421     13.41632        -0.076749     -0.088872     -0.181770
      9.20590      3.26045     13.38046        -0.155269     -0.263439      0.005446
     -3.28117      6.29259     13.40405        -0.296086     -0.336984     -0.097512
      3.89966      0.27203     13.40102        -0.207248     -0.401654     -0.218122
      2.10910      3.24955     13.37911        -0.516945      0.011625      0.003636
      0.26408      6.26030     13.41250        -0.078391     -0.030122     -0.244455
      7.45885      0.29198     13.39773        -0.048840     -0.480234     -0.125853
      5.65264      3.28557     13.41168        -0.361460     -0.354831     -0.091243
      3.82856      6.27744     13.41201        -0.115271     -0.311623     -0.159049
      2.22671      1.32824     16.83521         0.111889      0.165860     -0.180601
      0.37172      4.34820     16.80193         0.298294     -0.051956      0.205696
     -1.43170      7.34641     16.81265         0.156519      0.216128      0.318851
      5.77483      1.33509     16.82961         0.389629      0.033512     -0.002553
      3.94315      4.35500     16.81811         0.307100      0.160486      0.005414
      2.14269      7.34879     16.82643         0.227094      0.290995      0.207649
      9.36056      1.31236     16.82866        -0.077682      0.262532     -0.052266
      7.52138      4.32194     16.82556         0.269556      0.357474     -0.016059
      5.69621      7.35553     16.83271         0.249203      0.081690      0.146930
      0.27255      0.19479      9.73899         0.017625      0.108413      0.277585
     -1.56866      3.20705      9.74629         0.093768      0.113859      0.203109
      7.32042      6.20515      9.77560         0.412800      0.133561     -0.041611
      3.81973      0.19164      9.74587         0.249712      0.026637      0.255251
      2.00132      3.19245      9.76295         0.224575      0.297236     -0.100872
      0.17420      6.21579      9.74549         0.349505      0.224590      0.166565
      7.41758      0.20044      9.75046         0.234068     -0.024426      0.376882
      5.58822      3.20736      9.76447        -0.093595      0.155406     -0.102565
      3.77109      6.20158      9.76685         0.277040      0.296255      0.127784
      0.44975      0.39783     18.62751         0.360810     -0.348224      0.203145
      9.34896      3.36907     18.63349         0.235868      0.259421      0.058592
      7.53620      6.38988     18.65780         0.104109     -0.088733     -0.355020
      4.04340      0.39143     18.64509        -0.129338     -0.536260      0.067400
      2.22890      3.37162     18.62192        -0.319970      0.126278      0.510567
      0.40417      6.37546     18.62986        -0.153343      0.331226      0.206143
      7.61424      0.37574     18.68771        -0.135306     -0.038421     -0.695017
      5.77634      3.37868     18.61684        -0.013051      0.198952      0.529179
      3.95532      6.38479     18.67214         0.075280      0.232002     -0.536177
      0.25294      2.24706     11.56463         0.045683     -0.279371      0.228828
     -1.53499      5.24262     11.58413        -0.249501      0.263527     -0.117336
     -3.39492      8.25064     11.57193         0.272667      0.391145      0.135287
      3.81529      2.23180     11.56758         0.480204      0.194658      0.003897
      2.01500      5.25613     11.56281        -0.050023     -0.029177      0.267638
      0.20511      8.26059     11.58453        -0.162688     -0.005250     -0.117518
      7.35946      2.24997     11.56759         0.636684      0.061899      0.039156
      5.60302      5.23907     11.58688        -0.250349      0.206850      0.172474
      3.80918      8.25462     11.61209        -0.464807      0.363854     -0.512308
 -----------------------------------------------------------------------------------
    total drift:                                0.003504      0.003370     -0.002484


--------------------------------------------------------------------------------------------------------



  FREE ENERGIE OF THE ION-ELECTRON SYSTEM (eV)
  ---------------------------------------------------
  free  energy   TOTEN  =      -343.21741903 eV

  energy  without entropy=     -343.21741903  energy(sigma->0) =     -343.21741903
 
 d Force =-0.1887828E-01[-0.212E-01,-0.165E-01]  d Energy =-0.1883575E-01-0.425E-04
 d Force =-0.1737223E+02[-0.174E+02,-0.174E+02]  d Ewald  =-0.1737223E+02 0.818E-06


--------------------------------------------------------------------------------------------------------


    POTLOK:  cpu time    0.3358: real time    0.3361


--------------------------------------------------------------------------------------------------------


           RANDOM_SEED =         190512781              324                0
   IONSTEP:  cpu time    0.0001: real time    0.0001

  ENERGY OF THE ELECTRON-ION-THERMOSTAT SYSTEM (eV)
  ---------------------------------------------------
% ion-electron   TOTEN  =      -343.217419  see above
  kinetic energy EKIN   =         0.617307
  kin. lattice  EKIN_LAT=         0.000000  (temperature   90.11 K)
  nose potential ES     =         0.002857
  nose kinetic   EPS    =         0.000169
  ---------------------------------------------------
  total energy   ETOTAL =      -342.597086 eV

  maximum distance moved by ions :      0.47E-03


 mean value of Nose-termostat <S>:     1.000 mean value of <T> :    90.107
 mean temperature <T/S>/<1/S>  :    90.107

    WAVPRE:  cpu time    0.1119: real time    0.1152
    FEWALD:  cpu time    0.0020: real time    0.0020
    ORTHCH:  cpu time    8.6661: real time    8.6814
    POTLOK:  cpu time    0.3401: real time    0.3404
    EDDIAG:  cpu time    2.6838: real time    2.6867
     LOOP+:  cpu time  507.8954: real time  509.2419
    4ORBIT:  cpu time    0.0000: real time    0.0000

 total amount of memory used by VASP MPI-rank0   373493. kBytes
=======================================================================

   base      :      30000. kBytes
   nonl-proj :     197591. kBytes
   fftplans  :      19943. kBytes
   grid      :      90496. kBytes
   one-center:        839. kBytes
   wavefun   :      34624. kBytes
 
  
  
 General timing and accounting informations for this job:
 ========================================================
  
                  Total CPU time used (sec):     6136.670
                            User time (sec):     6123.443
                          System time (sec):       13.227
                         Elapsed time (sec):     6156.095
  
                   Maximum memory used (kb):      831904.
                   Average memory used (kb):           0.
  
                          Minor page faults:       438322
                          Major page faults:            0
                 Voluntary context switches:        14408
