 vasp.6.1.1 19Jun20 (build Dec 21 2021 08:45:49) complex                        
  
 executed on             LinuxIFC date 2023.10.05  08:09:14
 running on   40 total cores
 distrk:  each k-point on   40 cores,    1 groups
 distr:  one band on NCORE=   1 cores,   40 groups


--------------------------------------------------------------------------------------------------------


 INCAR:
 POTCAR:   PAW_PBE Te 08Apr2002                   
 POTCAR:   PAW_PBE Mo 08Apr2002                   
 -----------------------------------------------------------------------------
|                                                                             |
|           W    W    AA    RRRRR   N    N  II  N    N   GGGG   !!!           |
|           W    W   A  A   R    R  NN   N  II  NN   N  G    G  !!!           |
|           W    W  A    A  R    R  N N  N  II  N N  N  G       !!!           |
|           W WW W  AAAAAA  RRRRR   N  N N  II  N  N N  G  GGG   !            |
|           WW  WW  A    A  R   R   N   NN  II  N   NN  G    G                |
|           W    W  A    A  R    R  N    N  II  N    N   GGGG   !!!           |
|                                                                             |
|     For optimal performance we recommend to set                             |
|       NCORE = 4 - approx SQRT(number of cores).                             |
|     NCORE specifies how many cores store one orbital (NPAR=cpu/NCORE).      |
|     This setting can greatly improve the performance of VASP for DFT.       |
|     The default, NCORE=1 might be grossly inefficient on modern             |
|     multi-core architectures or massively parallel machines. Do your        |
|     own testing!!!!                                                         |
|     Unfortunately you need to use the default for GW and RPA                |
|     calculations (for HF NCORE is supported but not extensively tested      |
|     yet).                                                                   |
|                                                                             |
 -----------------------------------------------------------------------------

 POTCAR:   PAW_PBE Te 08Apr2002                   
   VRHFIN =Te: s2p4                                                                                 
   LEXCH  = PE                                                                                      
   EATOM  =   223.2721 eV,   16.4100 Ry                                                             
                                                                                                    
   TITEL  = PAW_PBE Te 08Apr2002                                                                    
   LULTRA =        F    use ultrasoft PP ?                                                          
   IUNSCR =        1    unscreen: 0-lin 1-nonlin 2-no                                               
   RPACOR =    2.200    partial core radius                                                         
   POMASS =  127.600; ZVAL   =    6.000    mass and valenz                                          
   RCORE  =    2.300    outmost cutoff radius                                                       
   RWIGS  =    2.900; RWIGS  =    1.535    wigner-seitz radius (au A)                               
   ENMAX  =  174.982; ENMIN  =  131.236 eV                                                          
   ICORE  =        3    local potential                                                             
   LCOR   =        T    correct aug charges                                                         
   LPAW   =        T    paw PP                                                                      
   EAUG   =  368.792                                                                                
   DEXC   =    -.169                                                                                
   RMAX   =    3.486    core radius for proj-oper                                                   
   RAUG   =    1.300    factor for augmentation sphere                                              
   RDEP   =    2.397    radius for radial grids                                                     
   QCUT   =   -3.586; QGAM   =    7.172    optimization parameters                                  
                                                                                                    
   Description                                                                                      
     l     E      TYP  RCUT    TYP  RCUT                                                            
     0   .000     23  2.300                                                                         
     0   .000     23  2.300                                                                         
     1   .000     23  2.300                                                                         
     1   .000     23  2.300                                                                         
     2   .000     23  2.300                                                                         
     3  -.100     23  2.300                                                                         
  local pseudopotential read in
  partial core-charges read in
  atomic valenz-charges read in
  non local Contribution for L=           0  read in
    real space projection operators read in
  non local Contribution for L=           0  read in
    real space projection operators read in
  non local Contribution for L=           1  read in
    real space projection operators read in
  non local Contribution for L=           1  read in
    real space projection operators read in
  non local Contribution for L=           2  read in
    real space projection operators read in
    PAW grid and wavefunctions read in
 
   number of l-projection  operators is LMAX  =           5
   number of lm-projection operators is LMMAX =          13
 
 POTCAR:   PAW_PBE Mo 08Apr2002                   
   VRHFIN =Mo: 4p5s4d                                                                               
   LEXCH  = PE                                                                                      
   EATOM  =   217.5180 eV,   15.9871 Ry                                                             
                                                                                                    
   TITEL  = PAW_PBE Mo 08Apr2002                                                                    
   LULTRA =        F    use ultrasoft PP ?                                                          
   IUNSCR =        1    unscreen: 0-lin 1-nonlin 2-no                                               
   RPACOR =    2.200    partial core radius                                                         
   POMASS =   95.940; ZVAL   =    6.000    mass and valenz                                          
   RCORE  =    2.750    outmost cutoff radius                                                       
   RWIGS  =    2.750; RWIGS  =    1.455    wigner-seitz radius (au A)                               
   ENMAX  =  224.584; ENMIN  =  168.438 eV                                                          
   RCLOC  =    2.111    cutoff for local pot                                                        
   LCOR   =        T    correct aug charges                                                         
   LPAW   =        T    paw PP                                                                      
   EAUG   =  345.278                                                                                
   DEXC   =    -.088                                                                                
   RMAX   =    3.077    core radius for proj-oper                                                   
   RAUG   =    1.300    factor for augmentation sphere                                              
   RDEP   =    2.815    radius for radial grids                                                     
   QCUT   =   -4.063; QGAM   =    8.126    optimization parameters                                  
                                                                                                    
   Description                                                                                      
     l     E      TYP  RCUT    TYP  RCUT                                                            
     2   .000     23  2.500                                                                         
     2   .000     23  2.500                                                                         
     0   .000     23  2.600                                                                         
     0  1.000     23  2.600                                                                         
     1   .400     23  2.750                                                                         
     1  2.000     23  2.750                                                                         
     3   .000      7   .000                                                                         
  local pseudopotential read in
  partial core-charges read in
  atomic valenz-charges read in
  non local Contribution for L=           2  read in
    real space projection operators read in
  non local Contribution for L=           2  read in
    real space projection operators read in
  non local Contribution for L=           0  read in
    real space projection operators read in
  non local Contribution for L=           0  read in
    real space projection operators read in
  non local Contribution for L=           1  read in
    real space projection operators read in
  non local Contribution for L=           1  read in
    real space projection operators read in
    PAW grid and wavefunctions read in
 
   number of l-projection  operators is LMAX  =           6
   number of lm-projection operators is LMMAX =          18
 
 -----------------------------------------------------------------------------
|                                                                             |
|               ----> ADVICE to this user running VASP <----                  |
|                                                                             |
|     You have a (more or less) 'large supercell' and for larger cells it     |
|     might be more efficient to use real-space projection operators.         |
|     Therefore, try LREAL= Auto in the INCAR file.                           |
|     Mind: If you want to do very accurate calculations, keep the            |
|     reciprocal projection scheme (i.e. LREAL=.FALSE.).                      |
|                                                                             |
 -----------------------------------------------------------------------------

 PAW_PBE Te 08Apr2002                   :
 energy of atom  1       EATOM= -223.2721
 kinetic energy error for atom=    0.0006 (will be added to EATOM!!)
 PAW_PBE Mo 08Apr2002                   :
 energy of atom  2       EATOM= -217.5180
 kinetic energy error for atom=    0.0009 (will be added to EATOM!!)
 
 
 POSCAR: Te Mo
  positions in cartesian coordinates
  No initial velocities read in
 exchange correlation table for  LEXCH =        8
   RHO(1)=    0.500       N(1)  =     2000
   RHO(2)=  100.500       N(2)  =     4000
 


--------------------------------------------------------------------------------------------------------


 ion  position               nearest neighbor table
   1  0.223  0.111  0.683-  37 2.71  40 2.74  41 2.76   5 3.50   9 3.50   4 3.51   3 3.52   2 3.53
                             7 3.53  19 3.68
   2  0.222  0.444  0.683-  38 2.71  41 2.74  42 2.76   6 3.49   7 3.50   8 3.52   3 3.53   5 3.53
                             1 3.53  20 3.68
   3  0.221  0.777  0.683-  39 2.71  42 2.75  40 2.78   8 3.50   4 3.51   9 3.52   1 3.52   6 3.52
                             2 3.53
   4  0.556  0.112  0.683-  40 2.72  43 2.75  44 2.77   8 3.49   3 3.51   1 3.51   5 3.52   7 3.53
                             6 3.53
   5  0.556  0.445  0.683-  41 2.71  44 2.74  45 2.75   9 3.50   1 3.50   4 3.52   6 3.53   2 3.53
                             8 3.53  23 3.68
   6  0.555  0.778  0.683-  42 2.71  45 2.75  43 2.77   2 3.49   7 3.51   3 3.52   5 3.53   4 3.53
                             9 3.53
   7  0.889  0.111  0.683-  43 2.72  37 2.75  38 2.77   2 3.50   6 3.51   8 3.52   9 3.52   4 3.53
                             1 3.53
   8  0.889  0.444  0.683-  44 2.72  38 2.75  39 2.77   4 3.49   3 3.50   7 3.52   2 3.52   5 3.53
                             9 3.54  26 3.68
   9  0.889  0.778  0.683-  45 2.70  39 2.74  37 2.76   5 3.50   1 3.50   3 3.52   7 3.52   6 3.53
                             8 3.54  27 3.68
  10  1.000  0.222  0.438-  52 2.70  46 2.74  47 2.77  14 3.50  18 3.50  11 3.52  12 3.52  13 3.53
                            16 3.53
  11  1.000  0.555  0.438-  53 2.71  47 2.74  48 2.77  15 3.50  16 3.50  14 3.52  10 3.52  17 3.53
                            12 3.53  29 3.68
  12  1.000  0.889  0.438-  54 2.71  48 2.75  46 2.76  17 3.49  13 3.50  18 3.52  10 3.52  15 3.53
                            11 3.53  30 3.67
  13  0.333  0.222  0.438-  46 2.71  49 2.74  50 2.76  17 3.50  12 3.50  16 3.52  10 3.53  15 3.53
                            14 3.53
  14  0.333  0.556  0.438-  47 2.70  50 2.75  51 2.76  10 3.50  18 3.50  15 3.51  11 3.52  17 3.53
                            13 3.53  32 3.68
  15  0.333  0.888  0.438-  48 2.71  51 2.75  49 2.76  16 3.50  11 3.50  14 3.51  18 3.52  12 3.53
                            13 3.53  33 3.67
  16  0.666  0.222  0.438-  49 2.71  52 2.75  53 2.77  15 3.50  11 3.50  13 3.52  18 3.53  10 3.53
                            17 3.53  34 3.68
  17  0.667  0.556  0.438-  50 2.71  53 2.75  54 2.76  12 3.49  13 3.50  18 3.52  11 3.53  16 3.53
                            14 3.53  35 3.67
  18  0.667  0.889  0.438-  51 2.72  54 2.75  52 2.77  10 3.50  14 3.50  17 3.52  12 3.52  15 3.52
                            16 3.53  36 3.68
  19  0.222  0.111  0.562-  41 2.71  40 2.74  37 2.76  23 3.49  27 3.50  21 3.52  22 3.53  25 3.53
                            20 3.53   1 3.68
  20  0.223  0.445  0.562-  42 2.70  41 2.75  38 2.76  24 3.49  25 3.51  26 3.52  21 3.52  23 3.52
                            19 3.53   2 3.68
  21  0.222  0.778  0.562-  40 2.71  42 2.75  39 2.76  26 3.49  22 3.49  19 3.52  20 3.52  24 3.53
                            27 3.53
  22  0.556  0.111  0.562-  44 2.71  43 2.74  40 2.76  21 3.49  26 3.50  24 3.52  25 3.52  23 3.53
                            19 3.53
  23  0.555  0.444  0.562-  45 2.72  44 2.74  41 2.76  19 3.49  27 3.50  20 3.52  22 3.53  26 3.53
                            24 3.54   5 3.68
  24  0.556  0.778  0.562-  43 2.71  45 2.76  42 2.77  20 3.49  25 3.49  22 3.52  27 3.52  21 3.53
                            23 3.54
  25  0.889  0.111  0.562-  38 2.71  37 2.75  43 2.76  24 3.49  20 3.51  27 3.52  22 3.52  26 3.52
                            19 3.53
  26  0.890  0.444  0.562-  39 2.71  38 2.74  44 2.76  21 3.49  22 3.50  20 3.52  25 3.52  23 3.53
                            27 3.54   8 3.68
  27  0.889  0.778  0.562-  37 2.71  39 2.75  45 2.77  19 3.50  23 3.50  25 3.52  24 3.52  21 3.53
                            26 3.54   9 3.68
  28  0.999  0.222  0.317-  47 2.72  46 2.75  52 2.76  36 3.50  32 3.50  34 3.52  30 3.53  29 3.53
                            31 3.53
  29  0.999  0.555  0.317-  48 2.70  53 2.75  47 2.75  34 3.50  33 3.50  30 3.52  35 3.53  28 3.53
                            32 3.53  11 3.68
  30  0.000  0.889  0.317-  46 2.71  48 2.75  54 2.76  31 3.49  35 3.51  36 3.52  29 3.52  28 3.53
                            33 3.53  12 3.67
  31  0.333  0.222  0.317-  50 2.71  49 2.75  46 2.77  30 3.49  35 3.49  33 3.53  34 3.53  32 3.53
                            28 3.53
  32  0.333  0.555  0.317-  51 2.70  50 2.75  47 2.76  36 3.49  28 3.50  35 3.52  33 3.52  31 3.53
                            29 3.53  14 3.68
  33  0.334  0.889  0.317-  49 2.71  51 2.74  48 2.76  34 3.49  29 3.50  36 3.52  32 3.52  31 3.53
                            30 3.53  15 3.67
  34  0.666  0.222  0.317-  53 2.71  52 2.75  49 2.76  33 3.49  29 3.50  28 3.52  36 3.52  31 3.53
                            35 3.53  16 3.68
  35  0.666  0.555  0.317-  54 2.71  53 2.75  50 2.76  31 3.49  30 3.51  32 3.52  36 3.52  29 3.53
                            34 3.53  17 3.67
  36  0.666  0.888  0.317-  52 2.71  54 2.74  51 2.75  32 3.49  28 3.50  35 3.52  33 3.52  34 3.52
                            30 3.52  18 3.68
  37  0.000  0.000  0.622-  27 2.71   1 2.71  25 2.75   7 2.75  19 2.76   9 2.76
  38  0.001  0.334  0.622-   2 2.71  25 2.71  26 2.74   8 2.75  20 2.76   7 2.77
  39  1.000  0.667  0.622-  26 2.71   3 2.71   9 2.74  27 2.75  21 2.76   8 2.77
  40  0.333  0.000  0.622-  21 2.71   4 2.72   1 2.74  19 2.74  22 2.76   3 2.78
  41  0.333  0.333  0.622-   5 2.71  19 2.71   2 2.74  20 2.75   1 2.76  23 2.76
  42  0.333  0.667  0.622-  20 2.70   6 2.71   3 2.75  21 2.75   2 2.76  24 2.77
  43  0.666  1.000  0.622-  24 2.71   7 2.72  22 2.74   4 2.75  25 2.76   6 2.77
  44  0.666  0.333  0.622-  22 2.71   8 2.72  23 2.74   5 2.74  26 2.76   4 2.77
  45  0.667  0.667  0.623-   9 2.70  23 2.72   6 2.75   5 2.75  24 2.76  27 2.77
  46  0.111  0.111  0.378-  30 2.71  13 2.71  10 2.74  28 2.75  12 2.76  31 2.77
  47  0.111  0.445  0.378-  14 2.70  28 2.72  11 2.74  29 2.75  32 2.76  10 2.77
  48  0.111  0.777  0.377-  29 2.70  15 2.71  30 2.75  12 2.75  33 2.76  11 2.77  53 3.49
  49  0.444  0.111  0.378-  16 2.71  33 2.71  13 2.74  31 2.75  15 2.76  34 2.76
  50  0.444  0.444  0.378-  17 2.71  31 2.71  14 2.75  32 2.75  35 2.76  13 2.76
  51  0.445  0.777  0.377-  32 2.70  18 2.72  33 2.74  15 2.75  36 2.75  14 2.76
  52  0.778  0.111  0.378-  10 2.70  36 2.71  16 2.75  34 2.75  28 2.76  18 2.77
  53  0.778  0.445  0.378-  11 2.71  34 2.71  17 2.75  35 2.75  29 2.75  16 2.77  48 3.49
  54  0.777  0.778  0.378-  35 2.71  12 2.71  36 2.74  18 2.75  17 2.76  30 2.76
 

IMPORTANT INFORMATION: All symmetrisations will be switched off!
NOSYMM: (Re-)initialisation of all symmetry stuff for point group C_1.


----------------------------------------------------------------------------------------

                                     Primitive cell                                     

  volume of cell :    2933.3437

  direct lattice vectors                    reciprocal lattice vectors
    10.576286044  0.000000000  0.000000000     0.094551149  0.055726967  0.002067318
    -5.370560484  9.112153234  0.000000000     0.000000000  0.109743545  0.002233770
    -0.300355680 -0.619538374 30.437483600     0.000000000  0.000000000  0.032854227

  length of vectors
    10.576286044 10.577062753 30.445269735     0.109771073  0.109766276  0.032854227

  position of ions in fractional coordinates (direct lattice)
     0.223000365  0.111198732  0.682707005
     0.222196974  0.444356214  0.682821056
     0.221459394  0.777358289  0.683000983
     0.555506692  0.111592283  0.683029782
     0.555841639  0.444740472  0.682690143
     0.554774024  0.777504507  0.682919504
     0.889059896  0.111353549  0.683008932
     0.888794894  0.443707990  0.682976222
     0.888887223  0.777992427  0.682661492
     0.999954470  0.222133766  0.438095724
     0.999797024  0.555144354  0.438035015
     0.999660536  0.888835639  0.437928641
     0.333357284  0.222286577  0.438249191
     0.332699965  0.555835282  0.438026073
     0.333169720  0.888330000  0.437952718
     0.666114415  0.221921158  0.438104581
     0.666634186  0.555933690  0.437924726
     0.666562460  0.888805417  0.438271471
     0.222369351  0.111157462  0.561865156
     0.222846055  0.445091577  0.561984370
     0.222126658  0.777902855  0.561844527
     0.555528367  0.110555569  0.561861454
     0.555442489  0.443791209  0.561809655
     0.555589127  0.778155140  0.561708900
     0.888736465  0.110936504  0.561924549
     0.889642853  0.444401558  0.562011727
     0.888597594  0.778090779  0.561698473
     0.999334699  0.221959652  0.317086030
     0.999095507  0.555289327  0.317200690
     0.000015760  0.888999458  0.317240474
     0.333208921  0.221751939  0.317063849
     0.333352188  0.555496987  0.317227785
     0.333678579  0.888689882  0.317316785
     0.666497601  0.221537993  0.317342049
     0.665767515  0.555257953  0.317361880
     0.666487064  0.888362850  0.317307884
     0.000177900  0.000431245  0.622269226
     0.000546859  0.333683582  0.622249837
     0.999666273  0.666962329  0.622363924
     0.333457141  0.000301434  0.622155677
     0.333405914  0.333294686  0.622438142
     0.333298206  0.666712556  0.622442987
     0.666242001  0.999863338  0.622256068
     0.666005775  0.333254237  0.622144284
     0.666633646  0.666597049  0.622666356
     0.110643077  0.111172821  0.377794012
     0.111260160  0.444926367  0.377747463
     0.110861994  0.777221243  0.377435334
     0.444002298  0.111339486  0.377812845
     0.443593531  0.444104667  0.377726287
     0.444636017  0.777467048  0.377447053
     0.778263592  0.111371652  0.377771755
     0.778087623  0.444546540  0.377584661
     0.777400178  0.777635299  0.377589735

  ion indices of the primitive-cell ions
   primitive index   ion index
                 1           1
                 2           2
                 3           3
                 4           4
                 5           5
                 6           6
                 7           7
                 8           8
                 9           9
                10          10
                11          11
                12          12
                13          13
                14          14
                15          15
                16          16
                17          17
                18          18
                19          19
                20          20
                21          21
                22          22
                23          23
                24          24
                25          25
                26          26
                27          27
                28          28
                29          29
                30          30
                31          31
                32          32
                33          33
                34          34
                35          35
                36          36
                37          37
                38          38
                39          39
                40          40
                41          41
                42          42
                43          43
                44          44
                45          45
                46          46
                47          47
                48          48
                49          49
                50          50
                51          51
                52          52
                53          53
                54          54

----------------------------------------------------------------------------------------

 
 

Automatic generation of k-mesh.
 generate k-points for:    3    3    1
Space group operators:
 irot       det(A)        alpha          n_x          n_y          n_z        tau_x        tau_y        tau_z
    1     1.000000     0.000000     1.000000     0.000000     0.000000     0.000000     0.000000     0.000000
 
 Subroutine IBZKPT returns following result:
 ===========================================
 
 Found      5 irreducible k-points:
 
 Following reciprocal coordinates:
            Coordinates               Weight
  0.000000  0.000000  0.000000      1.000000
  0.333333  0.000000  0.000000      2.000000
  0.000000  0.333333  0.000000      2.000000
  0.333333  0.333333 -0.000000      2.000000
 -0.333333  0.333333 -0.000000      2.000000
 
 Following cartesian coordinates:
            Coordinates               Weight
  0.000000  0.000000  0.000000      1.000000
  0.031517  0.018576  0.000689      2.000000
  0.000000  0.036581  0.000745      2.000000
  0.031517  0.055157  0.001434      2.000000
 -0.031517  0.018006  0.000055      2.000000
 


--------------------------------------------------------------------------------------------------------




 Dimension of arrays:
   k-points           NKPTS =      5   k-points in BZ     NKDIM =      5   number of bands    NBANDS=    200
   number of dos      NEDOS =    301   number of ions     NIONS =     54
   non local maximal  LDIM  =      6   non local SUM 2l+1 LMDIM =     18
   total plane-waves  NPLWV = ******
   max r-space proj   IRMAX =      1   max aug-charges    IRDMAX=  37261
   dimension x,y,z NGX =    84 NGY =   84 NGZ =  240
   dimension x,y,z NGXF=   168 NGYF=  168 NGZF=  480
   support grid    NGXF=   168 NGYF=  168 NGZF=  480
   ions per type =              36  18
   NGX,Y,Z   is equivalent  to a cutoff of  13.20, 13.20, 13.11 a.u.
   NGXF,Y,Z  is equivalent  to a cutoff of  26.41, 26.41, 26.21 a.u.

 SYSTEM =  dpgen_md                                
 POSCAR =  Te Mo                                   

 Startparameter for this run:
   NWRITE =      2    write-flag & timer
   PREC   = a         normal or accurate (medium, high low for compatibility)
   ISTART =      0    job   : 0-new  1-cont  2-samecut
   ICHARG =      2    charge: 1-file 2-atom 10-const
   ISPIN  =      1    spin polarized calculation?
   LNONCOLLINEAR =      F non collinear calculations
   LSORBIT =      F    spin-orbit coupling
   INIWAV =      1    electr: 0-lowe 1-rand  2-diag
   LASPH  =      F    aspherical Exc in radial PAW
   METAGGA=      F    non-selfconsistent MetaGGA calc.

 Electronic Relaxation 1
   ENCUT  =  550.0 eV  40.42 Ry    6.36 a.u.  20.22 20.23 58.22*2*pi/ulx,y,z
   ENINI  =  550.0     initial cutoff
   ENAUG  =  368.8 eV  augmentation charge cutoff
   NELM   =    100;   NELMIN=  6; NELMDL= -5     # of ELM steps 
   EDIFF  = 0.1E-05   stopping-criterion for ELM
   LREAL  =      F    real-space projection
   NLSPLINE    = F    spline interpolate recip. space projectors
   LCOMPAT=      F    compatible to vasp.4.4
   GGA_COMPAT  = T    GGA compatible to vasp.4.4-vasp.4.6
   LMAXPAW     = -100 max onsite density
   LMAXMIX     =    2 max onsite mixed and CHGCAR
   VOSKOWN=      0    Vosko Wilk Nusair interpolation
   ROPT   =    0.00000   0.00000
 Ionic relaxation
   EDIFFG = 0.1E-04   stopping-criterion for IOM
   NSW    =     10    number of steps for IOM
   NBLOCK =      1;   KBLOCK =      1    inner block; outer block 
   IBRION =      0    ionic relax: 0-MD 1-quasi-New 2-CG
   NFREE  =      0    steps in history (QN), initial steepest desc. (CG)
   ISIF   =      2    stress and relaxation
   IWAVPR =     11    prediction:  0-non 1-charg 2-wave 3-comb
   ISYM   =      0    0-nonsym 1-usesym 2-fastsym
   LCORR  =      T    Harris-Foulkes like correction to forces

   POTIM  = 2.0000    time-step for ionic-motion
   TEIN   =  100.0    initial temperature
   TEBEG  =  100.0;   TEEND  = 100.0 temperature during run
   SMASS  =   0.04    Nose mass-parameter (am)
   estimated Nose-frequenzy (Omega)   =  0.79E+14 period in steps = 0.40E+02 mass=   0.327E-28a.u.
   SCALEE = 1.0000    scale energy and forces
   NPACO  =    256;   APACO  = 16.0  distance and # of slots for P.C.
   PSTRESS=    0.0 pullay stress

  Mass of Ions in am
   POMASS = 127.60 95.94
  Ionic Valenz
   ZVAL   =   6.00  6.00
  Atomic Wigner-Seitz radii
   RWIGS  =  -1.00 -1.00
  virtual crystal weights 
   VCA    =   1.00  1.00
   NELECT =     324.0000    total number of electrons
   NUPDOWN=      -1.0000    fix difference up-down

 DOS related values:
   EMIN   =  10.00;   EMAX   =-10.00  energy-range for DOS
   EFERMI =   0.00
   ISMEAR =     0;   SIGMA  =   0.10  broadening in eV -4-tet -1-fermi 0-gaus

 Electronic relaxation 2 (details)
   IALGO  =     68    algorithm
   LDIAG  =      T    sub-space diagonalisation (order eigenvalues)
   LSUBROT=      F    optimize rotation matrix (better conditioning)
   TURBO    =      0    0=normal 1=particle mesh
   IRESTART =      0    0=no restart 2=restart with 2 vectors
   NREBOOT  =      0    no. of reboots
   NMIN     =      0    reboot dimension
   EREF     =   0.00    reference energy to select bands
   IMIX   =      4    mixing-type and parameters
     AMIX     =   0.40;   BMIX     =  1.00
     AMIX_MAG =   1.60;   BMIX_MAG =  1.00
     AMIN     =   0.10
     WC   =   100.;   INIMIX=   1;  MIXPRE=   1;  MAXMIX= -45

 Intra band minimization:
   WEIMIN = 0.0010     energy-eigenvalue tresh-hold
   EBREAK =  0.13E-08  absolut break condition
   DEPER  =   0.30     relativ break condition  

   TIME   =   0.40     timestep for ELM

  volume/ion in A,a.u.               =      54.32       366.58
  Fermi-wavevector in a.u.,A,eV,Ry     =   0.785481  1.484343  8.394522  0.616980
  Thomas-Fermi vector in A             =   1.889825
 
 Write flags
   LWAVE        =      F    write WAVECAR
   LDOWNSAMPLE  =      F    k-point downsampling of WAVECAR
   LCHARG       =      F    write CHGCAR
   LVTOT        =      F    write LOCPOT, total local potential
   LVHAR        =      F    write LOCPOT, Hartree potential only
   LELF         =      F    write electronic localiz. function (ELF)
   LORBIT       =      0    0 simple, 1 ext, 2 COOP (PROOUT), +10 PAW based schemes


 Dipole corrections
   LMONO  =      F    monopole corrections only (constant potential shift)
   LDIPOL =      F    correct potential (dipole corrections)
   IDIPOL =      0    1-x, 2-y, 3-z, 4-all directions 
   EPSILON=  1.0000000 bulk dielectric constant

 Exchange correlation treatment:
   GGA     =    --    GGA type
   LEXCH   =     8    internal setting for exchange type
   VOSKOWN=      0    Vosko Wilk Nusair interpolation
   LHFCALC =     F    Hartree Fock is set to
   LHFONE  =     F    Hartree Fock one center treatment
   AEXX    =    0.0000 exact exchange contribution

 Linear response parameters
   LEPSILON=     F    determine dielectric tensor
   LRPA    =     F    only Hartree local field effects (RPA)
   LNABLA  =     F    use nabla operator in PAW spheres
   LVEL    =     F    velocity operator in full k-point grid
   LINTERFAST=   F  fast interpolation
   KINTER  =     0    interpolate to denser k-point grid
   CSHIFT  =0.1000    complex shift for real part using Kramers Kronig
   OMEGAMAX=  -1.0    maximum frequency
   DEG_THRESHOLD= 0.2000000E-02 threshold for treating states as degnerate
   RTIME   =   -0.100 relaxation time in fs
  (WPLASMAI=    0.000 imaginary part of plasma frequency in eV, 0.658/RTIME)
   DFIELD  = 0.0000000 0.0000000 0.0000000 field for delta impulse in time
 
 Orbital magnetization related:
   ORBITALMAG=     F  switch on orbital magnetization
   LCHIMAG   =     F  perturbation theory with respect to B field
   DQ        =  0.001000  dq finite difference perturbation B field
   LLRAUG    =     F  two centre corrections for induced B field



--------------------------------------------------------------------------------------------------------


 molecular dynamics for ions
   using nose mass (canonical ensemble)
 charge density and potential will be updated during run
 non-spin polarized calculation
 RMM-DIIS sequential band-by-band and
  variant of blocked Davidson during initial phase
 perform sub-space diagonalisation
    before iterative eigenvector-optimisation
 modified Broyden-mixing scheme, WC =      100.0
 initial mixing is a Kerker type mixing with AMIX =  0.4000 and BMIX =      1.0000
 Hartree-type preconditioning will be used
 using additional bands           38
 reciprocal scheme for non local part
 use partial core corrections
 calculate Harris-corrections to forces 
   (improved forces if not selfconsistent)
 use gradient corrections 
 use of overlap-Matrix (Vanderbilt PP)
 Gauss-broadening in eV      SIGMA  =   0.10


--------------------------------------------------------------------------------------------------------


  energy-cutoff  :      550.00
  volume of cell :     2933.34
      direct lattice vectors                 reciprocal lattice vectors
    10.576286044  0.000000000  0.000000000     0.094551149  0.055726967  0.002067318
    -5.370560484  9.112153234  0.000000000     0.000000000  0.109743545  0.002233770
    -0.300355680 -0.619538374 30.437483600     0.000000000  0.000000000  0.032854227

  length of vectors
    10.576286044 10.577062753 30.445269735     0.109771073  0.109766276  0.032854227


 
 k-points in units of 2pi/SCALE and weight: read from INCAR                         
   0.00000000  0.00000000  0.00000000       0.111
   0.03151705  0.01857566  0.00068911       0.222
   0.00000000  0.03658118  0.00074459       0.222
   0.03151705  0.05515684  0.00143370       0.222
  -0.03151705  0.01800553  0.00005548       0.222
 
 k-points in reciprocal lattice and weights: read from INCAR                         
   0.00000000  0.00000000  0.00000000       0.111
   0.33333333  0.00000000  0.00000000       0.222
   0.00000000  0.33333333  0.00000000       0.222
   0.33333333  0.33333333 -0.00000000       0.222
  -0.33333333  0.33333333 -0.00000000       0.222
 
 position of ions in fractional coordinates (direct lattice) 
   0.22300036  0.11119873  0.68270700
   0.22219697  0.44435621  0.68282106
   0.22145939  0.77735829  0.68300098
   0.55550669  0.11159228  0.68302978
   0.55584164  0.44474047  0.68269014
   0.55477402  0.77750451  0.68291950
   0.88905990  0.11135355  0.68300893
   0.88879489  0.44370799  0.68297622
   0.88888722  0.77799243  0.68266149
   0.99995447  0.22213377  0.43809572
   0.99979702  0.55514435  0.43803502
   0.99966054  0.88883564  0.43792864
   0.33335728  0.22228658  0.43824919
   0.33269997  0.55583528  0.43802607
   0.33316972  0.88833000  0.43795272
   0.66611441  0.22192116  0.43810458
   0.66663419  0.55593369  0.43792473
   0.66656246  0.88880542  0.43827147
   0.22236935  0.11115746  0.56186516
   0.22284606  0.44509158  0.56198437
   0.22212666  0.77790286  0.56184453
   0.55552837  0.11055557  0.56186145
   0.55544249  0.44379121  0.56180965
   0.55558913  0.77815514  0.56170890
   0.88873646  0.11093650  0.56192455
   0.88964285  0.44440156  0.56201173
   0.88859759  0.77809078  0.56169847
   0.99933470  0.22195965  0.31708603
   0.99909551  0.55528933  0.31720069
   0.00001576  0.88899946  0.31724047
   0.33320892  0.22175194  0.31706385
   0.33335219  0.55549699  0.31722779
   0.33367858  0.88868988  0.31731679
   0.66649760  0.22153799  0.31734205
   0.66576752  0.55525795  0.31736188
   0.66648706  0.88836285  0.31730788
   0.00017790  0.00043124  0.62226923
   0.00054686  0.33368358  0.62224984
   0.99966627  0.66696233  0.62236392
   0.33345714  0.00030143  0.62215568
   0.33340591  0.33329469  0.62243814
   0.33329821  0.66671256  0.62244299
   0.66624200  0.99986334  0.62225607
   0.66600577  0.33325424  0.62214428
   0.66663365  0.66659705  0.62266636
   0.11064308  0.11117282  0.37779401
   0.11126016  0.44492637  0.37774746
   0.11086199  0.77722124  0.37743533
   0.44400230  0.11133949  0.37781285
   0.44359353  0.44410467  0.37772629
   0.44463602  0.77746705  0.37744705
   0.77826359  0.11137165  0.37777175
   0.77808762  0.44454654  0.37758466
   0.77740018  0.77763530  0.37758974
 
 position of ions in cartesian coordinates  (Angst):
   1.55626120  0.59029670 20.77988326
  -0.24151235  3.62600807 20.78335468
  -2.03777504  6.66026253 20.78883121
   5.07073270  0.59368282 20.78970778
   3.28518470  3.62959059 20.77937002
   1.48669503  6.66164537 20.78635122
   8.59977519  0.59152036 20.78907317
   6.81205264  3.62000522 20.78807757
   5.01782890  6.66625122 20.77849798
   9.25123714  1.75269980 13.33453141
   7.46113668  4.78718092 13.33268359
   5.66761585  7.82789295 13.32944581
   2.20024785  1.75399716 13.33920256
   0.40201938  4.79348230 13.33241142
  -1.37867332  7.82327057 13.33017866
   5.72158839  1.75075699 13.33480099
   3.93330515  4.79444180 13.32932666
   2.14473467  7.82740516 13.33988071
   1.58610461  0.66478680 17.10176146
  -0.20230281  3.70757177 17.10539006
  -1.99725245  6.74028577 17.10113357
   5.11292326  0.65930456 17.10164881
   3.32236839  3.69583086 17.10007216
   1.52822782  6.74266866 17.09700542
   8.63496264  0.66273660 17.10356925
   6.85362844  3.70126726 17.10622273
   5.05056941  6.74208865 17.09668806
   9.28196330  1.82608340  9.65130084
   7.48923192  4.86336344  9.65479080
  -4.86954365  7.90415664  9.65600171
   2.23794874  1.82420442  9.65062571
   0.44701676  4.86523888  9.65561550
  -1.33899057  7.90128846  9.65832445
   5.76397060  1.82208257  9.65909342
   3.96397981  4.86297769  9.65969703
   2.18264618  7.89831401  9.65805350
  -0.18733661 -0.38159010 18.94030935
  -1.97318040  2.65506828 18.93971920
   6.80386439  5.69188461 18.94319174
   3.33825124 -0.38270260 18.93685322
   1.54926421  2.65140794 18.94545072
  -0.24251723  5.68955965 18.94559822
   1.48964130  8.72539644 18.93990885
   5.06724098  2.65122141 18.93650645
   3.28348698  5.68836876 18.95239700
   0.45965989  0.77896590 11.49909903
  -1.32624329  3.82020819 11.49768222
  -3.11497038  6.84832339 11.48818179
   3.98446162  0.78047291 11.49967228
   2.19302886  3.81273385 11.49703768
   0.41379553  6.85055594 11.48853847
   7.51954428  0.78079146 11.49842159
   5.72840348  3.81684801 11.49272694
   3.93225803  6.85200067 11.49288137
 


--------------------------------------------------------------------------------------------------------


 k-point   1 :   0.0000 0.0000 0.0000  plane waves:   85889
 k-point   2 :   0.3333 0.0000 0.0000  plane waves:   85969
 k-point   3 :   0.0000 0.3333 0.0000  plane waves:   85960
 k-point   4 :   0.3333 0.3333-0.0000  plane waves:   85883
 k-point   5 :  -0.3333 0.3333-0.0000  plane waves:   85896

 maximum and minimum number of plane-waves per node :     85969    85883

 maximum number of plane-waves:     85969
 maximum index in each direction: 
   IXMAX=   20   IYMAX=   20   IZMAX=   58
   IXMIN=  -20   IYMIN=  -20   IZMIN=  -58


 serial   3D FFT for wavefunctions
 parallel 3D FFT for charge:
    minimum data exchange during FFTs selected (reduces bandwidth)


 total amount of memory used by VASP MPI-rank0   374142. kBytes
=======================================================================

   base      :      30000. kBytes
   nonl-proj :     198144. kBytes
   fftplans  :      19943. kBytes
   grid      :      90496. kBytes
   one-center:        839. kBytes
   wavefun   :      34720. kBytes
 
     INWAV:  cpu time    0.0000: real time    0.0000
 Broyden mixing: mesh for mixing (old mesh)
   NGX = 41   NGY = 41   NGZ =117
  (NGX  =168   NGY  =168   NGZ  =480)
  gives a total of 196677 points

 initial charge density was supplied:
 charge density of overlapping atoms calculated
 number of electron     324.0000000 magnetization 
 keeping initial charge density in first step


--------------------------------------------------------------------------------------------------------


 Maximum index for augmentation-charges         2233 (set IRDMAX)


--------------------------------------------------------------------------------------------------------


 First call to EWALD:  gamma=   0.124
 Maximum number of real-space cells 4x 4x 2
 Maximum number of reciprocal cells 2x 2x 5

    FEWALD:  cpu time    0.0021: real time    0.0022


--------------------------------------- Iteration      1(   1)  ---------------------------------------


    POTLOK:  cpu time    0.3459: real time    0.3471
    SETDIJ:  cpu time    0.0125: real time    0.0126
     EDDAV:  cpu time   49.7994: real time   49.8955
       DOS:  cpu time    0.0018: real time    0.0018
    --------------------------------------------
      LOOP:  cpu time   50.1596: real time   50.2570

 eigenvalue-minimisations  :  2000
 total energy-change (2. order) : 0.2095700E+04  (-0.1146605E+05)
 number of electron     324.0000000 magnetization 
 augmentation part      324.0000000 magnetization 

 Free energy of the ion-electron system (eV)
  ---------------------------------------------------
  alpha Z        PSCENC =       244.65806279
  Ewald energy   TEWEN  =     61282.06249640
  -Hartree energ DENC   =    -72959.76464955
  -exchange      EXHF   =         0.00000000
  -V(xc)+E(xc)   XCENC  =     -2101.85940087
  PAW double counting   =      7476.04436201    -4809.59211051
  entropy T*S    EENTRO =        -0.12433150
  eigenvalues    EBANDS =      1011.19305719
  atomic energy  EATOM  =     11953.08265402
  Solvation  Ediel_sol  =         0.00000000
  ---------------------------------------------------
  free energy    TOTEN  =      2095.70013999 eV

  energy without entropy =     2095.82447149  energy(sigma->0) =     2095.76230574


--------------------------------------------------------------------------------------------------------




--------------------------------------- Iteration      1(   2)  ---------------------------------------


     EDDAV:  cpu time   72.0113: real time   72.1205
       DOS:  cpu time    0.0006: real time    0.0006
    --------------------------------------------
      LOOP:  cpu time   72.0118: real time   72.1211

 eigenvalue-minimisations  :  3160
 total energy-change (2. order) :-0.2201881E+04  (-0.2140253E+04)
 number of electron     324.0000000 magnetization 
 augmentation part      324.0000000 magnetization 

 Free energy of the ion-electron system (eV)
  ---------------------------------------------------
  alpha Z        PSCENC =       244.65806279
  Ewald energy   TEWEN  =     61282.06249640
  -Hartree energ DENC   =    -72959.76464955
  -exchange      EXHF   =         0.00000000
  -V(xc)+E(xc)   XCENC  =     -2101.85940087
  PAW double counting   =      7476.04436201    -4809.59211051
  entropy T*S    EENTRO =        -0.00035896
  eigenvalues    EBANDS =     -1190.81179225
  atomic energy  EATOM  =     11953.08265402
  Solvation  Ediel_sol  =         0.00000000
  ---------------------------------------------------
  free energy    TOTEN  =      -106.18073692 eV

  energy without entropy =     -106.18037795  energy(sigma->0) =     -106.18055744


--------------------------------------------------------------------------------------------------------




--------------------------------------- Iteration      1(   3)  ---------------------------------------


     EDDAV:  cpu time   58.2501: real time   58.3447
       DOS:  cpu time    0.0004: real time    0.0004
    --------------------------------------------
      LOOP:  cpu time   58.2504: real time   58.3451

 eigenvalue-minimisations  :  2440
 total energy-change (2. order) :-0.2187989E+03  (-0.2158620E+03)
 number of electron     324.0000000 magnetization 
 augmentation part      324.0000000 magnetization 

 Free energy of the ion-electron system (eV)
  ---------------------------------------------------
  alpha Z        PSCENC =       244.65806279
  Ewald energy   TEWEN  =     61282.06249640
  -Hartree energ DENC   =    -72959.76464955
  -exchange      EXHF   =         0.00000000
  -V(xc)+E(xc)   XCENC  =     -2101.85940087
  PAW double counting   =      7476.04436201    -4809.59211051
  entropy T*S    EENTRO =        -0.00000000
  eigenvalues    EBANDS =     -1409.61109215
  atomic energy  EATOM  =     11953.08265402
  Solvation  Ediel_sol  =         0.00000000
  ---------------------------------------------------
  free energy    TOTEN  =      -324.97967785 eV

  energy without entropy =     -324.97967785  energy(sigma->0) =     -324.97967785


--------------------------------------------------------------------------------------------------------




--------------------------------------- Iteration      1(   4)  ---------------------------------------


     EDDAV:  cpu time   71.1875: real time   71.3130
       DOS:  cpu time    0.0004: real time    0.0004
    --------------------------------------------
      LOOP:  cpu time   71.1879: real time   71.3133

 eigenvalue-minimisations  :  3120
 total energy-change (2. order) :-0.1158535E+02  (-0.1151722E+02)
 number of electron     324.0000000 magnetization 
 augmentation part      324.0000000 magnetization 

 Free energy of the ion-electron system (eV)
  ---------------------------------------------------
  alpha Z        PSCENC =       244.65806279
  Ewald energy   TEWEN  =     61282.06249640
  -Hartree energ DENC   =    -72959.76464955
  -exchange      EXHF   =         0.00000000
  -V(xc)+E(xc)   XCENC  =     -2101.85940087
  PAW double counting   =      7476.04436201    -4809.59211051
  entropy T*S    EENTRO =        -0.00000000
  eigenvalues    EBANDS =     -1421.19644109
  atomic energy  EATOM  =     11953.08265402
  Solvation  Ediel_sol  =         0.00000000
  ---------------------------------------------------
  free energy    TOTEN  =      -336.56502680 eV

  energy without entropy =     -336.56502680  energy(sigma->0) =     -336.56502680


--------------------------------------------------------------------------------------------------------




--------------------------------------- Iteration      1(   5)  ---------------------------------------


     EDDAV:  cpu time   68.8701: real time   68.9791
       DOS:  cpu time    0.0004: real time    0.0004
    CHARGE:  cpu time    1.1725: real time    1.1737
    MIXING:  cpu time    0.0083: real time    0.0086
    --------------------------------------------
      LOOP:  cpu time   70.0513: real time   70.1618

 eigenvalue-minimisations  :  3000
 total energy-change (2. order) :-0.3264630E+00  (-0.3259229E+00)
 number of electron     323.9999993 magnetization 
 augmentation part      -25.6638542 magnetization 

 Broyden mixing:
  rms(total) = 0.19291E+01    rms(broyden)= 0.19291E+01
  rms(prec ) = 0.20403E+01
  weight for this iteration     100.00

 Free energy of the ion-electron system (eV)
  ---------------------------------------------------
  alpha Z        PSCENC =       244.65806279
  Ewald energy   TEWEN  =     61282.06249640
  -Hartree energ DENC   =    -72959.76464955
  -exchange      EXHF   =         0.00000000
  -V(xc)+E(xc)   XCENC  =     -2101.85940087
  PAW double counting   =      7476.04436201    -4809.59211051
  entropy T*S    EENTRO =        -0.00000000
  eigenvalues    EBANDS =     -1421.52290406
  atomic energy  EATOM  =     11953.08265402
  Solvation  Ediel_sol  =         0.00000000
  ---------------------------------------------------
  free energy    TOTEN  =      -336.89148976 eV

  energy without entropy =     -336.89148976  energy(sigma->0) =     -336.89148976


--------------------------------------------------------------------------------------------------------




--------------------------------------- Iteration      1(   6)  ---------------------------------------


    POTLOK:  cpu time    0.3016: real time    0.3021
    SETDIJ:  cpu time    0.0122: real time    0.0122
    EDDIAG:  cpu time    2.5387: real time    2.5457
  RMM-DIIS:  cpu time   42.6197: real time   42.7052
    ORTHCH:  cpu time    0.2094: real time    0.2096
       DOS:  cpu time    0.0005: real time    0.0005
    CHARGE:  cpu time    1.1706: real time    1.1736
    MIXING:  cpu time    0.0074: real time    0.0074
    --------------------------------------------
      LOOP:  cpu time   46.8601: real time   46.9563

 eigenvalue-minimisations  :  2136
 total energy-change (2. order) : 0.9139268E+01  (-0.5740558E+01)
 number of electron     323.9999994 magnetization 
 augmentation part      -19.8833650 magnetization 

 Broyden mixing:
  rms(total) = 0.71310E+00    rms(broyden)= 0.71309E+00
  rms(prec ) = 0.83230E+00
  weight for this iteration     100.00

 eigenvalues of (default mixing * dielectric matrix)
  average eigenvalue GAMMA=   1.0288
  1.0288

 Free energy of the ion-electron system (eV)
  ---------------------------------------------------
  alpha Z        PSCENC =       244.65806279
  Ewald energy   TEWEN  =     61282.06249640
  -Hartree energ DENC   =    -72936.01676581
  -exchange      EXHF   =         0.00000000
  -V(xc)+E(xc)   XCENC  =     -2095.37881684
  PAW double counting   =      7655.67685293    -5000.30782489
  entropy T*S    EENTRO =        -0.00000000
  eigenvalues    EBANDS =     -1431.52888058
  atomic energy  EATOM  =     11953.08265402
  Solvation  Ediel_sol  =         0.00000000
  ---------------------------------------------------
  free energy    TOTEN  =      -327.75222197 eV

  energy without entropy =     -327.75222197  energy(sigma->0) =     -327.75222197


--------------------------------------------------------------------------------------------------------




--------------------------------------- Iteration      1(   7)  ---------------------------------------


    POTLOK:  cpu time    0.2989: real time    0.2992
    SETDIJ:  cpu time    0.0121: real time    0.0121
    EDDIAG:  cpu time    2.5619: real time    2.5644
  RMM-DIIS:  cpu time   40.3675: real time   40.4384
    ORTHCH:  cpu time    0.2077: real time    0.2079
       DOS:  cpu time    0.0004: real time    0.0004
    CHARGE:  cpu time    1.1710: real time    1.1720
    MIXING:  cpu time    0.0073: real time    0.0073
    --------------------------------------------
      LOOP:  cpu time   44.6268: real time   44.7017

 eigenvalue-minimisations  :  2015
 total energy-change (2. order) : 0.3423702E+01  (-0.1128145E+01)
 number of electron     323.9999993 magnetization 
 augmentation part      -21.8330302 magnetization 

 Broyden mixing:
  rms(total) = 0.47697E+00    rms(broyden)= 0.47697E+00
  rms(prec ) = 0.50556E+00
  weight for this iteration     100.00

 eigenvalues of (default mixing * dielectric matrix)
  average eigenvalue GAMMA=   1.4604
  0.7236  2.1972

 Free energy of the ion-electron system (eV)
  ---------------------------------------------------
  alpha Z        PSCENC =       244.65806279
  Ewald energy   TEWEN  =     61282.06249640
  -Hartree energ DENC   =    -73024.05427583
  -exchange      EXHF   =         0.00000000
  -V(xc)+E(xc)   XCENC  =     -2094.23160744
  PAW double counting   =      7931.18875058    -5280.52914981
  entropy T*S    EENTRO =        -0.00000000
  eigenvalues    EBANDS =     -1336.50545068
  atomic energy  EATOM  =     11953.08265402
  Solvation  Ediel_sol  =         0.00000000
  ---------------------------------------------------
  free energy    TOTEN  =      -324.32851996 eV

  energy without entropy =     -324.32851996  energy(sigma->0) =     -324.32851996


--------------------------------------------------------------------------------------------------------




--------------------------------------- Iteration      1(   8)  ---------------------------------------


    POTLOK:  cpu time    0.3046: real time    0.3061
    SETDIJ:  cpu time    0.0120: real time    0.0121
    EDDIAG:  cpu time    2.5434: real time    2.5459
  RMM-DIIS:  cpu time   39.9281: real time   39.9933
    ORTHCH:  cpu time    0.2077: real time    0.2079
       DOS:  cpu time    0.0005: real time    0.0005
    CHARGE:  cpu time    1.1745: real time    1.1764
    MIXING:  cpu time    0.0077: real time    0.0077
    --------------------------------------------
      LOOP:  cpu time   44.1787: real time   44.2499

 eigenvalue-minimisations  :  2009
 total energy-change (2. order) : 0.4795070E+00  (-0.8148628E+00)
 number of electron     323.9999993 magnetization 
 augmentation part      -21.6157230 magnetization 

 Broyden mixing:
  rms(total) = 0.13468E+00    rms(broyden)= 0.13467E+00
  rms(prec ) = 0.15611E+00
  weight for this iteration     100.00

 eigenvalues of (default mixing * dielectric matrix)
  average eigenvalue GAMMA=   1.2662
  2.1133  0.8426  0.8426

 Free energy of the ion-electron system (eV)
  ---------------------------------------------------
  alpha Z        PSCENC =       244.65806279
  Ewald energy   TEWEN  =     61282.06249640
  -Hartree energ DENC   =    -73083.86117240
  -exchange      EXHF   =         0.00000000
  -V(xc)+E(xc)   XCENC  =     -2090.38103527
  PAW double counting   =      8223.69869069    -5579.21139245
  entropy T*S    EENTRO =        -0.00000000
  eigenvalues    EBANDS =     -1273.89731677
  atomic energy  EATOM  =     11953.08265402
  Solvation  Ediel_sol  =         0.00000000
  ---------------------------------------------------
  free energy    TOTEN  =      -323.84901298 eV

  energy without entropy =     -323.84901298  energy(sigma->0) =     -323.84901298


--------------------------------------------------------------------------------------------------------




--------------------------------------- Iteration      1(   9)  ---------------------------------------


    POTLOK:  cpu time    0.2999: real time    0.3002
    SETDIJ:  cpu time    0.0125: real time    0.0125
    EDDIAG:  cpu time    2.5428: real time    2.5453
  RMM-DIIS:  cpu time   44.9533: real time   45.0261
    ORTHCH:  cpu time    0.2118: real time    0.2133
       DOS:  cpu time    0.0005: real time    0.0005
    CHARGE:  cpu time    1.1708: real time    1.1718
    MIXING:  cpu time    0.0075: real time    0.0075
    --------------------------------------------
      LOOP:  cpu time   49.1991: real time   49.2772

 eigenvalue-minimisations  :  2225
 total energy-change (2. order) :-0.3945848E-01  (-0.1487584E+00)
 number of electron     323.9999993 magnetization 
 augmentation part      -21.1854809 magnetization 

 Broyden mixing:
  rms(total) = 0.99682E-01    rms(broyden)= 0.99681E-01
  rms(prec ) = 0.11062E+00
  weight for this iteration     100.00

 eigenvalues of (default mixing * dielectric matrix)
  average eigenvalue GAMMA=   1.1520
  1.9791  1.4382  0.7257  0.4649

 Free energy of the ion-electron system (eV)
  ---------------------------------------------------
  alpha Z        PSCENC =       244.65806279
  Ewald energy   TEWEN  =     61282.06249640
  -Hartree energ DENC   =    -73080.62490474
  -exchange      EXHF   =         0.00000000
  -V(xc)+E(xc)   XCENC  =     -2090.04890103
  PAW double counting   =      8220.69112005    -5576.31617330
  entropy T*S    EENTRO =        -0.00000000
  eigenvalues    EBANDS =     -1277.39282565
  atomic energy  EATOM  =     11953.08265402
  Solvation  Ediel_sol  =         0.00000000
  ---------------------------------------------------
  free energy    TOTEN  =      -323.88847145 eV

  energy without entropy =     -323.88847145  energy(sigma->0) =     -323.88847145


--------------------------------------------------------------------------------------------------------




--------------------------------------- Iteration      1(  10)  ---------------------------------------


    POTLOK:  cpu time    0.3015: real time    0.3018
    SETDIJ:  cpu time    0.0121: real time    0.0121
    EDDIAG:  cpu time    2.5445: real time    2.5470
  RMM-DIIS:  cpu time   48.6941: real time   48.7725
    ORTHCH:  cpu time    0.2093: real time    0.2096
       DOS:  cpu time    0.0005: real time    0.0005
    CHARGE:  cpu time    1.1725: real time    1.1736
    MIXING:  cpu time    0.0084: real time    0.0084
    --------------------------------------------
      LOOP:  cpu time   52.9428: real time   53.0255

 eigenvalue-minimisations  :  2386
 total energy-change (2. order) :-0.7356905E-02  (-0.4084373E-01)
 number of electron     323.9999993 magnetization 
 augmentation part      -21.0149208 magnetization 

 Broyden mixing:
  rms(total) = 0.74754E-01    rms(broyden)= 0.74754E-01
  rms(prec ) = 0.83624E-01
  weight for this iteration     100.00

 eigenvalues of (default mixing * dielectric matrix)
  average eigenvalue GAMMA=   1.2939
  2.3715  1.8421  0.9637  0.8945  0.3976

 Free energy of the ion-electron system (eV)
  ---------------------------------------------------
  alpha Z        PSCENC =       244.65806279
  Ewald energy   TEWEN  =     61282.06249640
  -Hartree energ DENC   =    -73083.61774845
  -exchange      EXHF   =         0.00000000
  -V(xc)+E(xc)   XCENC  =     -2089.84987307
  PAW double counting   =      8233.92084263    -5589.56058083
  entropy T*S    EENTRO =        -0.00000000
  eigenvalues    EBANDS =     -1274.59168186
  atomic energy  EATOM  =     11953.08265402
  Solvation  Ediel_sol  =         0.00000000
  ---------------------------------------------------
  free energy    TOTEN  =      -323.89582836 eV

  energy without entropy =     -323.89582836  energy(sigma->0) =     -323.89582836


--------------------------------------------------------------------------------------------------------




--------------------------------------- Iteration      1(  11)  ---------------------------------------


    POTLOK:  cpu time    0.3034: real time    0.3040
    SETDIJ:  cpu time    0.0122: real time    0.0122
    EDDIAG:  cpu time    2.5538: real time    2.5565
  RMM-DIIS:  cpu time   42.4401: real time   42.5171
    ORTHCH:  cpu time    0.2092: real time    0.2094
       DOS:  cpu time    0.0005: real time    0.0005
    CHARGE:  cpu time    1.1734: real time    1.1747
    MIXING:  cpu time    0.0081: real time    0.0080
    --------------------------------------------
      LOOP:  cpu time   46.7006: real time   46.7824

 eigenvalue-minimisations  :  2126
 total energy-change (2. order) : 0.1088317E-01  (-0.2151664E-01)
 number of electron     323.9999993 magnetization 
 augmentation part      -21.3562785 magnetization 

 Broyden mixing:
  rms(total) = 0.40156E-01    rms(broyden)= 0.40156E-01
  rms(prec ) = 0.45458E-01
  weight for this iteration     100.00

 eigenvalues of (default mixing * dielectric matrix)
  average eigenvalue GAMMA=   1.2560
  2.5460  1.5573  1.5573  0.7413  0.7413  0.3926

 Free energy of the ion-electron system (eV)
  ---------------------------------------------------
  alpha Z        PSCENC =       244.65806279
  Ewald energy   TEWEN  =     61282.06249640
  -Hartree energ DENC   =    -73103.28303776
  -exchange      EXHF   =         0.00000000
  -V(xc)+E(xc)   XCENC  =     -2089.56444147
  PAW double counting   =      8286.05083206    -5641.90479039
  entropy T*S    EENTRO =        -0.00000000
  eigenvalues    EBANDS =     -1254.98672084
  atomic energy  EATOM  =     11953.08265402
  Solvation  Ediel_sol  =         0.00000000
  ---------------------------------------------------
  free energy    TOTEN  =      -323.88494519 eV

  energy without entropy =     -323.88494519  energy(sigma->0) =     -323.88494519


--------------------------------------------------------------------------------------------------------




--------------------------------------- Iteration      1(  12)  ---------------------------------------


    POTLOK:  cpu time    0.3019: real time    0.3023
    SETDIJ:  cpu time    0.0124: real time    0.0124
    EDDIAG:  cpu time    2.5394: real time    2.5447
  RMM-DIIS:  cpu time   46.7569: real time   46.8324
    ORTHCH:  cpu time    0.2084: real time    0.2086
       DOS:  cpu time    0.0006: real time    0.0006
    CHARGE:  cpu time    1.1733: real time    1.1743
    MIXING:  cpu time    0.0080: real time    0.0080
    --------------------------------------------
      LOOP:  cpu time   51.0008: real time   51.0832

 eigenvalue-minimisations  :  2314
 total energy-change (2. order) : 0.2888261E-02  (-0.3866806E-02)
 number of electron     323.9999993 magnetization 
 augmentation part      -21.3038287 magnetization 

 Broyden mixing:
  rms(total) = 0.25758E-01    rms(broyden)= 0.25758E-01
  rms(prec ) = 0.29773E-01
  weight for this iteration     100.00

 eigenvalues of (default mixing * dielectric matrix)
  average eigenvalue GAMMA=   1.2027
  2.5515  1.7454  1.7454  0.7978  0.7978  0.3994  0.3816

 Free energy of the ion-electron system (eV)
  ---------------------------------------------------
  alpha Z        PSCENC =       244.65806279
  Ewald energy   TEWEN  =     61282.06249640
  -Hartree energ DENC   =    -73106.55677130
  -exchange      EXHF   =         0.00000000
  -V(xc)+E(xc)   XCENC  =     -2089.43349028
  PAW double counting   =      8287.65569369    -5643.54064931
  entropy T*S    EENTRO =        -0.00000000
  eigenvalues    EBANDS =     -1251.81005295
  atomic energy  EATOM  =     11953.08265402
  Solvation  Ediel_sol  =         0.00000000
  ---------------------------------------------------
  free energy    TOTEN  =      -323.88205693 eV

  energy without entropy =     -323.88205693  energy(sigma->0) =     -323.88205693


--------------------------------------------------------------------------------------------------------




--------------------------------------- Iteration      1(  13)  ---------------------------------------


    POTLOK:  cpu time    0.3026: real time    0.3031
    SETDIJ:  cpu time    0.0121: real time    0.0121
    EDDIAG:  cpu time    2.5448: real time    2.5475
  RMM-DIIS:  cpu time   50.7183: real time   50.8012
    ORTHCH:  cpu time    0.2137: real time    0.2139
       DOS:  cpu time    0.0005: real time    0.0004
    CHARGE:  cpu time    1.1730: real time    1.1763
    MIXING:  cpu time    0.0088: real time    0.0088
    --------------------------------------------
      LOOP:  cpu time   54.9736: real time   55.0633

 eigenvalue-minimisations  :  2500
 total energy-change (2. order) : 0.7442831E-03  (-0.2320185E-02)
 number of electron     323.9999993 magnetization 
 augmentation part      -21.2151980 magnetization 

 Broyden mixing:
  rms(total) = 0.10022E-01    rms(broyden)= 0.10022E-01
  rms(prec ) = 0.13033E-01
  weight for this iteration     100.00

 eigenvalues of (default mixing * dielectric matrix)
  average eigenvalue GAMMA=   1.2071
  2.4666  1.9739  1.9739  0.8788  0.7926  0.7926  0.4016  0.3771

 Free energy of the ion-electron system (eV)
  ---------------------------------------------------
  alpha Z        PSCENC =       244.65806279
  Ewald energy   TEWEN  =     61282.06249640
  -Hartree energ DENC   =    -73108.53767861
  -exchange      EXHF   =         0.00000000
  -V(xc)+E(xc)   XCENC  =     -2089.36534798
  PAW double counting   =      8284.50263972    -5640.37433960
  entropy T*S    EENTRO =        -0.00000000
  eigenvalues    EBANDS =     -1249.90979939
  atomic energy  EATOM  =     11953.08265402
  Solvation  Ediel_sol  =         0.00000000
  ---------------------------------------------------
  free energy    TOTEN  =      -323.88131264 eV

  energy without entropy =     -323.88131264  energy(sigma->0) =     -323.88131264


--------------------------------------------------------------------------------------------------------




--------------------------------------- Iteration      1(  14)  ---------------------------------------


    POTLOK:  cpu time    0.3028: real time    0.3032
    SETDIJ:  cpu time    0.0122: real time    0.0123
    EDDIAG:  cpu time    2.5421: real time    2.5466
  RMM-DIIS:  cpu time   53.4749: real time   53.5739
    ORTHCH:  cpu time    0.2085: real time    0.2087
       DOS:  cpu time    0.0004: real time    0.0004
    CHARGE:  cpu time    1.1733: real time    1.1744
    MIXING:  cpu time    0.0079: real time    0.0079
    --------------------------------------------
      LOOP:  cpu time   57.7223: real time   57.8274

 eigenvalue-minimisations  :  2651
 total energy-change (2. order) :-0.8126039E-03  (-0.6638585E-03)
 number of electron     323.9999993 magnetization 
 augmentation part      -21.2046424 magnetization 

 Broyden mixing:
  rms(total) = 0.81194E-02    rms(broyden)= 0.81194E-02
  rms(prec ) = 0.10671E-01
  weight for this iteration     100.00

 eigenvalues of (default mixing * dielectric matrix)
  average eigenvalue GAMMA=   1.3292
  3.2864  2.5939  1.5656  1.5656  0.7939  0.7939  0.5901  0.3998  0.3739

 Free energy of the ion-electron system (eV)
  ---------------------------------------------------
  alpha Z        PSCENC =       244.65806279
  Ewald energy   TEWEN  =     61282.06249640
  -Hartree energ DENC   =    -73113.73794193
  -exchange      EXHF   =         0.00000000
  -V(xc)+E(xc)   XCENC  =     -2089.34008202
  PAW double counting   =      8282.17975479    -5637.98528195
  entropy T*S    EENTRO =        -0.00000000
  eigenvalues    EBANDS =     -1244.80178735
  atomic energy  EATOM  =     11953.08265402
  Solvation  Ediel_sol  =         0.00000000
  ---------------------------------------------------
  free energy    TOTEN  =      -323.88212525 eV

  energy without entropy =     -323.88212525  energy(sigma->0) =     -323.88212525


--------------------------------------------------------------------------------------------------------




--------------------------------------- Iteration      1(  15)  ---------------------------------------


    POTLOK:  cpu time    0.3046: real time    0.3049
    SETDIJ:  cpu time    0.0122: real time    0.0122
    EDDIAG:  cpu time    2.5422: real time    2.5448
  RMM-DIIS:  cpu time   43.5734: real time   43.6514
    ORTHCH:  cpu time    0.2071: real time    0.2073
       DOS:  cpu time    0.0004: real time    0.0004
    CHARGE:  cpu time    1.1737: real time    1.1747
    MIXING:  cpu time    0.0082: real time    0.0082
    --------------------------------------------
      LOOP:  cpu time   47.8218: real time   47.9039

 eigenvalue-minimisations  :  2159
 total energy-change (2. order) :-0.5716922E-03  (-0.1958462E-03)
 number of electron     323.9999993 magnetization 
 augmentation part      -21.2295191 magnetization 

 Broyden mixing:
  rms(total) = 0.50384E-02    rms(broyden)= 0.50384E-02
  rms(prec ) = 0.62622E-02
  weight for this iteration     100.00

 eigenvalues of (default mixing * dielectric matrix)
  average eigenvalue GAMMA=   1.2933
  3.4572  2.5408  1.6690  1.6690  0.7858  0.7858  0.6717  0.5833  0.3983  0.3721

 Free energy of the ion-electron system (eV)
  ---------------------------------------------------
  alpha Z        PSCENC =       244.65806279
  Ewald energy   TEWEN  =     61282.06249640
  -Hartree energ DENC   =    -73120.50066864
  -exchange      EXHF   =         0.00000000
  -V(xc)+E(xc)   XCENC  =     -2089.31497487
  PAW double counting   =      8281.41419586    -5637.16314179
  entropy T*S    EENTRO =        -0.00000000
  eigenvalues    EBANDS =     -1238.12132073
  atomic energy  EATOM  =     11953.08265402
  Solvation  Ediel_sol  =         0.00000000
  ---------------------------------------------------
  free energy    TOTEN  =      -323.88269694 eV

  energy without entropy =     -323.88269694  energy(sigma->0) =     -323.88269694


--------------------------------------------------------------------------------------------------------




--------------------------------------- Iteration      1(  16)  ---------------------------------------


    POTLOK:  cpu time    0.3035: real time    0.3042
    SETDIJ:  cpu time    0.0126: real time    0.0126
    EDDIAG:  cpu time    2.5627: real time    2.5681
  RMM-DIIS:  cpu time   50.5658: real time   50.6539
    ORTHCH:  cpu time    0.2082: real time    0.2085
       DOS:  cpu time    0.0004: real time    0.0004
    CHARGE:  cpu time    1.1751: real time    1.1768
    MIXING:  cpu time    0.0093: real time    0.0093
    --------------------------------------------
      LOOP:  cpu time   54.8377: real time   54.9337

 eigenvalue-minimisations  :  2506
 total energy-change (2. order) :-0.7565504E-03  (-0.7506827E-04)
 number of electron     323.9999993 magnetization 
 augmentation part      -21.2325332 magnetization 

 Broyden mixing:
  rms(total) = 0.43366E-02    rms(broyden)= 0.43366E-02
  rms(prec ) = 0.52976E-02
  weight for this iteration     100.00

 eigenvalues of (default mixing * dielectric matrix)
  average eigenvalue GAMMA=   1.3047
  3.4631  2.3971  2.0184  2.0184  1.0927  0.7939  0.7939  0.6070  0.3711  0.3982
  0.3982

 Free energy of the ion-electron system (eV)
  ---------------------------------------------------
  alpha Z        PSCENC =       244.65806279
  Ewald energy   TEWEN  =     61282.06249640
  -Hartree energ DENC   =    -73122.15166037
  -exchange      EXHF   =         0.00000000
  -V(xc)+E(xc)   XCENC  =     -2089.30402076
  PAW double counting   =      8281.17831373    -5636.93436547
  entropy T*S    EENTRO =        -0.00000000
  eigenvalues    EBANDS =     -1236.47493384
  atomic energy  EATOM  =     11953.08265402
  Solvation  Ediel_sol  =         0.00000000
  ---------------------------------------------------
  free energy    TOTEN  =      -323.88345349 eV

  energy without entropy =     -323.88345349  energy(sigma->0) =     -323.88345349


--------------------------------------------------------------------------------------------------------




--------------------------------------- Iteration      1(  17)  ---------------------------------------


    POTLOK:  cpu time    0.3053: real time    0.3056
    SETDIJ:  cpu time    0.0131: real time    0.0131
    EDDIAG:  cpu time    2.5419: real time    2.5469
  RMM-DIIS:  cpu time   42.7962: real time   42.8720
    ORTHCH:  cpu time    0.2090: real time    0.2092
       DOS:  cpu time    0.0004: real time    0.0004
    CHARGE:  cpu time    1.1722: real time    1.1749
    MIXING:  cpu time    0.0084: real time    0.0084
    --------------------------------------------
      LOOP:  cpu time   47.0465: real time   47.1305

 eigenvalue-minimisations  :  2111
 total energy-change (2. order) :-0.1398697E-02  (-0.2938690E-04)
 number of electron     323.9999993 magnetization 
 augmentation part      -21.2267180 magnetization 

 Broyden mixing:
  rms(total) = 0.17279E-02    rms(broyden)= 0.17279E-02
  rms(prec ) = 0.25075E-02
  weight for this iteration     100.00

 eigenvalues of (default mixing * dielectric matrix)
  average eigenvalue GAMMA=   1.4340
  4.7573  2.6392  2.3712  1.5589  1.5589  0.9654  0.7982  0.7982  0.6040  0.3719
  0.3973  0.3880

 Free energy of the ion-electron system (eV)
  ---------------------------------------------------
  alpha Z        PSCENC =       244.65806279
  Ewald energy   TEWEN  =     61282.06249640
  -Hartree energ DENC   =    -73124.70510225
  -exchange      EXHF   =         0.00000000
  -V(xc)+E(xc)   XCENC  =     -2089.28592513
  PAW double counting   =      8280.43980399    -5636.21558247
  entropy T*S    EENTRO =        -0.00000000
  eigenvalues    EBANDS =     -1233.92125955
  atomic energy  EATOM  =     11953.08265402
  Solvation  Ediel_sol  =         0.00000000
  ---------------------------------------------------
  free energy    TOTEN  =      -323.88485219 eV

  energy without entropy =     -323.88485219  energy(sigma->0) =     -323.88485219


--------------------------------------------------------------------------------------------------------




--------------------------------------- Iteration      1(  18)  ---------------------------------------


    POTLOK:  cpu time    0.3072: real time    0.3076
    SETDIJ:  cpu time    0.0119: real time    0.0119
    EDDIAG:  cpu time    2.5430: real time    2.5454
  RMM-DIIS:  cpu time   43.7066: real time   43.7739
    ORTHCH:  cpu time    0.2076: real time    0.2078
       DOS:  cpu time    0.0014: real time    0.0014
    CHARGE:  cpu time    1.1718: real time    1.1727
    MIXING:  cpu time    0.0085: real time    0.0085
    --------------------------------------------
      LOOP:  cpu time   47.9580: real time   48.0293

 eigenvalue-minimisations  :  2128
 total energy-change (2. order) :-0.1390271E-02  (-0.3916787E-04)
 number of electron     323.9999993 magnetization 
 augmentation part      -21.2261354 magnetization 

 Broyden mixing:
  rms(total) = 0.16325E-02    rms(broyden)= 0.16325E-02
  rms(prec ) = 0.19671E-02
  weight for this iteration     100.00

 eigenvalues of (default mixing * dielectric matrix)
  average eigenvalue GAMMA=   1.4383
  5.4150  2.7464  2.3394  1.6889  1.6889  0.9923  0.7999  0.7999  0.5996  0.4669
  0.3726  0.3996  0.3882

 Free energy of the ion-electron system (eV)
  ---------------------------------------------------
  alpha Z        PSCENC =       244.65806279
  Ewald energy   TEWEN  =     61282.06249640
  -Hartree energ DENC   =    -73127.66353814
  -exchange      EXHF   =         0.00000000
  -V(xc)+E(xc)   XCENC  =     -2089.27460225
  PAW double counting   =      8279.70026780    -5635.47322692
  entropy T*S    EENTRO =        -0.00000000
  eigenvalues    EBANDS =     -1230.97835617
  atomic energy  EATOM  =     11953.08265402
  Solvation  Ediel_sol  =         0.00000000
  ---------------------------------------------------
  free energy    TOTEN  =      -323.88624246 eV

  energy without entropy =     -323.88624246  energy(sigma->0) =     -323.88624246


--------------------------------------------------------------------------------------------------------




--------------------------------------- Iteration      1(  19)  ---------------------------------------


    POTLOK:  cpu time    0.3064: real time    0.3079
    SETDIJ:  cpu time    0.0124: real time    0.0124
    EDDIAG:  cpu time    2.5661: real time    2.5687
  RMM-DIIS:  cpu time   48.0481: real time   48.1270
    ORTHCH:  cpu time    0.2110: real time    0.2112
       DOS:  cpu time    0.0005: real time    0.0005
    CHARGE:  cpu time    1.1710: real time    1.1743
    MIXING:  cpu time    0.0091: real time    0.0091
    --------------------------------------------
      LOOP:  cpu time   52.3245: real time   52.4110

 eigenvalue-minimisations  :  2366
 total energy-change (2. order) :-0.4029484E-03  (-0.8288988E-05)
 number of electron     323.9999993 magnetization 
 augmentation part      -21.2251214 magnetization 

 Broyden mixing:
  rms(total) = 0.11487E-02    rms(broyden)= 0.11487E-02
  rms(prec ) = 0.13957E-02
  weight for this iteration     100.00

 eigenvalues of (default mixing * dielectric matrix)
  average eigenvalue GAMMA=   1.5109
  6.2524  2.9572  2.3579  1.9369  1.9369  0.9877  0.9877  0.7975  0.7975  0.6060
  0.3992  0.3951  0.3706  0.3706

 Free energy of the ion-electron system (eV)
  ---------------------------------------------------
  alpha Z        PSCENC =       244.65806279
  Ewald energy   TEWEN  =     61282.06249640
  -Hartree energ DENC   =    -73128.25888450
  -exchange      EXHF   =         0.00000000
  -V(xc)+E(xc)   XCENC  =     -2089.27345301
  PAW double counting   =      8279.78251332    -5635.55343925
  entropy T*S    EENTRO =        -0.00000000
  eigenvalues    EBANDS =     -1230.38659519
  atomic energy  EATOM  =     11953.08265402
  Solvation  Ediel_sol  =         0.00000000
  ---------------------------------------------------
  free energy    TOTEN  =      -323.88664541 eV

  energy without entropy =     -323.88664541  energy(sigma->0) =     -323.88664541


--------------------------------------------------------------------------------------------------------




--------------------------------------- Iteration      1(  20)  ---------------------------------------


    POTLOK:  cpu time    0.3056: real time    0.3059
    SETDIJ:  cpu time    0.0122: real time    0.0122
    EDDIAG:  cpu time    2.5437: real time    2.5480
  RMM-DIIS:  cpu time   42.6773: real time   42.7560
    ORTHCH:  cpu time    0.2116: real time    0.2121
       DOS:  cpu time    0.0005: real time    0.0005
    CHARGE:  cpu time    1.1716: real time    1.1735
    MIXING:  cpu time    0.0089: real time    0.0089
    --------------------------------------------
      LOOP:  cpu time   46.9315: real time   47.0171

 eigenvalue-minimisations  :  2070
 total energy-change (2. order) :-0.5259932E-03  (-0.7738745E-05)
 number of electron     323.9999993 magnetization 
 augmentation part      -21.2234341 magnetization 

 Broyden mixing:
  rms(total) = 0.59199E-03    rms(broyden)= 0.59199E-03
  rms(prec ) = 0.70253E-03
  weight for this iteration     100.00

 eigenvalues of (default mixing * dielectric matrix)
  average eigenvalue GAMMA=   1.5869
  6.8956  3.4041  2.5335  1.7696  1.7696  1.6240  1.1282  0.9481  0.7938  0.7938
  0.6095  0.3979  0.3979  0.3729  0.3650

 Free energy of the ion-electron system (eV)
  ---------------------------------------------------
  alpha Z        PSCENC =       244.65806279
  Ewald energy   TEWEN  =     61282.06249640
  -Hartree energ DENC   =    -73128.67716270
  -exchange      EXHF   =         0.00000000
  -V(xc)+E(xc)   XCENC  =     -2089.27422202
  PAW double counting   =      8280.33640674    -5636.10617072
  entropy T*S    EENTRO =        -0.00000000
  eigenvalues    EBANDS =     -1229.96923593
  atomic energy  EATOM  =     11953.08265402
  Solvation  Ediel_sol  =         0.00000000
  ---------------------------------------------------
  free energy    TOTEN  =      -323.88717140 eV

  energy without entropy =     -323.88717140  energy(sigma->0) =     -323.88717140


--------------------------------------------------------------------------------------------------------




--------------------------------------- Iteration      1(  21)  ---------------------------------------


    POTLOK:  cpu time    0.3074: real time    0.3077
    SETDIJ:  cpu time    0.0129: real time    0.0129
    EDDIAG:  cpu time    2.5403: real time    2.5427
  RMM-DIIS:  cpu time   44.5037: real time   44.5846
    ORTHCH:  cpu time    0.2111: real time    0.2113
       DOS:  cpu time    0.0005: real time    0.0004
    CHARGE:  cpu time    1.1707: real time    1.1740
    MIXING:  cpu time    0.0090: real time    0.0090
    --------------------------------------------
      LOOP:  cpu time   48.7555: real time   48.8426

 eigenvalue-minimisations  :  2194
 total energy-change (2. order) :-0.2109087E-03  (-0.2049786E-05)
 number of electron     323.9999993 magnetization 
 augmentation part      -21.2249612 magnetization 

 Broyden mixing:
  rms(total) = 0.37158E-03    rms(broyden)= 0.37158E-03
  rms(prec ) = 0.43465E-03
  weight for this iteration     100.00

 eigenvalues of (default mixing * dielectric matrix)
  average eigenvalue GAMMA=   1.5582
  7.1332  3.5100  2.5427  1.8568  1.8568  1.8090  1.0659  0.9341  0.7936  0.7936
  0.6126  0.4872  0.3991  0.3991  0.3727  0.3653

 Free energy of the ion-electron system (eV)
  ---------------------------------------------------
  alpha Z        PSCENC =       244.65806279
  Ewald energy   TEWEN  =     61282.06249640
  -Hartree energ DENC   =    -73128.91808853
  -exchange      EXHF   =         0.00000000
  -V(xc)+E(xc)   XCENC  =     -2089.27542915
  PAW double counting   =      8280.51433389    -5636.28723957
  entropy T*S    EENTRO =        -0.00000000
  eigenvalues    EBANDS =     -1229.72417218
  atomic energy  EATOM  =     11953.08265402
  Solvation  Ediel_sol  =         0.00000000
  ---------------------------------------------------
  free energy    TOTEN  =      -323.88738231 eV

  energy without entropy =     -323.88738231  energy(sigma->0) =     -323.88738231


--------------------------------------------------------------------------------------------------------




--------------------------------------- Iteration      1(  22)  ---------------------------------------


    POTLOK:  cpu time    0.3081: real time    0.3083
    SETDIJ:  cpu time    0.0123: real time    0.0123
    EDDIAG:  cpu time    2.5481: real time    2.5506
  RMM-DIIS:  cpu time   36.0476: real time   36.1033
    ORTHCH:  cpu time    0.2064: real time    0.2077
       DOS:  cpu time    0.0005: real time    0.0005
    CHARGE:  cpu time    1.1740: real time    1.1772
    MIXING:  cpu time    0.0091: real time    0.0092
    --------------------------------------------
      LOOP:  cpu time   40.3061: real time   40.3691

 eigenvalue-minimisations  :  1625
 total energy-change (2. order) :-0.5413879E-04  (-0.6903296E-06)
 number of electron     323.9999993 magnetization 
 augmentation part      -21.2255530 magnetization 

 Broyden mixing:
  rms(total) = 0.26856E-03    rms(broyden)= 0.26856E-03
  rms(prec ) = 0.31111E-03
  weight for this iteration     100.00

 eigenvalues of (default mixing * dielectric matrix)
  average eigenvalue GAMMA=   1.6105
  7.5316  3.6304  2.5773  2.5773  1.8472  1.8472  1.0814  1.0814  1.0761  0.7938
  0.7938  0.6075  0.3646  0.3729  0.3998  0.3998  0.3967

 Free energy of the ion-electron system (eV)
  ---------------------------------------------------
[...]
  0.000   0.000   0.000  -0.000  -0.000   0.011   0.000   0.000
 -0.000   0.000  -0.000   0.000  -0.000   0.000   0.011   0.000
  0.000   0.000  -0.000  -0.000   0.000   0.000   0.000   0.011
 -0.000   0.000  -0.001  -0.000  -0.000   0.000   0.000   0.000
  0.000   0.000  -0.013  -0.001  -0.000  -0.000   0.000   0.000
 -0.009  -0.000   0.000  -0.018   0.000  -0.000  -0.000  -0.000
 -0.000   0.000  -0.000  -0.001  -0.013   0.000   0.000  -0.000
  0.000   0.000   0.001  -0.000  -0.001   0.000   0.000   0.000
 total augmentation occupancy for first ion, spin component:           1
  1.937   0.187  -0.003   0.200   0.001   0.004   0.035   0.008   0.000   0.001   0.007   0.001   0.001
  0.187   1.326  -0.006  -0.913  -0.022   0.019   0.353   0.007   0.001   0.000  -0.025   0.004   0.003
 -0.003  -0.006   1.329   0.011   0.009  -0.454  -0.005  -0.001  -0.004  -0.110  -0.001  -0.001  -0.041
  0.200  -0.913   0.011   1.490   0.010  -0.005  -0.531  -0.009   0.000  -0.004  -0.038  -0.003  -0.005
  0.001  -0.022   0.009   0.010   1.336  -0.001  -0.009  -0.472  -0.042  -0.000   0.001  -0.116  -0.003
  0.004   0.019  -0.454  -0.005  -0.001   0.290   0.001   0.001   0.000   0.035  -0.002  -0.000   0.005
  0.035   0.353  -0.005  -0.531  -0.009   0.001   0.273   0.004  -0.000   0.002   0.042   0.002   0.000
  0.008   0.007  -0.001  -0.009  -0.472   0.001   0.004   0.300   0.010  -0.000  -0.000   0.036   0.002
  0.000   0.001  -0.004   0.000  -0.042   0.000  -0.000   0.010   0.019   0.001  -0.000   0.000   0.000
  0.001   0.000  -0.110  -0.004  -0.000   0.035   0.002  -0.000   0.001   0.017   0.000   0.000  -0.000
  0.007  -0.025  -0.001  -0.038   0.001  -0.002   0.042  -0.000  -0.000   0.000   0.018   0.000  -0.001
  0.001   0.004  -0.001  -0.003  -0.116  -0.000   0.002   0.036   0.000   0.000   0.000   0.017   0.000
  0.001   0.003  -0.041  -0.005  -0.003   0.005   0.000   0.002   0.000  -0.000  -0.001   0.000   0.020


------------------------ aborting loop because EDIFF is reached ----------------------------------------


    CHARGE:  cpu time    1.1939: real time    1.1949
    FORLOC:  cpu time    0.0813: real time    0.0814
    FORNL :  cpu time   13.5132: real time   13.5352
    STRESS:  cpu time   73.5051: real time   73.6283
    FORCOR:  cpu time    0.3421: real time    0.3423
    FORHAR:  cpu time    0.1408: real time    0.1409
    MIXING:  cpu time    0.0077: real time    0.0077
    OFIELD:  cpu time    0.0000: real time    0.0000

  Number of pair interactions contributing to vdW energy:  269328
  Edisp (eV):  -18.99075
    FORVDW:  cpu time    0.0295: real time    0.0295

  FORCE on cell =-STRESS in cart. coord.  units (eV):
  Direction    XX          YY          ZZ          XY          YZ          ZX
  --------------------------------------------------------------------------------------
  Alpha Z   244.65806   244.65806   244.65806
  Ewald   70460.24667 70488.34140-79608.65550    15.43530    20.57836    15.27425
  Hartree 72807.94517 72816.84141-72440.10457     5.96854    -0.21671     0.40890
  E(xc)   -1352.14506 -1352.35301 -1371.03723    -0.04371    -1.32882    -0.88429
  Local  ************************146992.16840   -20.85040   -20.74486   -15.86084
  n-local  3546.53220  3546.07134  3729.10028    -1.50915     9.61964     6.37019
  augment  -760.54879  -760.04940  -800.77761     0.54141    -1.76101    -1.13885
  Kinetic  3285.65423  3290.27195  3244.56539     4.64940     3.15561     2.38940
  Fock        0.00000     0.00000     0.00000     0.00000     0.00000     0.00000
  vdW       -12.23245   -12.11238    -9.81277     0.06567    -0.90844    -0.55878
  -------------------------------------------------------------------------------------
  Total      -6.96086    -1.26407   -19.89555     4.25706     8.39377     5.99998
  in kB      -3.80198    -0.69043   -10.86685     2.32518     4.58464     3.27716
  external pressure =       -5.12 kB  Pullay stress =        0.00 kB

  kinetic pressure (ideal gas correction) =      0.23 kB
  total pressure  =     -4.89 kB
  Total+kin.    -3.593      -0.399     -10.672       2.301       4.518       3.257

 VOLUME and BASIS-vectors are now :
 -----------------------------------------------------------------------------
  energy-cutoff  :      550.00
  volume of cell :     2933.34
      direct lattice vectors                 reciprocal lattice vectors
    10.576286044  0.000000000  0.000000000     0.094551149  0.055726967  0.002067318
    -5.370560484  9.112153234  0.000000000     0.000000000  0.109743545  0.002233770
    -0.300355680 -0.619538374 30.437483600     0.000000000  0.000000000  0.032854227

  length of vectors
    10.576286044 10.577062753 30.445269735     0.109771073  0.109766276  0.032854227


 FORCES acting on ions
    electron-ion (+dipol)            ewald-force                    non-local-force                 convergence-correction
 -----------------------------------------------------------------------------------------------
   -.287E+01 -.261E+01 -.829E+03   0.282E+01 0.260E+01 0.834E+03   0.205E+00 0.401E+00 -.563E+01   0.114E-02 -.205E-02 -.106E-02
   -.901E+00 0.164E+01 -.833E+03   0.907E+00 -.165E+01 0.838E+03   0.131E+00 -.929E-01 -.531E+01   -.887E-03 0.471E-03 0.948E-03
   -.209E+01 -.190E+00 -.831E+03   0.204E+01 0.187E+00 0.836E+03   0.293E+00 -.370E-01 -.575E+01   -.239E-03 0.172E-02 -.105E-02
   -.442E+00 0.196E+01 -.832E+03   0.432E+00 -.202E+01 0.837E+03   0.806E-01 -.102E-01 -.581E+01   -.194E-02 0.490E-03 -.115E-02
   0.167E+01 0.165E+01 -.830E+03   -.173E+01 -.171E+01 0.836E+03   -.141E+00 0.211E+00 -.539E+01   0.177E-02 -.699E-03 0.102E-03
   0.196E+01 -.312E+01 -.831E+03   -.200E+01 0.307E+01 0.837E+03   0.897E-01 0.397E+00 -.541E+01   -.463E-03 -.244E-03 0.864E-03
   0.177E+01 -.112E+01 -.832E+03   -.181E+01 0.109E+01 0.838E+03   -.129E+00 0.227E+00 -.532E+01   0.991E-03 0.158E-03 0.513E-03
   -.134E+01 0.160E-01 -.831E+03   0.136E+01 -.456E-01 0.836E+03   0.725E-01 0.198E+00 -.563E+01   -.952E-03 -.326E-03 -.312E-03
   -.251E+01 -.283E+00 -.831E+03   0.246E+01 0.197E+00 0.837E+03   0.334E+00 0.279E+00 -.513E+01   0.656E-03 0.708E-03 -.150E-03
   -.363E+01 -.192E+01 0.101E+03   0.365E+01 0.187E+01 -.961E+02   0.333E+00 0.419E+00 -.560E+01   -.283E-03 -.482E-03 -.359E-03
   0.442E+00 0.135E+01 0.987E+02   -.434E+00 -.138E+01 -.934E+02   0.107E+00 0.717E-01 -.551E+01   0.188E-03 0.434E-03 0.522E-03
   0.369E+00 -.165E+01 0.102E+03   -.416E+00 0.167E+01 -.962E+02   0.148E+00 0.302E+00 -.559E+01   0.526E-03 0.399E-03 0.374E-03
   0.875E+00 -.268E+01 0.102E+03   -.937E+00 0.268E+01 -.963E+02   0.104E+00 0.332E+00 -.557E+01   -.569E-03 0.284E-03 -.896E-05
   -.322E+01 0.219E+01 0.101E+03   0.320E+01 -.225E+01 -.958E+02   0.307E+00 0.180E+00 -.555E+01   0.304E-03 0.756E-03 -.637E-03
   -.776E+00 -.115E+01 0.100E+03   0.766E+00 0.114E+01 -.948E+02   0.260E+00 0.196E+00 -.537E+01   0.468E-03 -.892E-03 0.146E-03
   0.187E+00 -.201E+01 0.993E+02   -.230E+00 0.203E+01 -.941E+02   0.157E+00 0.125E+00 -.556E+01   0.934E-03 -.274E-03 0.444E-03
   -.276E+00 -.523E+00 0.103E+03   0.192E+00 0.481E+00 -.973E+02   0.218E+00 0.290E+00 -.563E+01   -.449E-03 -.383E-03 0.205E-03
   -.215E+01 0.118E+01 0.995E+02   0.215E+01 -.124E+01 -.943E+02   0.200E+00 0.149E+00 -.547E+01   -.104E-02 0.416E-03 -.483E-03
   -.181E+01 0.309E+01 -.990E+02   0.179E+01 -.307E+01 0.937E+02   -.256E-01 -.453E+00 0.586E+01   0.114E-02 -.195E-02 0.667E-03
   -.219E+00 0.162E+01 -.989E+02   0.304E+00 -.156E+01 0.936E+02   -.215E+00 -.377E+00 0.510E+01   -.911E-03 0.434E-03 -.129E-02
   0.166E+01 0.117E+00 -.102E+03   -.168E+01 -.192E-01 0.967E+02   -.154E+00 -.427E+00 0.561E+01   -.166E-03 0.155E-02 0.848E-03
   0.651E+00 -.749E+00 -.102E+03   -.608E+00 0.795E+00 0.964E+02   -.163E+00 -.102E+00 0.561E+01   -.195E-02 0.243E-03 0.986E-03
   -.122E+01 0.195E+01 -.101E+03   0.132E+01 -.193E+01 0.954E+02   -.283E+00 -.227E+00 0.547E+01   0.155E-02 -.642E-03 -.285E-03
   0.922E+00 -.350E+00 -.101E+03   -.891E+00 0.343E+00 0.958E+02   -.124E+00 -.114E+00 0.577E+01   -.522E-03 -.276E-03 -.120E-02
   0.572E+00 0.804E+00 -.101E+03   -.586E+00 -.840E+00 0.962E+02   -.128E+00 -.948E-01 0.531E+01   0.747E-03 0.182E-04 -.655E-03
   0.407E+01 0.122E+01 -.100E+03   -.407E+01 -.121E+01 0.949E+02   -.541E+00 -.260E+00 0.567E+01   -.689E-03 -.297E-03 0.109E-04
   -.263E+01 0.115E+01 -.100E+03   0.267E+01 -.114E+01 0.950E+02   0.413E-01 -.224E+00 0.557E+01   0.618E-03 0.588E-03 0.111E-03
   0.201E+00 -.227E+01 0.829E+03   -.190E+00 0.236E+01 -.834E+03   -.210E+00 -.752E-01 0.566E+01   -.314E-04 -.604E-03 0.395E-03
   -.157E+01 0.114E+01 0.831E+03   0.165E+01 -.111E+01 -.836E+03   0.157E-01 -.182E+00 0.554E+01   0.133E-03 0.298E-03 -.133E-03
   -.211E+01 0.627E+00 0.831E+03   0.217E+01 -.543E+00 -.837E+03   -.290E-01 -.210E+00 0.583E+01   0.251E-03 0.409E-03 -.312E-03
   -.131E+01 0.580E+00 0.830E+03   0.134E+01 -.508E+00 -.836E+03   0.651E-01 -.285E+00 0.537E+01   -.771E-03 0.461E-03 0.888E-06
   0.152E+01 0.387E+01 0.832E+03   -.152E+01 -.383E+01 -.837E+03   -.273E+00 -.379E+00 0.550E+01   0.501E-03 0.713E-03 0.577E-03
   0.395E+01 0.466E+00 0.832E+03   -.397E+01 -.406E+00 -.837E+03   -.331E+00 -.203E+00 0.537E+01   0.701E-03 -.105E-02 0.590E-04
   0.847E+00 -.150E+01 0.831E+03   -.843E+00 0.159E+01 -.836E+03   -.127E+00 -.206E+00 0.546E+01   0.891E-03 -.422E-03 -.345E-03
   -.225E+00 0.233E+01 0.830E+03   0.213E+00 -.230E+01 -.836E+03   -.151E+00 -.339E+00 0.558E+01   -.530E-03 -.294E-03 -.497E-03
   -.136E+01 0.134E+01 0.833E+03   0.142E+01 -.124E+01 -.839E+03   -.133E+00 -.419E+00 0.545E+01   -.943E-03 0.326E-03 0.140E-03
   -.401E+01 -.891E+00 -.466E+03   0.411E+01 0.883E+00 0.466E+03   0.111E+00 -.506E-01 -.295E+00   0.136E-02 -.611E-03 0.467E-04
   0.342E+01 -.526E+00 -.465E+03   -.344E+01 0.558E+00 0.465E+03   0.164E+00 -.346E-02 0.270E+00   -.608E-03 0.680E-04 0.515E-05
   -.135E+01 -.622E+00 -.466E+03   0.137E+01 0.661E+00 0.466E+03   0.156E+00 -.250E-01 -.146E+00   0.223E-03 0.940E-03 -.987E-04
   0.722E+00 -.212E+01 -.462E+03   -.729E+00 0.222E+01 0.462E+03   -.765E-01 0.293E+00 0.260E+00   -.359E-03 0.156E-03 0.964E-04
   -.225E+01 0.383E+01 -.466E+03   0.229E+01 -.385E+01 0.466E+03   0.227E+00 -.178E+00 0.203E+00   0.117E-02 -.130E-02 -.109E-04
   0.305E+01 -.662E+01 -.468E+03   -.309E+01 0.680E+01 0.468E+03   -.300E+00 0.498E+00 0.126E-01   -.118E-02 0.124E-02 -.461E-04
   0.477E+01 0.409E+00 -.471E+03   -.483E+01 -.433E+00 0.471E+03   -.202E+00 -.223E+00 -.391E-01   -.112E-02 0.553E-03 -.199E-03
   -.167E+01 0.178E+01 -.462E+03   0.181E+01 -.182E+01 0.462E+03   0.379E+00 -.206E-01 -.867E-02   -.107E-03 -.610E-03 0.761E-04
   0.150E+01 0.577E+00 -.468E+03   -.157E+01 -.628E+00 0.468E+03   -.699E-01 -.108E+00 -.346E+00   0.119E-02 -.609E-04 -.779E-05
   0.123E+01 -.117E+00 0.465E+03   -.128E+01 0.413E-01 -.465E+03   -.660E-01 -.113E+00 0.583E-01   -.399E-03 0.295E-03 -.165E-03
   -.503E+00 0.253E+01 0.464E+03   0.465E+00 -.253E+01 -.464E+03   0.174E-01 -.281E+00 -.279E+00   0.417E-03 0.273E-04 -.174E-03
   0.346E+01 -.176E+01 0.464E+03   -.350E+01 0.178E+01 -.465E+03   -.209E+00 0.979E-01 -.442E+00   0.733E-03 0.331E-04 -.142E-03
   0.209E+01 -.267E+01 0.467E+03   -.210E+01 0.271E+01 -.467E+03   -.405E-01 0.138E+00 0.110E-01   0.157E-03 -.443E-03 -.399E-04
   0.130E+01 0.282E+00 0.467E+03   -.134E+01 -.263E+00 -.467E+03   -.610E-01 0.708E-01 0.193E+00   -.791E-03 0.307E-03 -.141E-03
   -.677E+00 0.150E+01 0.469E+03   0.714E+00 -.150E+01 -.469E+03   0.142E+00 0.800E-01 0.224E+00   0.105E-03 -.564E-04 -.881E-04
   -.114E+01 -.300E+01 0.464E+03   0.113E+01 0.302E+01 -.464E+03   -.858E-01 0.147E+00 -.183E+00   0.461E-04 -.465E-03 -.128E-03
   0.173E+01 -.683E+00 0.466E+03   -.174E+01 0.679E+00 -.466E+03   -.534E-01 0.214E+00 0.323E-01   0.247E-03 -.142E-03 -.105E-03
   -.879E+00 0.455E+00 0.466E+03   0.817E+00 -.407E+00 -.466E+03   0.191E+00 -.900E-01 -.406E-01   -.669E-03 0.333E-03 -.139E-03
 -----------------------------------------------------------------------------------------------
   -.235E+00 0.496E+00 0.289E-01   0.210E-13 -.132E-13 -.455E-12   0.229E+00 -.493E+00 -.261E-01   0.585E-03 0.269E-03 -.327E-02
 
 
 POSITION                                       TOTAL-FORCE (eV/Angst)
 -----------------------------------------------------------------------------------
      1.56165      0.57111     20.77680         0.150099      0.366654     -0.414635
     -0.25678      3.64922     20.76961         0.128418     -0.104256     -0.085543
     -2.04599      6.68417     20.79785         0.228804     -0.038138     -0.552573
      5.07220      0.61553     20.80782         0.065557     -0.055434     -0.630302
      3.29795      3.62673     20.76388        -0.190126      0.150928     -0.122871
      1.49517      6.65525     20.77481         0.043629      0.330525     -0.140322
      8.63592      0.61287     20.77027        -0.156532      0.187597     -0.052735
      6.79380      3.63154     20.78507         0.082457      0.156746     -0.432842
      4.99627      6.67570     20.75879         0.269278      0.188987      0.145532
      9.24122      1.75321     13.33263         0.353223      0.362323     -0.186841
     -3.11986      4.81227     13.34445         0.122042      0.059267     -0.149554
      5.66459      7.82413     13.32987         0.105853      0.325359     -0.209776
      2.21972      1.74610     13.32549         0.056719      0.332409     -0.214722
      0.41109      4.81553     13.33019         0.291116      0.131501     -0.211330
     -1.37930      7.83373     13.32291         0.255172      0.195616     -0.040183
      5.73086      1.76131     13.33717         0.122070      0.157972     -0.207921
      3.93664      4.79514     13.31936         0.139196      0.251527     -0.219454
      2.12530      7.84403     13.32957         0.197891      0.093448     -0.142063
      1.57316      0.67645     17.07553        -0.052902     -0.438726      0.508874
     -0.21525      3.69316     17.12506        -0.136294     -0.322809     -0.237999
     -1.98862      6.71433     17.10205        -0.179789     -0.342283      0.274312
      5.12029      0.62945     17.10265        -0.120811     -0.073978      0.256072
      3.31796      3.69991     17.12002        -0.190021     -0.207538      0.074345
      1.52799      6.72108     17.10214        -0.095678     -0.132012      0.413054
      8.63772      0.64210     17.13157        -0.139827     -0.143305     -0.056478
      6.87200      3.70223     17.09476        -0.523445     -0.253623      0.306698
      5.02151      6.73553     17.11257         0.068593     -0.222533      0.219400
     -1.27240      1.82084      9.66668        -0.189480      0.011623      0.419113
      7.48040      4.85632      9.66140         0.095883     -0.146600      0.346175
      5.70009      7.88680      9.63514         0.030961     -0.123702      0.623468
      2.22809      1.81390      9.66957         0.083803     -0.207787      0.117071
      0.47169      4.87264      9.65037        -0.265892     -0.330954      0.283018
     -1.32756      7.88082      9.66594        -0.338241     -0.142146      0.146289
      5.77425      1.80136      9.66472        -0.115454     -0.122092      0.241702
      3.98959      4.87505      9.65661        -0.152463     -0.294749      0.316096
      2.17769      7.92425      9.64550        -0.067246     -0.306785      0.275287
     10.38093     -0.38041     18.95715         0.214747     -0.055006     -0.387519
      8.58082      2.65746     18.92721         0.126747      0.027556      0.368950
      6.78375      5.69207     18.95200         0.184681      0.003812     -0.178864
     -2.02423      8.70029     18.91939        -0.092774      0.401164      0.315600
      1.51965      2.66108     18.92942         0.286603     -0.222208      0.326259
     -0.23341      5.65172     18.94578        -0.362122      0.718294      0.057760
      6.87395     -0.37137     18.95741        -0.285019     -0.266847      0.029396
      5.04313      2.64518     18.93756         0.507846     -0.060718     -0.096737
      3.27702      5.69549     18.96307        -0.147781     -0.158551     -0.443968
      0.47273      0.78159     11.49217        -0.122672     -0.182029      0.098434
     -1.32880      3.84817     11.51664        -0.012453     -0.324198     -0.392733
     -3.11201      6.84417     11.52297        -0.275859      0.125347     -0.608059
      3.99820      0.76356     11.49433        -0.059033      0.182805     -0.035107
      2.20772      3.81409     11.47998        -0.110413      0.092075      0.229025
      0.40671      6.85740     11.47506         0.181404      0.079724      0.282412
      7.51894      0.77104     11.50993        -0.094517      0.188185     -0.230211
      5.73389      3.80174     11.49473        -0.075491      0.223898      0.039392
      3.91182      6.87081     11.49102         0.154219     -0.063188     -0.032836
 -----------------------------------------------------------------------------------
    total drift:                               -0.005321      0.003150     -0.000446


--------------------------------------------------------------------------------------------------------



  FREE ENERGIE OF THE ION-ELECTRON SYSTEM (eV)
  ---------------------------------------------------
  free  energy   TOTEN  =      -342.82070220 eV

  energy  without entropy=     -342.82070220  energy(sigma->0) =     -342.82070220
 
 d Force =-0.1403367E-01[-0.160E-01,-0.121E-01]  d Energy =-0.1398788E-01-0.458E-04
 d Force =-0.1126216E+02[-0.113E+02,-0.113E+02]  d Ewald  =-0.1126216E+02-0.170E-05


--------------------------------------------------------------------------------------------------------


    POTLOK:  cpu time    0.3246: real time    0.3248


--------------------------------------------------------------------------------------------------------


           RANDOM_SEED =         158954304              324                0
   IONSTEP:  cpu time    0.0001: real time    0.0001

  ENERGY OF THE ELECTRON-ION-THERMOSTAT SYSTEM (eV)
  ---------------------------------------------------
% ion-electron   TOTEN  =      -342.820702  see above
  kinetic energy EKIN   =         0.630100
  kin. lattice  EKIN_LAT=         0.000000  (temperature   91.97 K)
  nose potential ES     =        -0.001952
  nose kinetic   EPS    =         0.000238
  ---------------------------------------------------
  total energy   ETOTAL =      -342.192316 eV

  maximum distance moved by ions :      0.59E-03


 mean value of Nose-termostat <S>:     0.996 mean value of <T> :    91.974
 mean temperature <T/S>/<1/S>  :    91.974

    WAVPRE:  cpu time    0.1089: real time    0.1132
    FEWALD:  cpu time    0.0009: real time    0.0009
    ORTHCH:  cpu time    8.2170: real time    8.2245
    POTLOK:  cpu time    0.3219: real time    0.3235
    EDDIAG:  cpu time    2.5469: real time    2.5492
     LOOP+:  cpu time  486.2840: real time  487.1135
    4ORBIT:  cpu time    0.0000: real time    0.0000

 total amount of memory used by VASP MPI-rank0   374142. kBytes
=======================================================================

   base      :      30000. kBytes
   nonl-proj :     198144. kBytes
   fftplans  :      19943. kBytes
   grid      :      90496. kBytes
   one-center:        839. kBytes
   wavefun   :      34720. kBytes
 
  
  
 General timing and accounting informations for this job:
 ========================================================
  
                  Total CPU time used (sec):     5863.877
                            User time (sec):     5850.396
                          System time (sec):       13.482
                         Elapsed time (sec):     5873.815
  
                   Maximum memory used (kb):      835264.
                   Average memory used (kb):           0.
  
                          Minor page faults:       437418
                          Major page faults:            0
                 Voluntary context switches:         1027
