0.000000000000000000e+00 2.032270000000000021e+00 9.299920000000000186e+00 -1.760000000000000009e+00 5.080680000000000085e+00 9.299920000000000186e+00 -3.520000000000000018e+00 8.129089999999999705e+00 9.299920000000000186e+00 3.520000000000000018e+00 2.032270000000000021e+00 9.299920000000000186e+00 1.760000000000000009e+00 5.080680000000000085e+00 9.299920000000000186e+00 0.000000000000000000e+00 8.129089999999999705e+00 9.299920000000000186e+00 7.040000000000000036e+00 2.032270000000000021e+00 9.299920000000000186e+00 5.280000000000000249e+00 5.080680000000000085e+00 9.299920000000000186e+00 3.520000000000000018e+00 8.129089999999999705e+00 9.299920000000000186e+00 7.039999999999999591e-01 2.032270000000000021e+00 1.707946000000000097e+01 -1.056000000000000050e+00 5.080680000000000085e+00 1.707946000000000097e+01 -2.815999999999999837e+00 8.129089999999999705e+00 1.707946000000000097e+01 4.224000000000000199e+00 2.032270000000000021e+00 1.707946000000000097e+01 2.463999999999999968e+00 5.080680000000000085e+00 1.707946000000000097e+01 7.039999999999999591e-01 8.129089999999999705e+00 1.707946000000000097e+01 7.743999999999999773e+00 2.032270000000000021e+00 1.707946000000000097e+01 5.983999999999999986e+00 5.080680000000000085e+00 1.707946000000000097e+01 4.224000000000000199e+00 8.129089999999999705e+00 1.707946000000000097e+01 0.000000000000000000e+00 2.032270000000000021e+00 1.292054000000000080e+01 -1.760000000000000009e+00 5.080680000000000085e+00 1.292054000000000080e+01 -3.520000000000000018e+00 8.129089999999999705e+00 1.292054000000000080e+01 3.520000000000000018e+00 2.032270000000000021e+00 1.292054000000000080e+01 1.760000000000000009e+00 5.080680000000000085e+00 1.292054000000000080e+01 0.000000000000000000e+00 8.129089999999999705e+00 1.292054000000000080e+01 7.040000000000000036e+00 2.032270000000000021e+00 1.292054000000000080e+01 5.280000000000000249e+00 5.080680000000000085e+00 1.292054000000000080e+01 3.520000000000000018e+00 8.129089999999999705e+00 1.292054000000000080e+01 7.039999999999999591e-01 2.032270000000000021e+00 2.070009999999999906e+01 -1.056000000000000050e+00 5.080680000000000085e+00 2.070009999999999906e+01 -2.815999999999999837e+00 8.129089999999999705e+00 2.070009999999999906e+01 4.224000000000000199e+00 2.032270000000000021e+00 2.070009999999999906e+01 2.463999999999999968e+00 5.080680000000000085e+00 2.070009999999999906e+01 7.039999999999999591e-01 8.129089999999999705e+00 2.070009999999999906e+01 7.743999999999999773e+00 2.032270000000000021e+00 2.070009999999999906e+01 5.983999999999999986e+00 5.080680000000000085e+00 2.070009999999999906e+01 4.224000000000000199e+00 8.129089999999999705e+00 2.070009999999999906e+01 0.000000000000000000e+00 0.000000000000000000e+00 1.111002000000000045e+01 -1.760000000000000009e+00 3.048410000000000064e+00 1.111002000000000045e+01 -3.520000000000000018e+00 6.096820000000000128e+00 1.111002000000000045e+01 3.520000000000000018e+00 0.000000000000000000e+00 1.111002000000000045e+01 1.760000000000000009e+00 3.048410000000000064e+00 1.111002000000000045e+01 0.000000000000000000e+00 6.096820000000000128e+00 1.111002000000000045e+01 7.040000000000000036e+00 0.000000000000000000e+00 1.111002000000000045e+01 5.280000000000000249e+00 3.048410000000000064e+00 1.111002000000000045e+01 3.520000000000000018e+00 6.096820000000000128e+00 1.111002000000000045e+01 7.039999999999999591e-01 0.000000000000000000e+00 1.889000000000000057e+01 -1.056000000000000050e+00 3.048410000000000064e+00 1.889000000000000057e+01 -2.815999999999999837e+00 6.096820000000000128e+00 1.889000000000000057e+01 4.224000000000000199e+00 0.000000000000000000e+00 1.889000000000000057e+01 2.463999999999999968e+00 3.048410000000000064e+00 1.889000000000000057e+01 7.039999999999999591e-01 6.096820000000000128e+00 1.889000000000000057e+01 7.743999999999999773e+00 0.000000000000000000e+00 1.889000000000000057e+01 5.983999999999999986e+00 3.048410000000000064e+00 1.889000000000000057e+01 4.224000000000000199e+00 6.096820000000000128e+00 1.889000000000000057e+01
-6.999999999999999929e-04 2.030229999999999979e+00 9.300300000000000011e+00 -1.758399999999999963e+00 5.081590000000000273e+00 9.299569999999999226e+00 -3.517920000000000158e+00 8.127159999999999940e+00 9.299440000000000595e+00 3.520529999999999937e+00 2.032249999999999890e+00 9.298799999999999955e+00 1.762559999999999905e+00 5.081940000000000346e+00 9.300700000000000855e+00 1.299999999999999940e-03 8.129390000000000782e+00 9.300330000000000652e+00 7.036539999999999573e+00 2.033809999999999896e+00 9.297670000000000101e+00 5.277800000000000047e+00 5.081500000000000128e+00 9.299989999999999313e+00 3.520020000000000149e+00 8.126340000000000785e+00 9.300649999999999196e+00 7.065799999999999859e-01 2.033539999999999903e+00 1.707748000000000133e+01 -1.055500000000000105e+00 5.082690000000000374e+00 1.708128999999999920e+01 -2.817289999999999850e+00 8.129020000000000579e+00 1.707711000000000112e+01 4.225319999999999965e+00 2.033290000000000042e+00 1.708110999999999891e+01 2.460739999999999927e+00 5.078859999999999708e+00 1.708061000000000007e+01 7.014000000000000234e-01 8.127370000000000871e+00 1.707908000000000115e+01 7.744699999999999918e+00 2.033220000000000027e+00 1.707999999999999829e+01 5.983950000000000102e+00 5.081660000000000288e+00 1.708269999999999911e+01 4.221860000000000390e+00 8.126350000000000406e+00 1.707935000000000159e+01 2.390000000000000197e-03 2.032529999999999948e+00 1.292097000000000051e+01 -1.758099999999999996e+00 5.081660000000000288e+00 1.292179999999999929e+01 -3.522710000000000008e+00 8.131030000000000868e+00 1.291860999999999926e+01 3.521020000000000039e+00 2.031359999999999832e+00 1.291865999999999914e+01 1.760490000000000110e+00 5.081070000000000420e+00 1.292416000000000054e+01 -1.410000000000000012e-03 8.129720000000000724e+00 1.292056999999999967e+01 7.039340000000000153e+00 2.034190000000000165e+00 1.292156999999999911e+01 5.281819999999999737e+00 5.081529999999999880e+00 1.291976999999999975e+01 3.517860000000000209e+00 8.127169999999999561e+00 1.292074000000000034e+01 7.030499999999999527e-01 2.033370000000000122e+00 2.070151999999999859e+01 -1.056070000000000064e+00 5.081889999999999574e+00 2.069939000000000107e+01 -2.816289999999999960e+00 8.127539999999999765e+00 2.069804999999999851e+01 4.224400000000000155e+00 2.032849999999999824e+00 2.069922000000000040e+01 2.464550000000000018e+00 5.078940000000000232e+00 2.069698999999999955e+01 7.053500000000000325e-01 8.127439999999999998e+00 2.070036999999999949e+01 7.744239999999999569e+00 2.032739999999999991e+00 2.070213000000000036e+01 5.983019999999999783e+00 5.083510000000000417e+00 2.069797000000000153e+01 4.221849999999999881e+00 8.128040000000000376e+00 2.070073999999999970e+01 5.280310000000000059e+00 9.143710000000000448e+00 1.111181999999999981e+01 -1.759759999999999991e+00 3.048210000000000086e+00 1.110707999999999984e+01 7.036990000000000300e+00 6.098779999999999646e+00 1.110726999999999975e+01 3.519559999999999800e+00 4.340000000000000108e-03 1.111062000000000083e+01 1.759309999999999929e+00 3.047800000000000065e+00 1.111105000000000054e+01 8.300000000000000086e-04 6.095209999999999795e+00 1.111086000000000062e+01 1.761149999999999993e+00 9.145120000000000360e+00 1.111144999999999960e+01 5.279230000000000089e+00 3.049259999999999859e+00 1.111013999999999946e+01 3.521129999999999871e+00 6.097859999999999836e+00 1.110894000000000048e+01 -4.576909999999999812e+00 9.144180000000000419e+00 1.889483999999999853e+01 -1.053360000000000074e+00 3.046089999999999964e+00 1.888624000000000080e+01 -2.816079999999999917e+00 6.099610000000000198e+00 1.888983999999999952e+01 4.224310000000000009e+00 2.390000000000000197e-03 1.888915000000000077e+01 2.465240000000000098e+00 3.048350000000000115e+00 1.889283000000000001e+01 7.036700000000000177e-01 6.095010000000000261e+00 1.888897000000000048e+01 2.467000000000000082e+00 9.141420000000000101e+00 1.888681000000000054e+01 5.983100000000000307e+00 3.047140000000000182e+00 1.889110000000000156e+01 4.225189999999999557e+00 6.094859999999999722e+00 1.889229999999999876e+01
-1.389999999999999960e-03 2.028189999999999937e+00 9.300660000000000593e+00 -1.756799999999999917e+00 5.082499999999999574e+00 9.299200000000000799e+00 -3.515839999999999854e+00 8.125239999999999796e+00 9.298939999999999984e+00 3.521049999999999791e+00 2.032230000000000203e+00 9.297679999999999723e+00 1.765109999999999957e+00 5.083199999999999719e+00 9.301479999999999748e+00 2.589999999999999854e-03 8.129680000000000462e+00 9.300739999999999341e+00 7.033089999999999620e+00 2.035340000000000149e+00 9.295429999999999637e+00 5.275599999999999845e+00 5.082309999999999661e+00 9.300039999999999196e+00 3.520049999999999901e+00 8.123609999999999332e+00 9.301379999999999981e+00 7.091600000000000126e-01 2.034800000000000164e+00 1.707551000000000130e+01 -1.054990000000000094e+00 5.084679999999999644e+00 1.708311000000000135e+01 -2.818569999999999798e+00 8.128949999999999676e+00 1.707476000000000127e+01 4.226630000000000109e+00 2.034320000000000128e+00 1.708275000000000077e+01 2.457500000000000018e+00 5.077040000000000219e+00 1.708174999999999955e+01 6.988199999999999967e-01 8.125659999999999883e+00 1.707869000000000170e+01 7.745409999999999684e+00 2.034159999999999968e+00 1.708052999999999955e+01 5.983909999999999840e+00 5.082639999999999603e+00 1.708593000000000117e+01 4.219750000000000334e+00 8.123599999999999710e+00 1.707923999999999864e+01 4.769999999999999934e-03 2.032779999999999809e+00 1.292140000000000022e+01 -1.756219999999999892e+00 5.082629999999999981e+00 1.292305999999999955e+01 -3.525419999999999998e+00 8.132949999999999235e+00 1.291668999999999912e+01 3.522029999999999994e+00 2.030460000000000154e+00 1.291680000000000028e+01 1.760979999999999990e+00 5.081450000000000244e+00 1.292775999999999925e+01 -2.820000000000000024e-03 8.130340000000000344e+00 1.292059000000000069e+01 7.038680000000000270e+00 2.036109999999999864e+00 1.292258999999999958e+01 5.283629999999999605e+00 5.082379999999999676e+00 1.291900000000000048e+01 3.515719999999999956e+00 8.125249999999999417e+00 1.292093000000000025e+01 7.020999999999999464e-01 2.034460000000000157e+00 2.070294000000000167e+01 -1.056130000000000013e+00 5.083090000000000330e+00 2.069867999999999952e+01 -2.816570000000000018e+00 8.125989999999999824e+00 2.069602000000000075e+01 4.224809999999999732e+00 2.033420000000000005e+00 2.069835000000000136e+01 2.465090000000000003e+00 5.077210000000000001e+00 2.069389999999999930e+01 7.066999999999999948e-01 8.125799999999999912e+00 2.070063000000000031e+01 7.744480000000000253e+00 2.033199999999999896e+00 2.070414999999999850e+01 5.982039999999999580e+00 5.086330000000000240e+00 2.069585000000000008e+01 4.219699999999999562e+00 8.126979999999999649e+00 2.070138000000000034e+01 5.280610000000000248e+00 9.142210000000000392e+00 1.111359999999999992e+01 -1.759519999999999973e+00 3.048010000000000108e+00 1.110416000000000025e+01 7.033999999999999808e+00 6.100730000000000430e+00 1.110454000000000008e+01 3.519120000000000026e+00 8.659999999999999296e-03 1.111120999999999981e+01 1.758629999999999916e+00 3.047200000000000131e+00 1.111206999999999923e+01 1.660000000000000017e-03 6.093619999999999592e+00 1.111170000000000080e+01 1.762299999999999978e+00 9.145020000000000593e+00 1.111288000000000054e+01 5.278450000000000308e+00 3.050110000000000099e+00 1.111026000000000025e+01 3.522240000000000038e+00 6.098889999999999922e+00 1.110787999999999975e+01 -4.577820000000000000e+00 9.143129999999999313e+00 1.889965000000000117e+01 -1.050729999999999942e+00 3.043789999999999996e+00 1.888251999999999953e+01 -2.816159999999999997e+00 6.102380000000000138e+00 1.888966999999999885e+01 4.224630000000000329e+00 4.769999999999999934e-03 1.888831000000000060e+01 2.466479999999999784e+00 3.048280000000000101e+00 1.889564000000000021e+01 7.033399999999999652e-01 6.093210000000000015e+00 1.888795000000000002e+01 2.469969999999999999e+00 9.137639999999999318e+00 1.888363999999999976e+01 5.982219999999999871e+00 3.045879999999999921e+00 1.889220999999999862e+01 4.226370000000000182e+00 6.092909999999999826e+00 1.889457000000000164e+01
-2.079999999999999818e-03 2.026149999999999896e+00 9.301030000000000797e+00 -1.755209999999999937e+00 5.083409999999999762e+00 9.298840000000000217e+00 -3.513770000000000060e+00 8.123350000000000293e+00 9.298450000000000770e+00 3.521560000000000024e+00 2.032220000000000137e+00 9.296559999999999491e+00 1.767660000000000009e+00 5.084439999999999849e+00 9.302250000000000796e+00 3.880000000000000202e-03 8.129979999999999762e+00 9.301159999999999428e+00 7.029659999999999798e+00 2.036859999999999893e+00 9.293200000000000571e+00 5.273410000000000153e+00 5.083109999999999573e+00 9.300079999999999458e+00 3.520080000000000098e+00 8.120900000000000674e+00 9.302089999999999748e+00 7.117599999999999483e-01 2.036039999999999850e+00 1.707354000000000127e+01 -1.054489999999999927e+00 5.086669999999999803e+00 1.708491000000000071e+01 -2.819850000000000190e+00 8.128890000000000171e+00 1.707242000000000104e+01 4.227949999999999875e+00 2.035340000000000149e+00 1.708437999999999946e+01 2.454289999999999861e+00 5.075219999999999843e+00 1.708287999999999940e+01 6.962500000000000355e-01 8.123950000000000671e+00 1.707829999999999870e+01 7.746120000000000339e+00 2.035079999999999778e+00 1.708105000000000118e+01 5.983880000000000088e+00 5.083610000000000184e+00 1.708914000000000044e+01 4.217670000000000030e+00 8.120860000000000412e+00 1.707911999999999964e+01 7.110000000000000001e-03 2.033030000000000115e+00 1.292182999999999993e+01 -1.754369999999999985e+00 5.083590000000000053e+00 1.292428999999999917e+01 -3.528119999999999923e+00 8.134869999999999379e+00 1.291478999999999999e+01 3.523039999999999949e+00 2.029570000000000096e+00 1.291496000000000066e+01 1.761460000000000026e+00 5.081830000000000069e+00 1.293135000000000012e+01 -4.239999999999999845e-03 8.130969999999999587e+00 1.292060999999999993e+01 7.038030000000000008e+00 2.038030000000000008e+00 1.292360000000000042e+01 5.285420000000000229e+00 5.083230000000000359e+00 1.291822999999999944e+01 3.513580000000000148e+00 8.123350000000000293e+00 1.292113999999999940e+01 7.011500000000000510e-01 2.035540000000000127e+00 2.070437000000000083e+01 -1.056200000000000028e+00 5.084270000000000067e+00 2.069795999999999836e+01 -2.816840000000000011e+00 8.124459999999999127e+00 2.069400999999999868e+01 4.225209999999999688e+00 2.033980000000000121e+00 2.069751000000000118e+01 2.465619999999999923e+00 5.075479999999999769e+00 2.069085000000000107e+01 7.080499999999999572e-01 8.124159999999999826e+00 2.070088000000000150e+01 7.744729999999999670e+00 2.033640000000000114e+00 2.070614000000000132e+01 5.981080000000000396e+00 5.089140000000000441e+00 2.069375000000000142e+01 4.217559999999999754e+00 8.125920000000000698e+00 2.070204000000000022e+01 5.280879999999999797e+00 9.140710000000000335e+00 1.111534999999999940e+01 -1.759300000000000086e+00 3.047810000000000130e+00 1.110129000000000055e+01 7.031069999999999709e+00 6.102660000000000196e+00 1.110185000000000066e+01 3.518670000000000186e+00 1.290999999999999960e-02 1.111176999999999992e+01 1.757970000000000033e+00 3.046619999999999884e+00 1.111307000000000045e+01 2.490000000000000026e-03 6.092050000000000409e+00 1.111255000000000059e+01 1.763419999999999987e+00 9.144949999999999690e+00 1.111428000000000083e+01 5.277669999999999639e+00 3.050959999999999894e+00 1.111036000000000001e+01 3.523340000000000138e+00 6.099890000000000256e+00 1.110687000000000069e+01 -4.578719999999999679e+00 9.142099999999999227e+00 1.890436000000000050e+01 -1.048130000000000006e+00 3.041529999999999845e+00 1.887884999999999991e+01 -2.816219999999999946e+00 6.105129999999999946e+00 1.888950000000000173e+01 4.224929999999999630e+00 7.110000000000000001e-03 1.888747000000000043e+01 2.467699999999999783e+00 3.048179999999999890e+00 1.889839999999999876e+01 7.030199999999999783e-01 6.091440000000000410e+00 1.888695999999999842e+01 2.472910000000000164e+00 9.133889999999999176e+00 1.888052000000000064e+01 5.981370000000000076e+00 3.044639999999999791e+00 1.889331999999999923e+01 4.227509999999999657e+00 6.090989999999999682e+00 1.889679999999999893e+01
-2.759999999999999867e-03 2.024099999999999788e+00 9.301379999999999981e+00 -1.753630000000000022e+00 5.084319999999999951e+00 9.298470000000000013e+00 -3.511709999999999887e+00 8.121489999999999654e+00 9.297940000000000538e+00 3.522060000000000191e+00 2.032220000000000137e+00 9.295439999999999259e+00 1.770180000000000087e+00 5.085659999999999847e+00 9.303010000000000446e+00 5.159999999999999656e-03 8.130269999999999442e+00 9.301600000000000534e+00 7.026250000000000107e+00 2.038359999999999950e+00 9.290979999999999350e+00 5.271230000000000082e+00 5.083910000000000373e+00 9.300090000000000856e+00 3.520109999999999850e+00 8.118209999999999482e+00 9.302799999999999514e+00 7.143599999999999950e-01 2.037240000000000162e+00 1.707160000000000011e+01 -1.054000000000000048e+00 5.088630000000000209e+00 1.708668000000000120e+01 -2.821130000000000138e+00 8.128869999999999152e+00 1.707010999999999967e+01 4.229260000000000019e+00 2.036369999999999791e+00 1.708597999999999928e+01 2.451119999999999965e+00 5.073400000000000354e+00 1.708399999999999963e+01 6.936999999999999833e-01 8.122249999999999304e+00 1.707789999999999964e+01 7.746830000000000105e+00 2.035989999999999966e+00 1.708155999999999963e+01 5.983859999999999957e+00 5.084559999999999746e+00 1.709232000000000085e+01 4.215629999999999988e+00 8.118109999999999715e+00 1.707900000000000063e+01 9.419999999999999554e-03 2.033279999999999976e+00 1.292225999999999964e+01 -1.752550000000000052e+00 5.084550000000000125e+00 1.292548999999999992e+01 -3.530800000000000161e+00 8.136779999999999902e+00 1.291290000000000049e+01 3.524020000000000152e+00 2.028709999999999791e+00 1.291315999999999953e+01 1.761949999999999905e+00 5.082200000000000273e+00 1.293491000000000035e+01 -5.660000000000000100e-03 8.131589999999999208e+00 1.292062999999999917e+01 7.037390000000000256e+00 2.039940000000000087e+00 1.292459000000000024e+01 5.287200000000000344e+00 5.084080000000000155e+00 1.291747999999999941e+01 3.511460000000000026e+00 8.121449999999999392e+00 1.292136999999999958e+01 7.002099999999999991e-01 2.036620000000000097e+00 2.070579999999999998e+01 -1.056280000000000108e+00 5.085429999999999673e+00 2.069723000000000113e+01 -2.817099999999999937e+00 8.122949999999999449e+00 2.069203999999999866e+01 4.225620000000000154e+00 2.034530000000000172e+00 2.069669999999999987e+01 2.466149999999999842e+00 5.073760000000000048e+00 2.068785000000000096e+01 7.094000000000000306e-01 8.122529999999999362e+00 2.070110000000000028e+01 7.744989999999999597e+00 2.034069999999999823e+00 2.070808999999999855e+01 5.980139999999999567e+00 5.091920000000000002e+00 2.069169000000000125e+01 4.215429999999999566e+00 8.124859999999999971e+00 2.070270999999999972e+01 5.281119999999999592e+00 9.139229999999999521e+00 1.111703999999999937e+01 -1.759100000000000108e+00 3.047620000000000218e+00 1.109848000000000035e+01 7.028209999999999624e+00 6.104540000000000077e+00 1.109922000000000075e+01 3.518229999999999968e+00 1.708000000000000143e-02 1.111229999999999940e+01 1.757339999999999902e+00 3.046060000000000212e+00 1.111403999999999925e+01 3.330000000000000061e-03 6.090519999999999712e+00 1.111339000000000077e+01 1.764529999999999932e+00 9.144890000000000185e+00 1.111565000000000047e+01 5.276900000000000368e+00 3.051820000000000199e+00 1.111045999999999978e+01 3.524399999999999977e+00 6.100859999999999950e+00 1.110591999999999935e+01 -4.579640000000000377e+00 9.141099999999999781e+00 1.890896000000000043e+01 -1.045549999999999979e+00 3.039309999999999956e+00 1.887527000000000044e+01 -2.816269999999999829e+00 6.107840000000000380e+00 1.888932000000000144e+01 4.225229999999999819e+00 9.400000000000000369e-03 1.888665999999999912e+01 2.468900000000000095e+00 3.048049999999999926e+00 1.890110999999999919e+01 7.026999999999999913e-01 6.089710000000000178e+00 1.888599999999999923e+01 2.475769999999999804e+00 9.130200000000000315e+00 1.887746999999999886e+01 5.980559999999999654e+00 3.043419999999999792e+00 1.889442999999999984e+01 4.228600000000000136e+00 6.089109999999999800e+00 1.889895999999999887e+01
-3.429999999999999889e-03 2.022060000000000191e+00 9.301740000000000563e+00 -1.752059999999999951e+00 5.085230000000000139e+00 9.298109999999999431e+00 -3.509669999999999845e+00 8.119669999999999277e+00 9.297430000000000305e+00 3.522539999999999782e+00 2.032249999999999890e+00 9.294309999999999405e+00 1.772680000000000033e+00 5.086859999999999715e+00 9.303779999999999717e+00 6.429999999999999952e-03 8.130559999999999121e+00 9.302060000000000883e+00 7.022870000000000168e+00 2.039849999999999941e+00 9.288790000000000546e+00 5.269070000000000142e+00 5.084699999999999775e+00 9.300079999999999458e+00 3.520140000000000047e+00 8.115569999999999951e+00 9.303490000000000038e+00 7.169799999999999507e-01 2.038390000000000146e+00 1.706969000000000136e+01 -1.053520000000000012e+00 5.090580000000000105e+00 1.708840999999999966e+01 -2.822410000000000085e+00 8.128869999999999152e+00 1.706784000000000034e+01 4.230559999999999654e+00 2.037399999999999878e+00 1.708755000000000024e+01 2.447999999999999954e+00 5.071589999999999598e+00 1.708511999999999986e+01 6.911800000000000166e-01 8.120559999999999334e+00 1.707749000000000095e+01 7.747539999999999871e+00 2.036880000000000024e+00 1.708205999999999847e+01 5.983839999999999826e+00 5.085499999999999687e+00 1.709546999999999883e+01 4.213639999999999830e+00 8.115360000000000795e+00 1.707886999999999844e+01 1.169000000000000074e-02 2.033529999999999838e+00 1.292267999999999972e+01 -1.750780000000000003e+00 5.085499999999999687e+00 1.292664000000000080e+01 -3.533450000000000202e+00 8.138659999999999783e+00 1.291104999999999947e+01 3.524999999999999911e+00 2.027880000000000127e+00 1.291141000000000005e+01 1.762450000000000072e+00 5.082569999999999588e+00 1.293843000000000032e+01 -7.080000000000000356e-03 8.132210000000000605e+00 1.292064000000000057e+01 7.036760000000000126e+00 2.041840000000000099e+00 1.292557000000000045e+01 5.288960000000000328e+00 5.084929999999999950e+00 1.291674000000000078e+01 3.509339999999999904e+00 8.119569999999999510e+00 1.292162000000000077e+01 6.992699999999999472e-01 2.037690000000000001e+00 2.070723999999999876e+01 -1.056359999999999966e+00 5.086549999999999905e+00 2.069649000000000072e+01 -2.817330000000000112e+00 8.121480000000000032e+00 2.069011000000000067e+01 4.226029999999999731e+00 2.035070000000000157e+00 2.069594999999999985e+01 2.466660000000000075e+00 5.072070000000000078e+00 2.068489999999999895e+01 7.107400000000000384e-01 8.120919999999999916e+00 2.070129999999999981e+01 7.745269999999999655e+00 2.034469999999999779e+00 2.070996999999999844e+01 5.979230000000000267e+00 5.094660000000000188e+00 2.068967999999999918e+01 4.213300000000000267e+00 8.123789999999999623e+00 2.070342000000000127e+01 5.281320000000000014e+00 9.137769999999999726e+00 1.111866000000000021e+01 -1.758909999999999973e+00 3.047429999999999861e+00 1.109576000000000029e+01 7.025459999999999816e+00 6.106379999999999697e+00 1.109665999999999997e+01 3.517799999999999816e+00 2.113999999999999907e-02 1.111276999999999937e+01 1.756750000000000034e+00 3.045529999999999848e+00 1.111496999999999957e+01 4.170000000000000095e-03 6.089039999999999786e+00 1.111422999999999917e+01 1.765609999999999902e+00 9.144880000000000564e+00 1.111698999999999948e+01 5.276130000000000209e+00 3.052680000000000060e+00 1.111053000000000068e+01 3.525419999999999998e+00 6.101779999999999760e+00 1.110505999999999993e+01 -4.580560000000000187e+00 9.140119999999999578e+00 1.891338999999999970e+01 -1.043020000000000058e+00 3.037160000000000082e+00 1.887180000000000035e+01 -2.816300000000000026e+00 6.110509999999999664e+00 1.888913000000000153e+01 4.225509999999999877e+00 1.162000000000000012e-02 1.888585000000000136e+01 2.470070000000000210e+00 3.047880000000000145e+00 1.890371999999999986e+01 7.023899999999999588e-01 6.088020000000000209e+00 1.888509000000000171e+01 2.478549999999999809e+00 9.126590000000000202e+00 1.887450000000000117e+01 5.979809999999999626e+00 3.042250000000000121e+00 1.889555000000000007e+01 4.229610000000000092e+00 6.087290000000000312e+00 1.890102999999999867e+01
-4.080000000000000293e-03 2.020010000000000083e+00 9.302080000000000126e+00 -1.750510000000000010e+00 5.086140000000000327e+00 9.297739999999999227e+00 -3.507639999999999869e+00 8.117900000000000560e+00 9.296910000000000451e+00 3.522990000000000066e+00 2.032300000000000217e+00 9.293189999999999173e+00 1.775160000000000071e+00 5.088040000000000340e+00 9.304539999999999367e+00 7.700000000000000247e-03 8.130850000000000577e+00 9.302540000000000475e+00 7.019510000000000360e+00 2.041310000000000180e+00 9.286619999999999209e+00 5.266919999999999824e+00 5.085479999999999556e+00 9.300029999999999575e+00 3.520189999999999930e+00 8.112980000000000302e+00 9.304169999999999163e+00 7.196200000000000374e-01 2.039499999999999869e+00 1.706782000000000110e+01 -1.053050000000000042e+00 5.092500000000000249e+00 1.709009999999999962e+01 -2.823690000000000033e+00 8.128909999999999414e+00 1.706559999999999988e+01 4.231849999999999667e+00 2.038440000000000030e+00 1.708907999999999916e+01 2.444929999999999826e+00 5.069779999999999731e+00 1.708622000000000085e+01 6.886900000000000244e-01 8.118869999999999365e+00 1.707707999999999871e+01 7.748249999999999638e+00 2.037729999999999819e+00 1.708254000000000161e+01 5.983830000000000204e+00 5.086409999999999876e+00 1.709857999999999834e+01 4.211719999999999686e+00 8.112600000000000477e+00 1.707873999999999981e+01 1.389999999999999916e-02 2.033770000000000078e+00 1.292309999999999981e+01 -1.749049999999999994e+00 5.086439999999999628e+00 1.292774999999999963e+01 -3.536059999999999981e+00 8.140530000000000044e+00 1.290923000000000087e+01 3.525949999999999918e+00 2.027089999999999836e+00 1.290971000000000046e+01 1.762950000000000017e+00 5.082930000000000170e+00 1.294191999999999965e+01 -8.500000000000000611e-03 8.132830000000000226e+00 1.292065000000000019e+01 7.036150000000000126e+00 2.043740000000000112e+00 1.292651000000000039e+01 5.290689999999999671e+00 5.085790000000000255e+00 1.291600999999999999e+01 3.507239999999999913e+00 8.117710000000000647e+00 1.292188999999999943e+01 6.983399999999999608e-01 2.038749999999999840e+00 2.070868000000000109e+01 -1.056440000000000046e+00 5.087640000000000384e+00 2.069574000000000069e+01 -2.817540000000000155e+00 8.120050000000000878e+00 2.068824000000000041e+01 4.226440000000000197e+00 2.035590000000000011e+00 2.069525000000000148e+01 2.467159999999999798e+00 5.070389999999999731e+00 2.068204000000000065e+01 7.120800000000000463e-01 8.119320000000000093e+00 2.070145000000000124e+01 7.745580000000000354e+00 2.034839999999999982e+00 2.071179000000000059e+01 5.978360000000000340e+00 5.097360000000000113e+00 2.068772999999999840e+01 4.211179999999999701e+00 8.122709999999999653e+00 2.070414999999999850e+01 5.281460000000000043e+00 9.136340000000000572e+00 1.112021000000000015e+01 -1.758760000000000101e+00 3.047250000000000014e+00 1.109313000000000038e+01 7.022840000000000416e+00 6.108150000000000190e+00 1.109417999999999971e+01 3.517370000000000108e+00 2.506999999999999854e-02 1.111317999999999984e+01 1.756199999999999983e+00 3.045049999999999812e+00 1.111585999999999963e+01 5.029999999999999749e-03 6.087609999999999744e+00 1.111506999999999934e+01 1.766650000000000054e+00 9.144909999999999428e+00 1.111827000000000076e+01 5.275369999999999671e+00 3.053539999999999921e+00 1.111059000000000019e+01 3.526390000000000136e+00 6.102640000000000065e+00 1.110429000000000066e+01 -4.581489999999999618e+00 9.139179999999999637e+00 1.891762999999999906e+01 -1.040529999999999955e+00 3.035079999999999778e+00 1.886846999999999852e+01 -2.816310000000000091e+00 6.113109999999999822e+00 1.888890999999999920e+01 4.225769999999999804e+00 1.375999999999999966e-02 1.888506999999999891e+01 2.471200000000000063e+00 3.047639999999999905e+00 1.890623000000000076e+01 7.020800000000000374e-01 6.086380000000000123e+00 1.888423999999999836e+01 2.481230000000000047e+00 9.123060000000000613e+00 1.887164999999999893e+01 5.979140000000000121e+00 3.041129999999999889e+00 1.889667000000000030e+01 4.230529999999999902e+00 6.085530000000000328e+00 1.890298999999999907e+01