-3.346180465300000151e+02
-3.346141999600000076e+02
-3.346042544900000166e+02
-3.345879028499999777e+02
-3.345657521100000054e+02
-3.345384121999999820e+02
-3.345066207899999995e+02
-3.344711460699999748e+02
-3.344330780500000060e+02
-3.343931748599999878e+02
-3.334588783799999874e+02
-3.334608088499999781e+02
-3.334628800500000239e+02
-3.334652780499999949e+02
-3.334681467400000088e+02
-3.334714172299999859e+02
-3.334752123100000176e+02
-3.334798114899999746e+02
-3.334851260099999877e+02
-3.334913619700000140e+02
-3.338484035100000256e+02
-3.338512163699999746e+02
-3.338495602699999836e+02
-3.338434910799999784e+02
-3.338331152700000075e+02
-3.338187163100000134e+02
-3.338006153700000027e+02
-3.337794931399999996e+02
-3.337559274399999936e+02
-3.337306163100000163e+02
-3.337019516299999964e+02
-3.336944030099999736e+02
-3.336824831000000131e+02
-3.336668389199999751e+02
-3.336479756800000018e+02
-3.336264515899999878e+02
-3.336026947099999802e+02
-3.335771520100000203e+02
-3.335504075100000136e+02
-3.335226621599999817e+02
-3.338024767300000235e+02
-3.337966875700000173e+02
-3.337901351300000101e+02
-3.337832450299999891e+02
-3.337759321500000169e+02
-3.337683761200000276e+02
-3.337607222500000148e+02
-3.337528183599999920e+02
-3.337452274600000237e+02
-3.337381903099999931e+02
-3.343961153199999785e+02
-3.343972439500000178e+02
-3.343932284900000127e+02
-3.343841861500000050e+02
-3.343700604699999985e+02
-3.343512935599999878e+02
-3.343282724200000189e+02
-3.343015614700000242e+02
-3.342717484899999931e+02
-3.342393423199999916e+02
-3.339314946599999985e+02
-3.339260849799999846e+02
-3.339176090799999770e+02
-3.339061842400000160e+02
-3.338923368600000003e+02
-3.338764990199999829e+02
-3.338590656800000147e+02
-3.338407413499999734e+02
-3.338220132000000149e+02
-3.338036462300000267e+02
-3.338171866299999806e+02
-3.338161961900000279e+02
-3.338147962099999972e+02
-3.338131686799999898e+02
-3.338115215500000090e+02
-3.338101114699999812e+02
-3.338090659299999743e+02
-3.338091342700000155e+02
-3.338103151799999750e+02
-3.338127591699999925e+02
-3.327939771999999721e+02
-3.327963225099999818e+02
-3.328003399099999911e+02
-3.328059358200000020e+02
-3.328130620900000167e+02
-3.328221105499999908e+02
-3.328333772199999885e+02
-3.328466869100000167e+02
-3.328622548899999742e+02
-3.328798437099999887e+02
-3.341243494600000190e+02
-3.341211193699999740e+02
-3.341146147900000187e+02
-3.341048022400000264e+02
-3.340923110900000097e+02
-3.340772285699999884e+02
-3.340597503600000096e+02
-3.340404403900000148e+02
-3.340198582500000271e+02
-3.339986383500000215e+02
-3.340742233799999781e+02
-3.340722461400000043e+02
-3.340660987100000057e+02
-3.340558667000000241e+02
-3.340418230700000208e+02
-3.340247531200000140e+02
-3.340052146699999867e+02
-3.339832930399999782e+02
-3.339596546899999794e+02
-3.339346745899999860e+02
-3.341711400199999957e+02
-3.341688872500000116e+02
-3.341631108700000254e+02
-3.341539485800000193e+02
-3.341416060399999992e+02
-3.341265201300000172e+02
-3.341090338700000189e+02
-3.340900307200000157e+02
-3.340700529200000233e+02
-3.340494259000000170e+02
-3.331441699399999834e+02
-3.331425773000000277e+02
-3.331414847400000099e+02
-3.331410235800000237e+02
-3.331420212200000037e+02
-3.331444269699999836e+02
-3.331487668099999837e+02
-3.331555358200000114e+02
-3.331649343199999862e+02
-3.331777132899999856e+02
-3.332537026499999797e+02
-3.332464334000000008e+02
-3.332405631699999731e+02
-3.332361824600000091e+02
-3.332331597300000112e+02
-3.332315352400000279e+02
-3.332317357700000002e+02
-3.332337174599999798e+02
-3.332371764800000165e+02
-3.332424241300000176e+02
-3.338847846699999877e+02
-3.338811454300000037e+02
-3.338772302200000013e+02
-3.338730002400000103e+02
-3.338687153399999943e+02
-3.338640735700000164e+02
-3.338592892199999937e+02
-3.338547956099999965e+02
-3.338507205000000226e+02
-3.338472475199999963e+02
-3.337695512399999984e+02
-3.337736835800000108e+02
-3.337762800699999843e+02
-3.337774109700000054e+02
-3.337771731700000259e+02
-3.337756675599999880e+02
-3.337727430799999979e+02
-3.337686853800000222e+02
-3.337641114400000220e+02
-3.337591705400000137e+02
-3.339182605600000215e+02
-3.339248490800000013e+02
-3.339269870800000035e+02
-3.339246842300000253e+02
-3.339179168000000004e+02
-3.339070634099999779e+02
-3.338923867999999970e+02
-3.338741882799999985e+02
-3.338528636099999858e+02
-3.338290561100000104e+02
-3.334014865199999917e+02
-3.333992593799999895e+02
-3.333931152700000098e+02
-3.333831453199999828e+02
-3.333698314299999765e+02
-3.333535589200000118e+02
-3.333351650000000177e+02
-3.333152658399999950e+02
-3.332947006599999895e+02
-3.332744038000000160e+02
-3.343781024900000034e+02
-3.343766950199999997e+02
-3.343704784600000153e+02
-3.343595836299999746e+02
-3.343443675600000233e+02
-3.343250512000000185e+02
-3.343023911999999882e+02
-3.342770159300000046e+02
-3.342493438000000197e+02
-3.342204632500000230e+02
-3.331651808199999891e+02
-3.331611404500000049e+02
-3.331523739400000181e+02
-3.331394070800000122e+02
-3.331226910500000145e+02
-3.331028587600000037e+02
-3.330805347500000266e+02
-3.330567707700000142e+02
-3.330319628299999977e+02
-3.330072062799999912e+02
-3.340550954099999785e+02
-3.340577965300000187e+02
-3.340559680599999979e+02
-3.340499435199999994e+02
-3.340397061300000132e+02
-3.340255340499999761e+02
-3.340081731600000126e+02
-3.339878605499999935e+02
-3.339656586199999992e+02
-3.339422013700000207e+02
-3.339663271399999758e+02
-3.339766933899999799e+02
-3.339850115300000084e+02
-3.339911298700000089e+02
-3.339952802999999903e+02
-3.339975909400000091e+02
-3.339985431499999891e+02
-3.339986160799999766e+02
-3.339983260100000280e+02
-3.339978856999999834e+02
-3.338309612400000219e+02
-3.338415835199999719e+02
-3.338517718200000104e+02
-3.338613975000000096e+02
-3.338702122999999915e+02
-3.338782994399999779e+02
-3.338856127600000150e+02
-3.338919669200000158e+02
-3.338974824699999999e+02
-3.339022668700000054e+02
-3.344443691600000079e+02
-3.344396555299999818e+02
-3.344291332799999736e+02
-3.344127341899999806e+02
-3.343910236500000224e+02
-3.343644212199999970e+02
-3.343335727099999986e+02
-3.342992335800000205e+02
-3.342622334299999807e+02
-3.342232322899999986e+02
-3.340928203199999871e+02
-3.340962886500000195e+02
-3.340954555600000049e+02
-3.340904507100000274e+02
-3.340813810899999794e+02
-3.340686841400000162e+02
-3.340526231200000211e+02
-3.340337835700000255e+02
-3.340127153299999918e+02
-3.339901253300000121e+02
-3.329330502899999829e+02
-3.329520494899999790e+02
-3.329756406600000105e+02
-3.330038413400000081e+02
-3.330365508099999943e+02
-3.330732327100000134e+02
-3.331138218799999891e+02
-3.331580654100000061e+02
-3.332055146600000057e+02
-3.332559230100000036e+02
-3.344939370800000233e+02
-3.344916002699999922e+02
-3.344850150099999837e+02
-3.344740109300000199e+02
-3.344594417100000214e+02
-3.344415594600000077e+02
-3.344211116100000254e+02
-3.343985184900000149e+02
-3.343747548900000197e+02
-3.343504588499999954e+02
-3.341178913599999873e+02
-3.341208245199999851e+02
-3.341225579499999867e+02
-3.341227909199999999e+02
-3.341217497000000094e+02
-3.341196350899999743e+02
-3.341166770500000212e+02
-3.341128826500000173e+02
-3.341085642799999960e+02
-3.341038515700000175e+02
-3.332031095599999730e+02
-3.332000611500000105e+02
-3.332006021000000260e+02
-3.332048262900000282e+02
-3.332126431600000274e+02
-3.332238252299999886e+02
-3.332385487199999829e+02
-3.332564341600000262e+02
-3.332772943300000179e+02
-3.333008458400000222e+02
-3.344966489899999829e+02
-3.344952694500000234e+02
-3.344876425200000085e+02
-3.344739595300000019e+02
-3.344548281200000019e+02
-3.344305871299999922e+02
-3.344021633400000155e+02
-3.343702535300000136e+02
-3.343354797900000221e+02
-3.342989420499999937e+02
-3.342314596300000176e+02
-3.342320867799999746e+02
-3.342300493100000267e+02
-3.342254824199999916e+02
-3.342187796100000128e+02
-3.342103044799999907e+02
-3.342001133200000140e+02
-3.341887832400000207e+02
-3.341766643000000272e+02
-3.341641431900000043e+02
-3.334624504999999886e+02
-3.334589260100000274e+02
-3.334554825000000164e+02
-3.334525248900000065e+02
-3.334506178299999988e+02
-3.334498670099999913e+02
-3.334506051100000263e+02
-3.334535980499999823e+02
-3.334589192899999830e+02
-3.334670781099999886e+02
-3.322865552200000252e+02
-3.322839813800000002e+02
-3.322879323600000134e+02
-3.322985488900000064e+02
-3.323158228099999860e+02
-3.323396005299999842e+02
-3.323701581500000088e+02
-3.324072659299999941e+02
-3.324507604799999854e+02
-3.325002046999999834e+02
-3.335597374999999829e+02
-3.335644522200000210e+02
-3.335669656700000019e+02
-3.335672087199999964e+02
-3.335653422500000147e+02
-3.335615460199999802e+02
-3.335561560300000110e+02
-3.335491706000000249e+02
-3.335411568399999851e+02
-3.335324451000000181e+02
-3.345059089700000072e+02
-3.344959136400000261e+02
-3.344812324800000169e+02
-3.344621525700000007e+02
-3.344391123400000083e+02
-3.344129368200000272e+02
-3.343839934200000243e+02
-3.343532767500000205e+02
-3.343212473500000215e+02
-3.342883888100000149e+02
-3.338618593300000157e+02
-3.338666615999999863e+02
-3.338674926599999822e+02
-3.338644208299999718e+02
-3.338574719700000060e+02
-3.338472115800000211e+02
-3.338337076299999922e+02
-3.338173608700000159e+02
-3.337987588199999891e+02
-3.337783909099999846e+02
-3.340183463399999937e+02
-3.340135840300000041e+02
-3.340063644499999782e+02
-3.339970768700000008e+02
-3.339861279799999920e+02
-3.339735876999999959e+02
-3.339598428300000137e+02
-3.339452802800000200e+02
-3.339304199900000185e+02
-3.339156572200000141e+02
-3.342307456400000092e+02
-3.342322660699999801e+02
-3.342307393300000058e+02
-3.342259891900000071e+02
-3.342181220599999847e+02
-3.342077696800000126e+02
-3.341950513099999966e+02
-3.341807322399999975e+02
-3.341650521400000002e+02
-3.341486269200000265e+02
-3.331143553300000235e+02
-3.331133140599999933e+02
-3.331090738999999985e+02
-3.331018487000000050e+02
-3.330917807100000232e+02
-3.330795414300000061e+02
-3.330654668600000150e+02
-3.330498465300000248e+02
-3.330335505699999885e+02
-3.330170110600000157e+02
-3.343272533200000112e+02
-3.343302736599999889e+02
-3.343287061099999846e+02
-3.343228066500000182e+02
-3.343130584699999872e+02
-3.342996682200000009e+02
-3.342831362800000079e+02
-3.342639796799999772e+02
-3.342431407299999933e+02
-3.342211112499999786e+02
-3.338831019599999763e+02
-3.338756513000000155e+02
-3.338646003200000223e+02
-3.338502143599999954e+02
-3.338327419999999961e+02
-3.338128064499999823e+02
-3.337909299600000281e+02
-3.337677409600000260e+02
-3.337439438399999858e+02
-3.337205883099999824e+02
-3.340973566100000198e+02
-3.340918795499999874e+02
-3.340842360500000154e+02
-3.340748745999999869e+02
-3.340639607100000035e+02
-3.340517016499999841e+02
-3.340388990999999805e+02
-3.340257861000000048e+02
-3.340127909400000021e+02
-3.340003534400000262e+02
-3.336875141500000268e+02
-3.336968311200000130e+02
-3.337055078399999957e+02
-3.337137046000000282e+02
-3.337215768400000115e+02
-3.337291209800000047e+02
-3.337364693200000261e+02
-3.337437756599999830e+02
-3.337514426899999762e+02
-3.337598985700000185e+02
-3.340566948200000184e+02
-3.340561081700000159e+02
-3.340523937799999885e+02
-3.340457195299999853e+02
-3.340363408700000036e+02
-3.340243298999999979e+02
-3.340100011800000175e+02
-3.339938283700000170e+02
-3.339760408500000040e+02
-3.339573001699999963e+02
-3.337733502699999804e+02
-3.337698127900000031e+02
-3.337640369200000237e+02
-3.337563616900000056e+02
-3.337472944400000188e+02
-3.337371682599999758e+02
-3.337264750699999922e+02
-3.337156823700000245e+02
-3.337055196100000103e+02
-3.336960920399999964e+02
-3.338860901699999886e+02
-3.338870547000000215e+02
-3.338875941499999840e+02
-3.338876356900000246e+02
-3.338872796200000153e+02
-3.338867106199999739e+02
-3.338860994199999936e+02
-3.338856747899999959e+02
-3.338853902399999924e+02
-3.338856697699999927e+02
-3.338968962499999975e+02
-3.338869274200000064e+02
-3.338743193799999744e+02
-3.338591847299999813e+02
-3.338417081399999802e+02
-3.338222606300000166e+02
-3.338013631100000111e+02
-3.337796090900000081e+02
-3.337575299399999835e+02
-3.337355402900000172e+02
-3.341148222499999747e+02
-3.341200218600000085e+02
-3.341234949999999913e+02
-3.341252611300000126e+02
-3.341254086100000222e+02
-3.341239624500000218e+02
-3.341210091600000283e+02
-3.341167811099999767e+02
-3.341114754500000004e+02
-3.341050826200000188e+02
-3.343822402800000191e+02
-3.343780633999999736e+02
-3.343705214700000283e+02
-3.343598850999999854e+02
-3.343462320300000101e+02
-3.343300231399999802e+02
-3.343116335400000025e+02
-3.342916316499999994e+02
-3.342704008599999952e+02
-3.342485378900000228e+02
-3.340232247600000051e+02
-3.340191558600000121e+02
-3.340114600200000154e+02
-3.340003316099999893e+02
-3.339858717800000250e+02
-3.339683077600000161e+02
-3.339483392999999865e+02
-3.339262916399999881e+02
-3.339024248900000202e+02
-3.338775253100000100e+02
-3.330710716899999966e+02
-3.330693937099999857e+02
-3.330645791499999859e+02
-3.330566512500000158e+02
-3.330460812900000178e+02
-3.330332709300000147e+02
-3.330185322400000132e+02
-3.330024901500000283e+02
-3.329856000899999913e+02
-3.329683655300000282e+02
-3.335032426600000122e+02
-3.335094395799999916e+02
-3.335133518700000081e+02
-3.335151483800000278e+02
-3.335149117600000181e+02
-3.335127518699999882e+02
-3.335088143599999739e+02
-3.335037631600000054e+02
-3.334978706300000226e+02
-3.334917098500000066e+02
-3.338414195999999947e+02
-3.338385383500000216e+02
-3.338328729099999919e+02
-3.338245921399999929e+02
-3.338139342399999805e+02
-3.338011831599999937e+02
-3.337866606499999875e+02
-3.337709172899999999e+02
-3.337543128199999956e+02
-3.337376280199999883e+02
-3.324405506499999774e+02
-3.324469091299999945e+02
-3.324524536399999874e+02
-3.324574282400000129e+02
-3.324622470099999987e+02
-3.324670448300000203e+02
-3.324722401700000205e+02
-3.324781097300000283e+02
-3.324848643600000173e+02
-3.324930407100000025e+02
-3.339200643699999773e+02
-3.339202298800000221e+02
-3.339171184599999833e+02
-3.339109181599999943e+02
-3.339015753699999891e+02
-3.338897471299999893e+02
-3.338759009899999910e+02
-3.338604846000000066e+02
-3.338440259700000183e+02
-3.338271252100000197e+02
-3.334880688200000236e+02
-3.334837367599999993e+02
-3.334774754599999937e+02
-3.334694452400000273e+02
-3.334597789300000272e+02
-3.334484915200000046e+02
-3.334359647800000062e+02
-3.334224371399999995e+02
-3.334085682200000065e+02
-3.333948399199999812e+02
-3.333222881500000199e+02
-3.333378068999999755e+02
-3.333539012900000102e+02
-3.333706201400000282e+02
-3.333880838599999947e+02
-3.334064725200000225e+02
-3.334259165700000267e+02
-3.334466840000000047e+02
-3.334688272600000118e+02
-3.334923056100000167e+02
-3.336246909199999777e+02
-3.336242235500000106e+02
-3.336194277899999747e+02
-3.336106930299999931e+02
-3.335980206699999826e+02
-3.335819719899999996e+02
-3.335626172600000245e+02
-3.335407915700000103e+02
-3.335170228700000052e+02
-3.334918228000000227e+02
-3.339213570000000004e+02
-3.339204584099999806e+02
-3.339187696700000174e+02
-3.339163669800000207e+02
-3.339134294400000158e+02
-3.339099582000000055e+02
-3.339060770099999900e+02
-3.339018066200000021e+02
-3.338975829899999894e+02
-3.338938360299999886e+02
-3.332084540600000082e+02
-3.332206961300000216e+02
-3.332338627899999892e+02
-3.332480695599999763e+02
-3.332627348699999743e+02
-3.332778489599999716e+02
-3.332936805599999843e+02
-3.333099427099999730e+02
-3.333261458000000061e+02
-3.333426629800000001e+02
-3.338328570499999728e+02
-3.338213525099999970e+02
-3.338064661299999898e+02
-3.337886074900000040e+02
-3.337683507200000008e+02
-3.337461820099999841e+02
-3.337228431699999760e+02
-3.336988789200000269e+02
-3.336749505099999737e+02
-3.336518093999999905e+02
-3.340054249300000038e+02
-3.339992390200000045e+02
-3.339903543099999865e+02
-3.339787910699999998e+02
-3.339646615300000008e+02
-3.339486017500000230e+02
-3.339309969500000079e+02
-3.339125912399999834e+02
-3.338938784399999804e+02
-3.338754714199999967e+02
-3.333799862100000269e+02
-3.333831982599999719e+02
-3.333876033999999891e+02
-3.333932980600000064e+02
-3.334001654099999996e+02
-3.334084224499999891e+02
-3.334181072100000165e+02
-3.334290894399999843e+02
-3.334415091800000255e+02
-3.334550878900000157e+02
-3.335113576499999795e+02
-3.335088762299999985e+02
-3.335062535499999967e+02
-3.335032735799999841e+02
-3.335000975899999958e+02
-3.334968292199999951e+02
-3.334935987100000148e+02
-3.334904874299999733e+02
-3.334879586999999788e+02
-3.334860056200000145e+02
-3.342722179300000107e+02
-3.342687728199999810e+02
-3.342618065799999840e+02
-3.342514565399999924e+02
-3.342381323000000179e+02
-3.342218961599999716e+02
-3.342035045000000082e+02
-3.341831663699999808e+02
-3.341612402800000154e+02
-3.341381185600000094e+02
-3.334006891600000131e+02
-3.333993158999999764e+02
-3.333994436099999916e+02
-3.334010784999999828e+02
-3.334048876900000096e+02
-3.334104223699999920e+02
-3.334176953900000058e+02
-3.334266943800000149e+02
-3.334373120800000265e+02
-3.334498496499999760e+02
-3.338431916600000022e+02
-3.338449653900000271e+02
-3.338442435399999795e+02
-3.338410815500000126e+02
-3.338355731400000082e+02
-3.338278730900000255e+02
-3.338183420299999966e+02
-3.338072648500000241e+02
-3.337950442800000133e+02
-3.337821096100000204e+02
-3.333519895800000086e+02
-3.333492735500000208e+02
-3.333449549499999875e+02
-3.333393288099999836e+02
-3.333324511000000143e+02
-3.333248548299999925e+02
-3.333170670299999756e+02
-3.333096417099999940e+02
-3.333031341600000133e+02
-3.332981592900000010e+02
-3.337891496400000051e+02
-3.337969161099999837e+02
-3.338037103500000171e+02
-3.338094375700000001e+02
-3.338141926600000033e+02
-3.338174814600000104e+02
-3.338199022900000159e+02
-3.338213514199999850e+02
-3.338219194800000196e+02
-3.338216937999999914e+02
-3.340261223399999722e+02
-3.340292570999999953e+02
-3.340289477599999941e+02
-3.340251720300000216e+02
-3.340184481000000005e+02
-3.340090958000000114e+02
-3.339976228200000037e+02
-3.339847251400000232e+02
-3.339710030300000199e+02
-3.339573631499999919e+02
-3.340899604200000113e+02
-3.340959657299999890e+02
-3.340990503400000193e+02
-3.340995408100000077e+02
-3.340973342699999762e+02
-3.340930864399999791e+02
-3.340868694999999775e+02
-3.340791180599999848e+02
-3.340700309900000207e+02
-3.340603712600000108e+02
-3.339185982899999772e+02
-3.339198112199999855e+02
-3.339199571500000161e+02
-3.339185361500000226e+02
-3.339159243299999957e+02
-3.339121313699999973e+02
-3.339072662500000206e+02
-3.339016384799999742e+02
-3.338955658300000096e+02
-3.338891516900000056e+02
-3.342052684199999817e+02
-3.342027805899999748e+02
-3.341959192599999824e+02
-3.341847281500000122e+02
-3.341698226999999974e+02
-3.341515763699999866e+02
-3.341305211100000179e+02
-3.341072033099999885e+02
-3.340825839199999905e+02
-3.340570785500000284e+02
-3.340148739900000123e+02
-3.340067328399999838e+02
-3.339954291399999988e+02
-3.339814283399999795e+02
-3.339651383500000179e+02
-3.339470463999999765e+02
-3.339277083700000048e+02
-3.339076435900000206e+02
-3.338875170000000026e+02
-3.338680048499999771e+02
-3.339767726399999788e+02
-3.339798670999999786e+02
-3.339816308200000208e+02
-3.339819431799999734e+02
-3.339809119000000237e+02
-3.339788238500000261e+02
-3.339759412399999974e+02
-3.339730011300000001e+02
-3.339704104200000074e+02
-3.339685813599999733e+02
-3.343359290600000122e+02
-3.343378406200000086e+02
-3.343356906899999785e+02
-3.343292767099999878e+02
-3.343188810099999841e+02
-3.343046712199999888e+02
-3.342871861200000012e+02
-3.342668697999999949e+02
-3.342440875199999937e+02
-3.342195625400000267e+02
-3.342342350800000190e+02
-3.342358465899999942e+02
-3.342334918199999834e+02
-3.342271999399999913e+02
-3.342170624999999973e+02
-3.342036299700000086e+02
-3.341874325900000144e+02
-3.341689657599999919e+02
-3.341487538399999835e+02
-3.341275978400000213e+02
-3.338077539999999885e+02
-3.338058038600000259e+02
-3.338039551499999789e+02
-3.338024459399999841e+02
-3.338016632900000218e+02
-3.338020944900000018e+02
-3.338039595800000257e+02
-3.338076602099999945e+02
-3.338134423700000184e+02
-3.338213714199999913e+02
-3.334164956299999858e+02
-3.334193688799999791e+02
-3.334225774700000215e+02
-3.334259528499999874e+02
-3.334295251500000177e+02
-3.334332061499999895e+02
-3.334370513800000140e+02
-3.334409882200000084e+02
-3.334451736299999993e+02
-3.334494033999999942e+02
-3.341923233200000141e+02
-3.341886355799999819e+02
-3.341799538399999960e+02
-3.341664219400000206e+02
-3.341485526299999833e+02
-3.341268605800000273e+02
-3.341021452200000112e+02
-3.340749879100000044e+02
-3.340464676000000281e+02
-3.340174658600000157e+02
-3.320422949300000255e+02
-3.320428407599999900e+02
-3.320434372199999871e+02
-3.320442630499999837e+02
-3.320455727799999863e+02
-3.320474638100000107e+02
-3.320503267500000106e+02
-3.320546292999999878e+02
-3.320610401100000217e+02
-3.320698863999999730e+02
-3.334942380699999944e+02
-3.335023787299999753e+02
-3.335091732399999955e+02
-3.335148470500000144e+02
-3.335195186400000011e+02
-3.335230716199999961e+02
-3.335259034599999950e+02
-3.335284171700000115e+02
-3.335310316100000136e+02
-3.335339755100000048e+02
-3.335647220899999752e+02
-3.335609839900000111e+02
-3.335515993500000036e+02
-3.335367768799999908e+02
-3.335169215099999747e+02
-3.334926526300000091e+02
-3.334647068799999943e+02
-3.334337768899999901e+02
-3.334005268000000228e+02
-3.333660170100000073e+02
-3.337959516899999812e+02
-3.337938709200000176e+02
-3.337918182600000137e+02
-3.337896377399999892e+02
-3.337875009900000123e+02
-3.337858130500000016e+02
-3.337845970399999942e+02
-3.337840851500000099e+02
-3.337840790600000105e+02
-3.337848361999999725e+02
-3.341831500999999776e+02
-3.341821193100000187e+02
-3.341760245400000144e+02
-3.341651038900000117e+02
-3.341498343499999919e+02
-3.341306096800000205e+02
-3.341081054100000074e+02
-3.340830826700000102e+02
-3.340563829199999759e+02
-3.340287266400000021e+02
-3.337036486499999910e+02
-3.337035298000000125e+02
-3.337015852600000017e+02
-3.336981061100000261e+02
-3.336931265200000212e+02
-3.336869040899999845e+02
-3.336800190199999747e+02
-3.336727399700000092e+02
-3.336653462599999784e+02
-3.336583452799999918e+02
-3.337383443499999771e+02
-3.337304065600000058e+02
-3.337178399100000092e+02
-3.337011125199999810e+02
-3.336808013099999926e+02
-3.336571876099999940e+02
-3.336310965200000282e+02
-3.336031845900000121e+02
-3.335741973199999961e+02
-3.335447508400000061e+02
-3.340807706200000098e+02
-3.340841449499999953e+02
-3.340830402099999787e+02
-3.340772629699999925e+02
-3.340668368199999918e+02
-3.340523536499999864e+02
-3.340341611700000044e+02
-3.340126123200000166e+02
-3.339884382700000174e+02
-3.339622024500000066e+02
-3.337576848699999914e+02
-3.337483570499999814e+02
-3.337383840900000109e+02
-3.337280640899999753e+02
-3.337174351400000205e+02
-3.337067436799999882e+02
-3.336963433199999827e+02
-3.336864449500000092e+02
-3.336773247699999843e+02
-3.336688443300000131e+02
-3.338191664099999798e+02
-3.338226269499999717e+02
-3.338207059999999728e+02
-3.338136809399999834e+02
-3.338015424399999915e+02
-3.337849623299999848e+02
-3.337645373600000198e+02
-3.337405783699999802e+02
-3.337141579299999989e+02
-3.336858843300000217e+02
-3.327362292099999763e+02
-3.327378768500000206e+02
-3.327371392700000001e+02
-3.327340359899999953e+02
-3.327286798900000235e+02
-3.327216001200000051e+02
-3.327128809700000147e+02
-3.327028647500000034e+02
-3.326920635500000003e+02
-3.326808475500000100e+02
-3.332461813400000210e+02
-3.332407786100000067e+02
-3.332353782499999966e+02
-3.332302238099999840e+02
-3.332257748299999776e+02
-3.332222193999999718e+02
-3.332200872799999729e+02
-3.332198699200000078e+02
-3.332217760400000088e+02
-3.332261191399999802e+02
-3.336788029200000096e+02
-3.336818791000000033e+02
-3.336834587199999760e+02
-3.336836993699999994e+02
-3.336826170699999921e+02
-3.336807440399999791e+02
-3.336779755200000182e+02
-3.336751148499999999e+02
-3.336726078199999961e+02
-3.336711493199999836e+02
-3.335802265099999886e+02
-3.335785244599999828e+02
-3.335720373999999993e+02
-3.335609491499999990e+02
-3.335457764199999815e+02
-3.335268456300000253e+02
-3.335045232800000008e+02
-3.334794983799999954e+02
-3.334525137200000131e+02
-3.334244994700000007e+02
-3.343155463599999848e+02
-3.343069925899999930e+02
-3.342944171999999980e+02
-3.342786154199999942e+02
-3.342593962199999851e+02
-3.342375369599999999e+02
-3.342137218600000210e+02
-3.341881975900000157e+02
-3.341618398100000036e+02
-3.341351808800000072e+02
-3.336822698199999877e+02
-3.336828651000000150e+02
-3.336803767299999777e+02
-3.336748971299999766e+02
-3.336666963499999952e+02
-3.336557298199999764e+02
-3.336424319500000024e+02
-3.336272150699999770e+02
-3.336103751699999975e+02
-3.335924509199999761e+02
-3.332515179100000182e+02
-3.332595563900000002e+02
-3.332674558499999762e+02
-3.332750277800000163e+02
-3.332823905100000275e+02
-3.332897338199999808e+02
-3.332971926399999916e+02
-3.333049497700000074e+02
-3.333131690999999819e+02
-3.333221256599999833e+02
-3.337157422700000211e+02
-3.337213474800000199e+02
-3.337230361300000254e+02
-3.337210029400000053e+02
-3.337151644699999906e+02
-3.337055832799999848e+02
-3.336924183699999844e+02
-3.336761891300000116e+02
-3.336572975700000256e+02
-3.336360110900000109e+02
-3.326495291800000018e+02
-3.326551418099999751e+02
-3.326615398199999731e+02
-3.326689703200000281e+02
-3.326772616599999992e+02
-3.326867001100000039e+02
-3.326974543800000106e+02
-3.327098076099999844e+02
-3.327241728800000260e+02
-3.327409809399999858e+02
-3.331579929800000173e+02
-3.331625626000000011e+02
-3.331701051900000152e+02
-3.331806887700000175e+02
-3.331941914999999881e+02
-3.332102563899999836e+02
-3.332283928900000092e+02
-3.332486884300000156e+02
-3.332711576500000206e+02
-3.332952624199999718e+02
