6.179999999999999513e-04 2.469999999999999865e-04 -1.026700000000000008e-02 6.040000000000000447e-04 2.480000000000000108e-04 -1.026900000000000035e-02 6.089999999999999494e-04 2.460000000000000164e-04 -1.026400000000000055e-02 5.950000000000000427e-04 2.439999999999999949e-04 -1.024599999999999990e-02 6.099999999999999737e-04 2.339999999999999958e-04 -1.024800000000000016e-02 6.049999999999999606e-04 2.449999999999999921e-04 -1.025399999999999923e-02 5.879999999999999810e-04 2.300000000000000070e-04 -1.026900000000000035e-02 5.879999999999999810e-04 2.380000000000000117e-04 -1.026099999999999929e-02 5.890000000000000053e-04 2.310000000000000042e-04 -1.026400000000000055e-02 1.918999999999999873e-02 -5.569999999999999864e-04 -1.148500000000000042e-02 1.918900000000000119e-02 -5.529999999999999976e-04 -1.148399999999999942e-02 1.919200000000000073e-02 -5.519999999999999733e-04 -1.148099999999999989e-02 1.919300000000000173e-02 -5.559999999999999621e-04 -1.148500000000000042e-02 1.918900000000000119e-02 -5.519999999999999733e-04 -1.148500000000000042e-02 1.919099999999999973e-02 -5.479999999999999845e-04 -1.148399999999999942e-02 1.918999999999999873e-02 -5.569999999999999864e-04 -1.148500000000000042e-02 1.919500000000000026e-02 -5.550000000000000462e-04 -1.148500000000000042e-02 1.918900000000000119e-02 -5.469999999999999602e-04 -1.148199999999999915e-02 -1.914400000000000129e-02 -5.330000000000000536e-04 1.156000000000000083e-02 -1.915999999999999995e-02 -5.320000000000000293e-04 1.156199999999999936e-02 -1.915499999999999842e-02 -5.370000000000000424e-04 1.155400000000000003e-02 -1.916800000000000101e-02 -5.349999999999999938e-04 1.153500000000000011e-02 -1.915199999999999889e-02 -5.450000000000000200e-04 1.153700000000000038e-02 -1.915899999999999895e-02 -5.330000000000000536e-04 1.154099999999999918e-02 -1.917800000000000060e-02 -5.490000000000000088e-04 1.155899999999999983e-02 -1.917800000000000060e-02 -5.429999999999999714e-04 1.154900000000000024e-02 -1.917599999999999860e-02 -5.500000000000000331e-04 1.155499999999999930e-02 -5.710000000000000015e-04 2.229999999999999994e-04 1.016199999999999916e-02 -5.689999999999999529e-04 2.269999999999999882e-04 1.016000000000000063e-02 -5.680000000000000370e-04 2.269999999999999882e-04 1.016000000000000063e-02 -5.649999999999999641e-04 2.220000000000000022e-04 1.016000000000000063e-02 -5.710000000000000015e-04 2.259999999999999910e-04 1.016099999999999989e-02 -5.680000000000000370e-04 2.300000000000000070e-04 1.015899999999999963e-02 -5.699999999999999772e-04 2.239999999999999966e-04 1.016099999999999989e-02 -5.640000000000000482e-04 2.249999999999999938e-04 1.015800000000000036e-02 -5.689999999999999529e-04 2.320000000000000014e-04 1.015800000000000036e-02 -7.021000000000000331e-03 3.220000000000000206e-04 -1.072000000000000036e-03 -7.020000000000000198e-03 3.139999999999999888e-04 -1.069999999999999988e-03 -7.028000000000000393e-03 3.209999999999999963e-04 -1.074000000000000085e-03 -7.015999999999999667e-03 3.330000000000000169e-04 -1.082000000000000062e-03 -7.008999999999999606e-03 3.240000000000000150e-04 -1.082999999999999978e-03 -7.007000000000000207e-03 3.249999999999999851e-04 -1.075999999999999917e-03 -7.024999999999999994e-03 3.159999999999999832e-04 -1.075999999999999917e-03 -7.034999999999999587e-03 3.159999999999999832e-04 -1.072999999999999952e-03 -7.027000000000000260e-03 3.139999999999999888e-04 -1.075999999999999917e-03 7.002999999999999677e-03 3.310000000000000225e-04 1.082999999999999978e-03 7.007000000000000207e-03 3.220000000000000206e-04 1.082000000000000062e-03 7.008999999999999606e-03 3.200000000000000262e-04 1.082000000000000062e-03 7.004999999999999942e-03 3.229999999999999907e-04 1.085999999999999943e-03 6.999000000000000013e-03 3.249999999999999851e-04 1.082000000000000062e-03 7.004999999999999942e-03 3.190000000000000019e-04 1.085000000000000027e-03 7.008000000000000340e-03 3.289999999999999739e-04 1.083999999999999894e-03 7.013000000000000136e-03 3.209999999999999963e-04 1.080999999999999930e-03 7.002999999999999677e-03 3.249999999999999851e-04 1.082999999999999978e-03
1.158400000000000055e-02 -4.449999999999999746e-04 -1.273099999999999926e-02 -1.262800000000000034e-02 -7.240000000000000342e-04 -8.966999999999999277e-03 -1.510000000000000057e-02 3.893900000000000139e-02 -1.249899999999999969e-02 -1.506000000000000047e-02 1.712500000000000133e-02 -6.939999999999999988e-03 -2.087699999999999972e-02 -2.027999999999999942e-02 -1.116100000000000078e-02 -7.420000000000000380e-03 -9.629999999999999888e-04 1.063000000000000056e-02 2.678000000000000172e-02 -1.895200000000000010e-02 1.495499999999999954e-02 1.299499999999999961e-02 -8.949000000000000357e-03 -3.192299999999999999e-02 4.742999999999999820e-03 3.734300000000000119e-02 -1.873899999999999871e-02 2.378800000000000012e-02 -3.993100000000000122e-02 1.903200000000000031e-02 4.290000000000000410e-03 -2.019200000000000161e-02 -4.132000000000000256e-02 1.462399999999999985e-02 2.616599999999999829e-02 2.138800000000000076e-02 6.159000000000000412e-03 2.919000000000000154e-03 -3.457500000000000157e-02 5.941599999999999659e-02 4.415999999999999787e-03 -1.654600000000000168e-02 3.947500000000000314e-02 9.213000000000000703e-03 -1.349700000000000032e-02 1.225200000000000074e-02 -2.112800000000000095e-02 -2.000599999999999948e-02 2.081699999999999870e-02 -1.593800000000000078e-02 -3.816900000000000154e-02 6.339699999999999502e-02 3.280000000000000038e-04 -9.908999999999999406e-03 -5.585799999999999793e-02 -3.420999999999999996e-03 4.211000000000000333e-03 -5.441100000000000103e-02 -8.989000000000000462e-03 -3.005800000000000138e-02 1.132299999999999973e-02 -1.707399999999999890e-02 3.422399999999999748e-02 -2.848799999999999943e-02 2.757400000000000129e-02 4.924100000000000005e-02 -9.263999999999999665e-03 -6.414000000000000430e-03 -2.554599999999999926e-02 -1.419600000000000029e-02 -3.065000000000000016e-03 3.811000000000000151e-03 -6.579999999999999478e-04 -6.719000000000000146e-03 -1.038700000000000040e-02 -3.315699999999999897e-02 1.129999999999999955e-04 1.821800000000000155e-02 -1.095999999999999969e-03 1.551100000000000048e-02 2.535700000000000107e-02 4.191000000000000281e-03 -8.503000000000000141e-03 1.028699999999999927e-02 -4.793000000000000385e-03 -2.816799999999999859e-02 -2.847000000000000138e-03 1.702199999999999894e-02 2.882499999999999993e-02 4.678899999999999726e-02 1.714000000000000029e-03 -1.274600000000000039e-02 4.902100000000000207e-02 -1.086799999999999919e-02 1.593899999999999831e-02 6.268100000000000060e-02 -4.185000000000000352e-03 1.362499999999999996e-02 -1.851399999999999921e-02 1.527899999999999918e-02 -2.296799999999999883e-02 -4.508999999999999814e-02 2.497699999999999920e-02 -3.049800000000000080e-02 4.794799999999999757e-02 8.845999999999999697e-03 -3.595999999999999804e-03 2.723000000000000073e-02 -3.182299999999999712e-02 1.469299999999999946e-02 -4.545500000000000235e-02 -1.986500000000000071e-02 3.867999999999999911e-03 5.486300000000000204e-02 6.410899999999999932e-02 -3.299599999999999755e-02 4.784599999999999964e-02 -2.275000000000000112e-03 -7.247399999999999676e-02 -3.352999999999999731e-02 1.973099999999999854e-02 2.085000000000000048e-02 -2.505800000000000041e-02 -1.559999999999999972e-03 3.143200000000000160e-02 -1.257000000000000088e-03 -2.329399999999999873e-02 2.345900000000000069e-02 -2.782499999999999904e-02 -2.481000000000000132e-03 1.918999999999999916e-03 -1.199899999999999925e-02 -3.182000000000000106e-02 -3.113000000000000142e-02 5.304600000000000287e-02 1.508000000000000009e-03 2.059599999999999972e-02 -1.068209999999999993e-01 -2.356000000000000108e-02 4.300299999999999956e-02 7.611999999999999322e-02 1.672500000000000028e-02 -3.182100000000000206e-02 -8.123000000000000012e-03 -4.014000000000000207e-03 -4.370799999999999685e-02 1.238900000000000071e-02 -1.513800000000000041e-02 -2.884400000000000158e-02 -5.478600000000000136e-02 8.253999999999999185e-03 3.068299999999999847e-02 3.116700000000000026e-02 -5.091899999999999898e-02 5.056000000000000077e-02 5.952600000000000252e-02 4.254399999999999848e-02 2.527599999999999986e-02 1.748999999999999904e-03 -4.148299999999999904e-02 3.651599999999999985e-02 -5.774399999999999672e-02
2.248400000000000051e-02 -1.103999999999999947e-03 -1.535700000000000086e-02 -2.563599999999999907e-02 -1.680999999999999986e-03 -7.816000000000000031e-03 -3.060099999999999973e-02 7.753300000000000469e-02 -1.534400000000000000e-02 -3.050900000000000140e-02 3.382999999999999896e-02 -3.864999999999999946e-03 -4.242400000000000337e-02 -4.057299999999999796e-02 -1.214600000000000055e-02 -1.526500000000000079e-02 -2.206000000000000062e-03 3.120099999999999957e-02 5.272899999999999809e-02 -3.765399999999999997e-02 3.961800000000000044e-02 2.543300000000000075e-02 -1.819300000000000084e-02 -5.331999999999999934e-02 8.755000000000000629e-03 7.442500000000000504e-02 -2.749800000000000161e-02 2.814399999999999888e-02 -7.809299999999999575e-02 4.849099999999999938e-02 -1.078499999999999945e-02 -3.991200000000000303e-02 -7.113700000000000578e-02 1.027800000000000068e-02 5.229700000000000321e-02 5.350099999999999995e-02 -6.756999999999999985e-03 6.433999999999999615e-03 -5.775799999999999684e-02 9.919400000000000439e-02 9.107999999999999777e-03 -2.221400000000000111e-02 5.954099999999999671e-02 1.888799999999999854e-02 -1.544599999999999966e-02 5.215000000000000017e-03 -4.159399999999999903e-02 -2.851599999999999968e-02 2.251600000000000129e-02 -3.136099999999999999e-02 -6.495800000000000185e-02 1.071570000000000022e-01 7.020000000000000415e-04 -9.468999999999999986e-03 -9.210799999999999543e-02 -6.459999999999999597e-03 -2.726999999999999823e-03 -8.871099999999999819e-02 -1.744499999999999870e-02 -7.032800000000000162e-02 4.222200000000000258e-02 -3.382299999999999890e-02 5.731300000000000283e-02 -3.768699999999999828e-02 5.594999999999999973e-02 8.717400000000000149e-02 3.040000000000000167e-04 -1.226799999999999939e-02 -6.190099999999999769e-02 -9.237999999999999684e-03 -5.530000000000000193e-03 -3.893000000000000193e-03 1.746299999999999936e-02 -1.288899999999999942e-02 -3.202599999999999891e-02 -4.698200000000000293e-02 6.780000000000000002e-04 2.495599999999999902e-02 1.688299999999999870e-02 3.143300000000000261e-02 3.916000000000000036e-02 8.862000000000000086e-03 -1.721200000000000160e-02 1.036699999999999948e-02 -8.973999999999999339e-03 -5.596099999999999686e-02 -1.524000000000000007e-02 3.466000000000000331e-02 5.752100000000000268e-02 8.379699999999999649e-02 4.094999999999999682e-03 -2.578899999999999942e-02 8.792800000000000615e-02 -2.134300000000000086e-02 3.199099999999999860e-02 1.155219999999999997e-01 -7.842000000000000012e-03 2.677799999999999972e-02 -4.656600000000000322e-02 3.066299999999999928e-02 -4.524199999999999749e-02 -9.865400000000000558e-02 5.102299999999999891e-02 -6.134099999999999969e-02 8.619499999999999384e-02 1.815599999999999853e-02 -7.331999999999999976e-03 4.426100000000000173e-02 -5.709499999999999992e-02 2.937999999999999987e-02 -8.973399999999999432e-02 -3.273600000000000121e-02 7.373000000000000213e-03 1.096950000000000008e-01 1.339700000000000057e-01 -6.588199999999999612e-02 9.591500000000000026e-02 2.361999999999999950e-03 -1.450069999999999970e-01 -6.583100000000000063e-02 4.631199999999999900e-02 4.111700000000000077e-02 -4.887899999999999884e-02 3.922000000000000139e-03 6.212000000000000161e-02 -1.492000000000000054e-03 -3.952100000000000057e-02 4.617199999999999777e-02 -5.410500000000000032e-02 2.070999999999999924e-03 3.526000000000000054e-03 -2.288799999999999862e-02 -5.625999999999999751e-02 -6.235799999999999677e-02 1.068540000000000045e-01 -3.854999999999999920e-03 4.038200000000000123e-02 -2.125460000000000127e-01 -5.338400000000000090e-02 8.517900000000000471e-02 1.496860000000000135e-01 2.640599999999999892e-02 -6.402599999999999958e-02 -1.752099999999999838e-02 -1.489000000000000046e-02 -8.734400000000000497e-02 2.359500000000000139e-02 -3.720299999999999996e-02 -5.825299999999999923e-02 -1.105180000000000051e-01 9.598000000000000628e-03 6.098900000000000154e-02 6.124500000000000083e-02 -1.086649999999999977e-01 9.988299999999999956e-02 1.168349999999999944e-01 7.807799999999999463e-02 5.023600000000000287e-02 2.422000000000000108e-03 -8.979299999999999782e-02 7.288400000000000434e-02 -1.163010000000000016e-01
3.325100000000000278e-02 -1.526999999999999929e-03 -1.795899999999999927e-02 -3.841200000000000170e-02 -2.739000000000000115e-03 -6.621000000000000149e-03 -4.598000000000000004e-02 1.158040000000000042e-01 -1.874599999999999878e-02 -4.573300000000000282e-02 5.025700000000000306e-02 -9.219999999999999680e-04 -6.405399999999999983e-02 -6.061699999999999727e-02 -1.331399999999999945e-02 -2.289800000000000169e-02 -3.478000000000000189e-03 5.117100000000000121e-02 7.854500000000000370e-02 -5.580100000000000338e-02 6.380399999999999960e-02 3.803999999999999743e-02 -2.738200000000000009e-02 -7.439700000000000479e-02 1.253699999999999953e-02 1.113699999999999968e-01 -3.649199999999999666e-02 3.196600000000000136e-02 -1.148679999999999979e-01 7.680700000000000027e-02 -2.593900000000000025e-02 -5.976399999999999768e-02 -1.009130000000000027e-01 6.298999999999999912e-03 7.771799999999999542e-02 8.479200000000000625e-02 -1.948400000000000132e-02 9.813000000000000542e-03 -8.089599999999999569e-02 1.384269999999999945e-01 1.356800000000000020e-02 -2.849600000000000050e-02 7.939000000000000223e-02 2.858099999999999877e-02 -1.726700000000000110e-02 -1.825000000000000016e-03 -6.190199999999999869e-02 -3.698099999999999998e-02 2.423399999999999860e-02 -4.674999999999999989e-02 -9.188200000000000534e-02 1.501679999999999959e-01 8.149999999999999693e-04 -1.008700000000000048e-02 -1.278070000000000039e-01 -9.601000000000000159e-03 -9.372999999999999388e-03 -1.219090000000000035e-01 -2.592399999999999913e-02 -1.090740000000000043e-01 7.344399999999999540e-02 -5.079700000000000187e-02 8.071899999999999908e-02 -4.682900000000000257e-02 8.444799999999999529e-02 1.251120000000000010e-01 9.398000000000000104e-03 -1.818099999999999924e-02 -9.748400000000000121e-02 -4.183000000000000086e-03 -7.919999999999999957e-03 -1.153400000000000085e-02 3.515700000000000075e-02 -1.913799999999999876e-02 -5.329799999999999816e-02 -6.058700000000000196e-02 1.123999999999999999e-03 3.180999999999999800e-02 3.472800000000000192e-02 4.733199999999999907e-02 5.287000000000000033e-02 1.349999999999999985e-02 -2.599399999999999974e-02 1.023499999999999931e-02 -1.310000000000000053e-02 -8.303599999999999870e-02 -2.678399999999999878e-02 5.218400000000000122e-02 8.628099999999999659e-02 1.209289999999999948e-01 6.522000000000000020e-03 -3.891399999999999720e-02 1.265689999999999871e-01 -3.191800000000000193e-02 4.829399999999999665e-02 1.684180000000000121e-01 -1.167100000000000082e-02 3.975599999999999967e-02 -7.378200000000000036e-02 4.550900000000000084e-02 -6.653599999999999792e-02 -1.502499999999999947e-01 7.736999999999999433e-02 -9.216399999999999593e-02 1.246799999999999992e-01 2.744299999999999864e-02 -1.089299999999999990e-02 6.088400000000000062e-02 -8.258699999999999375e-02 4.429500000000000104e-02 -1.336150000000000115e-01 -4.543300000000000116e-02 1.085599999999999933e-02 1.630659999999999887e-01 2.021199999999999941e-01 -9.820199999999999763e-02 1.428409999999999958e-01 6.867999999999999973e-03 -2.168350000000000000e-01 -9.769700000000000606e-02 7.241699999999999526e-02 6.098699999999999954e-02 -7.235600000000000365e-02 9.402000000000000635e-03 9.211500000000000243e-02 -1.807000000000000012e-03 -5.563799999999999996e-02 6.826899999999999635e-02 -7.975599999999999357e-02 6.642000000000000334e-03 5.082999999999999845e-03 -3.365499999999999742e-02 -8.017199999999999327e-02 -9.310599999999999432e-02 1.598670000000000091e-01 -9.072000000000000203e-03 5.955599999999999783e-02 -3.153509999999999924e-01 -8.229100000000000303e-02 1.265429999999999888e-01 2.213140000000000107e-01 3.591199999999999948e-02 -9.601899999999999324e-02 -2.699500000000000163e-02 -2.554100000000000120e-02 -1.303149999999999864e-01 3.465499999999999831e-02 -5.900199999999999889e-02 -8.762000000000000344e-02 -1.657140000000000002e-01 1.107099999999999924e-02 9.110100000000000142e-02 9.106300000000000505e-02 -1.658900000000000097e-01 1.480920000000000014e-01 1.726630000000000109e-01 1.131950000000000039e-01 7.505100000000000660e-02 3.066000000000000149e-03 -1.375709999999999988e-01 1.091850000000000043e-01 -1.741340000000000110e-01
4.377400000000000041e-02 -1.541000000000000052e-03 -2.051700000000000051e-02 -5.088000000000000161e-02 -4.011999999999999941e-03 -5.399000000000000153e-03 -6.121100000000000152e-02 1.535050000000000026e-01 -2.263099999999999834e-02 -6.063000000000000334e-02 6.621599999999999708e-02 1.910999999999999938e-03 -8.562400000000000566e-02 -8.025899999999999701e-02 -1.466800000000000048e-02 -3.034500000000000045e-02 -4.741999999999999688e-03 7.028700000000000225e-02 1.042079999999999951e-01 -7.324500000000000455e-02 8.741400000000000559e-02 5.078400000000000275e-02 -3.636299999999999949e-02 -9.485699999999999688e-02 1.601500000000000146e-02 1.478410000000000002e-01 -4.557499999999999746e-02 3.506499999999999895e-02 -1.500740000000000129e-01 1.038960000000000022e-01 -4.106100000000000028e-02 -7.962900000000000533e-02 -1.304609999999999936e-01 2.713999999999999833e-03 1.021900000000000031e-01 1.151429999999999954e-01 -3.188499999999999668e-02 1.303099999999999918e-02 -1.038170000000000065e-01 1.768659999999999954e-01 1.779299999999999979e-02 -3.536299999999999860e-02 9.904799999999999716e-02 3.827200000000000046e-02 -1.895000000000000157e-02 -8.831999999999999573e-03 -8.197899999999999632e-02 -4.531000000000000305e-02 2.600600000000000134e-02 -6.204300000000000093e-02 -1.188379999999999992e-01 1.920810000000000017e-01 9.039999999999999642e-04 -1.173800000000000017e-02 -1.627969999999999973e-01 -1.282499999999999959e-02 -1.578600000000000142e-02 -1.538470000000000115e-01 -3.443500000000000033e-02 -1.460279999999999911e-01 1.048720000000000069e-01 -6.787799999999999390e-02 1.042649999999999966e-01 -5.587099999999999705e-02 1.127689999999999942e-01 1.627409999999999968e-01 1.799399999999999958e-02 -2.414000000000000173e-02 -1.321509999999999907e-01 9.539999999999999869e-04 -1.013099999999999938e-02 -1.899800000000000100e-02 5.229600000000000221e-02 -2.544300000000000034e-02 -7.404099999999999571e-02 -7.394399999999999584e-02 1.435000000000000078e-03 3.875100000000000072e-02 5.237499999999999795e-02 6.315199999999999980e-02 6.632599999999999607e-02 1.820700000000000096e-02 -3.492100000000000065e-02 9.764000000000000110e-03 -1.717399999999999829e-02 -1.091570000000000040e-01 -3.736099999999999838e-02 6.930999999999999661e-02 1.149219999999999964e-01 1.579010000000000136e-01 8.958000000000000684e-03 -5.197000000000000230e-02 1.646130000000000093e-01 -4.255599999999999661e-02 6.466299999999999826e-02 2.209810000000000108e-01 -1.569299999999999862e-02 5.252699999999999730e-02 -9.991300000000000181e-02 5.968400000000000094e-02 -8.679900000000000115e-02 -1.995669999999999944e-01 1.038410000000000027e-01 -1.227710000000000051e-01 1.630099999999999882e-01 3.676299999999999707e-02 -1.415899999999999971e-02 7.687399999999999789e-02 -1.080279999999999990e-01 5.925099999999999811e-02 -1.767130000000000090e-01 -5.784899999999999765e-02 1.429099999999999988e-02 2.145589999999999997e-01 2.679819999999999980e-01 -1.297030000000000127e-01 1.882409999999999917e-01 1.117100000000000037e-02 -2.873470000000000191e-01 -1.287959999999999938e-01 9.785699999999999954e-02 8.028799999999999826e-02 -9.526400000000000146e-02 1.489700000000000052e-02 1.212010000000000032e-01 -2.253999999999999927e-03 -7.152000000000000024e-02 8.957900000000000584e-02 -1.045640000000000042e-01 1.119700000000000036e-02 6.583999999999999575e-03 -4.420799999999999730e-02 -1.033250000000000002e-01 -1.231369999999999965e-01 2.115839999999999943e-01 -1.411500000000000081e-02 7.796500000000000652e-02 -4.143999999999999906e-01 -1.101099999999999995e-01 1.668000000000000038e-01 2.904439999999999800e-01 4.510900000000000326e-02 -1.275799999999999990e-01 -3.641500000000000292e-02 -3.589200000000000029e-02 -1.723320000000000130e-01 4.550300000000000178e-02 -8.038599999999999912e-02 -1.166330000000000006e-01 -2.198259999999999936e-01 1.264999999999999979e-02 1.207440000000000041e-01 1.203179999999999944e-01 -2.221559999999999924e-01 1.949629999999999974e-01 2.266180000000000139e-01 1.476190000000000002e-01 9.955999999999999572e-02 3.619999999999999954e-03 -1.843950000000000033e-01 1.450720000000000065e-01 -2.306469999999999909e-01
5.404599999999999682e-02 -1.105999999999999995e-03 -2.299800000000000108e-02 -6.289500000000000646e-02 -5.440000000000000391e-03 -4.027000000000000197e-03 -7.643999999999999406e-02 1.903330000000000022e-01 -2.694200000000000067e-02 -7.506200000000000372e-02 8.171599999999999697e-02 4.610999999999999648e-03 -1.072380000000000000e-01 -9.940599999999999437e-02 -1.624000000000000096e-02 -3.746700000000000030e-02 -6.128999999999999899e-03 8.841699999999999560e-02 1.295650000000000135e-01 -8.991000000000000381e-02 1.104149999999999993e-01 6.378499999999999448e-02 -4.512800000000000145e-02 -1.145010000000000056e-01 1.915599999999999942e-02 1.837290000000000034e-01 -5.470900000000000069e-02 3.716799999999999965e-02 -1.834800000000000042e-01 1.296150000000000080e-01 -5.604599999999999860e-02 -9.951599999999999335e-02 -1.596349999999999991e-01 -3.049999999999999868e-04 1.255630000000000079e-01 1.443730000000000013e-01 -4.383800000000000197e-02 1.589000000000000135e-02 -1.263640000000000041e-01 2.143660000000000010e-01 2.181999999999999912e-02 -4.276900000000000146e-02 1.183899999999999952e-01 4.802599999999999925e-02 -2.044299999999999937e-02 -1.566299999999999984e-02 -1.016849999999999976e-01 -5.341900000000000120e-02 2.777400000000000008e-02 -7.711899999999999311e-02 -1.457789999999999919e-01 2.325440000000000007e-01 1.093000000000000005e-03 -1.444499999999999951e-02 -1.968340000000000090e-01 -1.621300000000000172e-02 -2.203600000000000003e-02 -1.842940000000000134e-01 -4.283100000000000102e-02 -1.810680000000000067e-01 1.361989999999999867e-01 -8.500900000000000123e-02 1.278050000000000019e-01 -6.471000000000000363e-02 1.408050000000000135e-01 1.997730000000000061e-01 2.583299999999999833e-02 -3.015999999999999931e-02 -1.657250000000000112e-01 6.298999999999999912e-03 -1.223600000000000035e-02 -2.630100000000000146e-02 6.864000000000000656e-02 -3.182499999999999912e-02 -9.418700000000000683e-02 -8.686599999999999877e-02 1.463000000000000108e-03 4.584699999999999886e-02 6.978199999999999681e-02 7.906299999999999439e-02 7.945800000000000085e-02 2.292800000000000046e-02 -4.397600000000000120e-02 8.942000000000000295e-03 -2.120400000000000063e-02 -1.342639999999999945e-01 -4.685500000000000081e-02 8.593800000000000050e-02 1.433250000000000079e-01 1.944110000000000005e-01 1.138300000000000076e-02 -6.500000000000000222e-02 2.017150000000000054e-01 -5.312700000000000061e-02 8.096000000000000418e-02 2.728639999999999954e-01 -2.004200000000000079e-02 6.515600000000000558e-02 -1.247359999999999997e-01 7.319699999999999818e-02 -1.059500000000000025e-01 -2.463410000000000044e-01 1.301509999999999889e-01 -1.528899999999999981e-01 2.008969999999999922e-01 4.612399999999999833e-02 -1.711700000000000027e-02 9.200899999999999357e-02 -1.331660000000000066e-01 7.415599999999999969e-02 -2.186190000000000078e-01 -6.985099999999999643e-02 1.771700000000000011e-02 2.637590000000000212e-01 3.311870000000000092e-01 -1.602079999999999893e-01 2.317200000000000093e-01 1.527099999999999985e-02 -3.560329999999999884e-01 -1.588080000000000047e-01 1.223149999999999932e-01 9.886599999999999555e-02 -1.173909999999999954e-01 2.030900000000000066e-02 1.491449999999999998e-01 -2.853000000000000067e-03 -8.710299999999999987e-02 1.099819999999999964e-01 -1.283219999999999916e-01 1.579799999999999954e-02 7.939999999999999142e-03 -5.445500000000000340e-02 -1.256019999999999914e-01 -1.521409999999999985e-01 2.614850000000000230e-01 -1.891899999999999832e-02 9.548199999999999743e-02 -5.088620000000000365e-01 -1.366640000000000077e-01 2.057039999999999980e-01 3.565099999999999936e-01 5.391800000000000065e-02 -1.584419999999999995e-01 -4.565299999999999914e-02 -4.583500000000000074e-02 -2.130910000000000026e-01 5.606400000000000272e-02 -1.011510000000000048e-01 -1.449689999999999868e-01 -2.722919999999999785e-01 1.431800000000000087e-02 1.496639999999999915e-01 1.486919999999999908e-01 -2.770719999999999850e-01 2.402130000000000098e-01 2.782709999999999906e-01 1.809929999999999872e-01 1.235699999999999993e-01 4.052000000000000046e-03 -2.298759999999999970e-01 1.801550000000000096e-01 -2.852330000000000143e-01
6.380299999999999860e-02 1.190000000000000058e-04 -2.534000000000000141e-02 -7.447399999999999853e-02 -7.348000000000000365e-03 -2.517999999999999839e-03 -9.141000000000000514e-02 2.261160000000000114e-01 -3.158500000000000196e-02 -8.904399999999999815e-02 9.636100000000000221e-02 7.224000000000000386e-03 -1.285489999999999966e-01 -1.179069999999999979e-01 -1.800300000000000164e-02 -4.443899999999999934e-02 -7.425000000000000176e-03 1.053400000000000031e-01 1.548640000000000017e-01 -1.056610000000000049e-01 1.327339999999999909e-01 7.687099999999999489e-02 -5.335999999999999771e-02 -1.330590000000000106e-01 2.180299999999999946e-02 2.185320000000000040e-01 -6.372400000000000286e-02 3.812299999999999717e-02 -2.151079999999999937e-01 1.539359999999999895e-01 -7.065299999999999359e-02 -1.192610000000000059e-01 -1.883279999999999954e-01 -2.870000000000000155e-03 1.477439999999999864e-01 1.724169999999999869e-01 -5.510799999999999726e-02 1.843900000000000053e-02 -1.483879999999999921e-01 2.505999999999999894e-01 2.572500000000000134e-02 -5.070700000000000207e-02 1.374440000000000106e-01 5.770000000000000129e-02 -2.172699999999999979e-02 -2.239199999999999871e-02 -1.208769999999999983e-01 -6.119000000000000133e-02 2.953799999999999829e-02 -9.206300000000000594e-02 -1.726350000000000107e-01 2.713579999999999881e-01 1.681999999999999901e-03 -1.808900000000000091e-02 -2.299519999999999897e-01 -1.953900000000000081e-02 -2.822900000000000062e-02 -2.132300000000000029e-01 -5.133399999999999769e-02 -2.139759999999999995e-01 1.675490000000000035e-01 -1.020459999999999978e-01 1.511500000000000066e-01 -7.340099999999999403e-02 1.680290000000000117e-01 2.358649999999999913e-01 3.311800000000000160e-02 -3.620299999999999907e-02 -1.981189999999999896e-01 1.168199999999999968e-02 -1.397600000000000058e-02 -3.334100000000000258e-02 8.433699999999999530e-02 -3.823599999999999915e-02 -1.136380000000000029e-01 -9.946900000000000186e-02 1.366000000000000027e-03 5.308999999999999830e-02 8.680599999999999428e-02 9.482799999999999563e-02 9.209599999999999731e-02 2.775000000000000036e-02 -5.337200000000000277e-02 7.616000000000000374e-03 -2.506800000000000000e-02 -1.581369999999999998e-01 -5.513500000000000345e-02 1.016740000000000005e-01 1.714310000000000000e-01 2.301229999999999942e-01 1.387599999999999945e-02 -7.781299999999999328e-02 2.375619999999999954e-01 -6.370299999999999574e-02 9.706599999999999950e-02 3.237539999999999862e-01 -2.472600000000000145e-02 7.750700000000000645e-02 -1.480339999999999989e-01 8.584899999999999476e-02 -1.239190000000000014e-01 -2.904149999999999787e-01 1.560890000000000055e-01 -1.824689999999999923e-01 2.380180000000000073e-01 5.570200000000000151e-02 -1.957899999999999918e-02 1.060040000000000010e-01 -1.577260000000000051e-01 8.880899999999999905e-02 -2.589569999999999927e-01 -8.131399999999999739e-02 2.109400000000000164e-02 3.103090000000000015e-01 3.912169999999999814e-01 -1.894810000000000105e-01 2.729489999999999972e-01 1.910200000000000092e-02 -4.222480000000000122e-01 -1.873859999999999970e-01 1.456359999999999877e-01 1.165680000000000049e-01 -1.385359999999999925e-01 2.568000000000000144e-02 1.757539999999999936e-01 -3.650000000000000033e-03 -1.022320000000000034e-01 1.293400000000000105e-01 -1.508420000000000039e-01 2.037900000000000128e-02 9.145999999999999616e-03 -6.431599999999999817e-02 -1.467739999999999878e-01 -1.798949999999999994e-01 3.090930000000000066e-01 -2.348199999999999940e-02 1.119860000000000022e-01 -5.980039999999999800e-01 -1.618330000000000046e-01 2.429159999999999930e-01 4.190530000000000088e-01 6.217600000000000210e-02 -1.883610000000000007e-01 -5.457200000000000245e-02 -5.529599999999999793e-02 -2.522909999999999875e-01 6.627199999999999758e-02 -1.211470000000000047e-01 -1.723870000000000124e-01 -3.225770000000000026e-01 1.606499999999999942e-02 1.776570000000000094e-01 1.758929999999999938e-01 -3.301620000000000110e-01 2.836719999999999797e-01 3.272660000000000013e-01 2.130279999999999951e-01 1.468889999999999918e-01 4.316000000000000392e-03 -2.736009999999999831e-01 2.141280000000000128e-01 -3.373360000000000247e-01