 vasp.6.1.1 19Jun20 (build Dec 21 2021 08:45:49) complex                        
  
 executed on             LinuxIFC date 2023.10.07  03:46:52
 running on   40 total cores
 distrk:  each k-point on   40 cores,    1 groups
 distr:  one band on NCORE=   1 cores,   40 groups


--------------------------------------------------------------------------------------------------------


 INCAR:
 POTCAR:   PAW_PBE Te 08Apr2002                   
 POTCAR:   PAW_PBE Mo 08Apr2002                   
 -----------------------------------------------------------------------------
|                                                                             |
|           W    W    AA    RRRRR   N    N  II  N    N   GGGG   !!!           |
|           W    W   A  A   R    R  NN   N  II  NN   N  G    G  !!!           |
|           W    W  A    A  R    R  N N  N  II  N N  N  G       !!!           |
|           W WW W  AAAAAA  RRRRR   N  N N  II  N  N N  G  GGG   !            |
|           WW  WW  A    A  R   R   N   NN  II  N   NN  G    G                |
|           W    W  A    A  R    R  N    N  II  N    N   GGGG   !!!           |
|                                                                             |
|     For optimal performance we recommend to set                             |
|       NCORE = 4 - approx SQRT(number of cores).                             |
|     NCORE specifies how many cores store one orbital (NPAR=cpu/NCORE).      |
|     This setting can greatly improve the performance of VASP for DFT.       |
|     The default, NCORE=1 might be grossly inefficient on modern             |
|     multi-core architectures or massively parallel machines. Do your        |
|     own testing!!!!                                                         |
|     Unfortunately you need to use the default for GW and RPA                |
|     calculations (for HF NCORE is supported but not extensively tested      |
|     yet).                                                                   |
|                                                                             |
 -----------------------------------------------------------------------------

 POTCAR:   PAW_PBE Te 08Apr2002                   
   VRHFIN =Te: s2p4                                                                                 
   LEXCH  = PE                                                                                      
   EATOM  =   223.2721 eV,   16.4100 Ry                                                             
                                                                                                    
   TITEL  = PAW_PBE Te 08Apr2002                                                                    
   LULTRA =        F    use ultrasoft PP ?                                                          
   IUNSCR =        1    unscreen: 0-lin 1-nonlin 2-no                                               
   RPACOR =    2.200    partial core radius                                                         
   POMASS =  127.600; ZVAL   =    6.000    mass and valenz                                          
   RCORE  =    2.300    outmost cutoff radius                                                       
   RWIGS  =    2.900; RWIGS  =    1.535    wigner-seitz radius (au A)                               
   ENMAX  =  174.982; ENMIN  =  131.236 eV                                                          
   ICORE  =        3    local potential                                                             
   LCOR   =        T    correct aug charges                                                         
   LPAW   =        T    paw PP                                                                      
   EAUG   =  368.792                                                                                
   DEXC   =    -.169                                                                                
   RMAX   =    3.486    core radius for proj-oper                                                   
   RAUG   =    1.300    factor for augmentation sphere                                              
   RDEP   =    2.397    radius for radial grids                                                     
   QCUT   =   -3.586; QGAM   =    7.172    optimization parameters                                  
                                                                                                    
   Description                                                                                      
     l     E      TYP  RCUT    TYP  RCUT                                                            
     0   .000     23  2.300                                                                         
     0   .000     23  2.300                                                                         
     1   .000     23  2.300                                                                         
     1   .000     23  2.300                                                                         
     2   .000     23  2.300                                                                         
     3  -.100     23  2.300                                                                         
  local pseudopotential read in
  partial core-charges read in
  atomic valenz-charges read in
  non local Contribution for L=           0  read in
    real space projection operators read in
  non local Contribution for L=           0  read in
    real space projection operators read in
  non local Contribution for L=           1  read in
    real space projection operators read in
  non local Contribution for L=           1  read in
    real space projection operators read in
  non local Contribution for L=           2  read in
    real space projection operators read in
    PAW grid and wavefunctions read in
 
   number of l-projection  operators is LMAX  =           5
   number of lm-projection operators is LMMAX =          13
 
 POTCAR:   PAW_PBE Mo 08Apr2002                   
   VRHFIN =Mo: 4p5s4d                                                                               
   LEXCH  = PE                                                                                      
   EATOM  =   217.5180 eV,   15.9871 Ry                                                             
                                                                                                    
   TITEL  = PAW_PBE Mo 08Apr2002                                                                    
   LULTRA =        F    use ultrasoft PP ?                                                          
   IUNSCR =        1    unscreen: 0-lin 1-nonlin 2-no                                               
   RPACOR =    2.200    partial core radius                                                         
   POMASS =   95.940; ZVAL   =    6.000    mass and valenz                                          
   RCORE  =    2.750    outmost cutoff radius                                                       
   RWIGS  =    2.750; RWIGS  =    1.455    wigner-seitz radius (au A)                               
   ENMAX  =  224.584; ENMIN  =  168.438 eV                                                          
   RCLOC  =    2.111    cutoff for local pot                                                        
   LCOR   =        T    correct aug charges                                                         
   LPAW   =        T    paw PP                                                                      
   EAUG   =  345.278                                                                                
   DEXC   =    -.088                                                                                
   RMAX   =    3.077    core radius for proj-oper                                                   
   RAUG   =    1.300    factor for augmentation sphere                                              
   RDEP   =    2.815    radius for radial grids                                                     
   QCUT   =   -4.063; QGAM   =    8.126    optimization parameters                                  
                                                                                                    
   Description                                                                                      
     l     E      TYP  RCUT    TYP  RCUT                                                            
     2   .000     23  2.500                                                                         
     2   .000     23  2.500                                                                         
     0   .000     23  2.600                                                                         
     0  1.000     23  2.600                                                                         
     1   .400     23  2.750                                                                         
     1  2.000     23  2.750                                                                         
     3   .000      7   .000                                                                         
  local pseudopotential read in
  partial core-charges read in
  atomic valenz-charges read in
  non local Contribution for L=           2  read in
    real space projection operators read in
  non local Contribution for L=           2  read in
    real space projection operators read in
  non local Contribution for L=           0  read in
    real space projection operators read in
  non local Contribution for L=           0  read in
    real space projection operators read in
  non local Contribution for L=           1  read in
    real space projection operators read in
  non local Contribution for L=           1  read in
    real space projection operators read in
    PAW grid and wavefunctions read in
 
   number of l-projection  operators is LMAX  =           6
   number of lm-projection operators is LMMAX =          18
 
 -----------------------------------------------------------------------------
|                                                                             |
|               ----> ADVICE to this user running VASP <----                  |
|                                                                             |
|     You have a (more or less) 'large supercell' and for larger cells it     |
|     might be more efficient to use real-space projection operators.         |
|     Therefore, try LREAL= Auto in the INCAR file.                           |
|     Mind: If you want to do very accurate calculations, keep the            |
|     reciprocal projection scheme (i.e. LREAL=.FALSE.).                      |
|                                                                             |
 -----------------------------------------------------------------------------

 PAW_PBE Te 08Apr2002                   :
 energy of atom  1       EATOM= -223.2721
 kinetic energy error for atom=    0.0006 (will be added to EATOM!!)
 PAW_PBE Mo 08Apr2002                   :
 energy of atom  2       EATOM= -217.5180
 kinetic energy error for atom=    0.0009 (will be added to EATOM!!)
 
 
 POSCAR: Te Mo
  positions in cartesian coordinates
  No initial velocities read in
 exchange correlation table for  LEXCH =        8
   RHO(1)=    0.500       N(1)  =     2000
   RHO(2)=  100.500       N(2)  =     4000
 


--------------------------------------------------------------------------------------------------------


 ion  position               nearest neighbor table
   1  0.223  0.112  0.683-  40 2.64  37 2.72  41 2.74   2 3.46   3 3.46   4 3.53  19 3.54   7 3.54
                             5 3.61   9 3.62
   2  0.222  0.445  0.683-  41 2.65  38 2.72  42 2.74   1 3.46   3 3.46   8 3.54  20 3.54   5 3.54
                             6 3.61   7 3.62
   3  0.222  0.778  0.683-  42 2.65  39 2.71  40 2.74   2 3.46   1 3.46  21 3.54   9 3.54   6 3.54
                             4 3.61   8 3.62
   4  0.555  0.111  0.683-  43 2.64  40 2.71  44 2.75   5 3.46   6 3.47   7 3.53   1 3.53  22 3.54
                             3 3.61   8 3.61
   5  0.556  0.445  0.683-  44 2.65  41 2.73  45 2.74   6 3.45   4 3.46   8 3.53  23 3.54   2 3.54
                             9 3.60   1 3.61
   6  0.556  0.777  0.683-  45 2.64  42 2.72  43 2.75   5 3.45   4 3.47   9 3.53  24 3.54   3 3.54
                             2 3.61   7 3.61
   7  0.888  0.111  0.683-  37 2.66  43 2.72  38 2.75   8 3.46   9 3.46  25 3.53   4 3.53   1 3.54
                             6 3.61   2 3.62
   8  0.889  0.444  0.683-  38 2.65  44 2.71  39 2.74   7 3.46   9 3.46   5 3.53  26 3.53   2 3.54
                             4 3.61   3 3.62
   9  0.889  0.778  0.683-  39 2.65  45 2.71  37 2.75   8 3.46   7 3.46   6 3.53   3 3.54  27 3.54
                             5 3.60   1 3.62
  10  0.223  0.000  0.438-  51 2.65  48 2.72  49 2.75  11 3.46  12 3.46  13 3.53  28 3.54  16 3.54
                            14 3.61  18 3.61
  11  0.222  0.333  0.438-  49 2.65  46 2.71  50 2.74  10 3.46  12 3.46  29 3.53  17 3.54  14 3.54
                            16 3.61  15 3.61
  12  0.222  0.666  0.438-  50 2.65  47 2.71  51 2.75  11 3.46  10 3.46  18 3.53  30 3.54  15 3.54
                            17 3.60  13 3.62
  13  0.556  0.000  0.438-  54 2.65  51 2.72  52 2.74  14 3.46  15 3.46  10 3.53  31 3.54  16 3.54
                            17 3.61  12 3.62
  14  0.556  0.333  0.438-  52 2.64  49 2.71  53 2.74  13 3.46  15 3.46  17 3.53  32 3.53  11 3.54
                            10 3.61  18 3.61
  15  0.556  0.667  0.438-  53 2.64  50 2.71  54 2.75  13 3.46  14 3.46  33 3.53  18 3.54  12 3.54
                            16 3.61  11 3.61
  16  0.889  0.000  0.438-  48 2.65  54 2.72  46 2.75  18 3.46  17 3.46  34 3.53  13 3.54  10 3.54
                            11 3.61  15 3.61
  17  0.889  0.334  0.438-  46 2.66  52 2.71  47 2.74  18 3.46  16 3.46  14 3.53  35 3.53  11 3.54
                            12 3.60  13 3.61
  18  0.889  0.667  0.438-  47 2.64  53 2.71  48 2.74  16 3.46  17 3.46  12 3.53  15 3.54  36 3.54
                            14 3.61  10 3.61
  19  0.222  0.111  0.562-  41 2.66  40 2.70  37 2.75  20 3.46  21 3.46  25 3.53   1 3.54  22 3.54
                            27 3.61  23 3.62
  20  0.222  0.444  0.562-  42 2.65  41 2.69  38 2.74  21 3.46  19 3.46  23 3.53  26 3.54   2 3.54
                            25 3.61  24 3.61
  21  0.222  0.778  0.562-  40 2.67  42 2.69  39 2.75  20 3.46  19 3.46  27 3.54  24 3.54   3 3.54
                            22 3.61  26 3.61
  22  0.556  0.111  0.562-  44 2.66  43 2.68  40 2.75  24 3.46  23 3.47  25 3.54   4 3.54  19 3.54
                            21 3.61  26 3.61
  23  0.556  0.445  0.562-  45 2.66  44 2.69  41 2.76  24 3.46  22 3.47  20 3.53  26 3.54   5 3.54
                            27 3.60  19 3.62
  24  0.556  0.778  0.562-  43 2.65  45 2.69  42 2.75  23 3.46  22 3.46  27 3.54  21 3.54   6 3.54
                            20 3.61  25 3.61
  25  0.889  0.112  0.562-  38 2.65  37 2.69  43 2.76  26 3.46  27 3.47  19 3.53   7 3.53  22 3.54
                            20 3.61  24 3.61
  26  0.889  0.444  0.562-  39 2.66  38 2.69  44 2.75  27 3.46  25 3.46   8 3.53  23 3.54  20 3.54
                            22 3.61  21 3.61
  27  0.889  0.777  0.562-  37 2.66  39 2.69  45 2.75  26 3.46  25 3.47  21 3.54  24 3.54   9 3.54
                            23 3.60  19 3.61
  28  0.223  0.000  0.317-  49 2.65  51 2.69  48 2.76  29 3.45  30 3.47  31 3.54  10 3.54  34 3.54
                            32 3.60  36 3.61
  29  0.222  0.333  0.317-  50 2.67  49 2.68  46 2.75  28 3.45  30 3.47  32 3.53  11 3.53  35 3.54
                            34 3.61  33 3.62
  30  0.222  0.666  0.317-  51 2.66  50 2.69  47 2.75  29 3.47  28 3.47  36 3.53  12 3.54  33 3.54
                            35 3.61  31 3.62
  31  0.556  1.000  0.317-  52 2.66  54 2.69  51 2.76  33 3.46  32 3.46  34 3.53  13 3.54  28 3.54
                            35 3.61  30 3.62
  32  0.555  0.333  0.317-  53 2.67  52 2.70  49 2.75  33 3.46  31 3.46  29 3.53  14 3.53  35 3.54
                            28 3.60  36 3.62
  33  0.556  0.667  0.317-  54 2.65  53 2.68  50 2.75  32 3.46  31 3.46  15 3.53  36 3.53  30 3.54
                            34 3.60  29 3.62
  34  0.888  0.000  0.317-  46 2.65  48 2.69  54 2.74  35 3.45  36 3.47  31 3.53  16 3.53  28 3.54
                            33 3.60  29 3.61
  35  0.889  0.333  0.317-  47 2.67  46 2.68  52 2.75  34 3.45  36 3.47  17 3.53  29 3.54  32 3.54
                            31 3.61  30 3.61
  36  0.890  0.667  0.317-  48 2.66  47 2.69  53 2.76  35 3.47  34 3.47  30 3.53  33 3.53  18 3.54
                            28 3.61  32 3.62
  37  0.000  1.000  0.622-   7 2.66  27 2.66  25 2.69   1 2.72  19 2.75   9 2.75  39 3.46  38 3.46

  38  0.000  0.333  0.622-  25 2.65   8 2.65  26 2.69   2 2.72  20 2.74   7 2.75  39 3.46  37 3.46

  39  0.000  0.667  0.622-   9 2.65  26 2.66  27 2.69   3 2.71   8 2.74  21 2.75  37 3.46  38 3.46

  40  0.334  0.001  0.623-   1 2.64  21 2.67  19 2.70   4 2.71   3 2.74  22 2.75  41 3.45  42 3.47

  41  0.333  0.333  0.622-   2 2.65  19 2.66  20 2.69   5 2.73   1 2.74  23 2.76  40 3.45  42 3.46

  42  0.333  0.666  0.622-  20 2.65   3 2.65  21 2.69   6 2.72   2 2.74  24 2.75  41 3.46  40 3.47

  43  0.666  1.000  0.622-   4 2.64  24 2.65  22 2.68   7 2.72   6 2.75  25 2.76  44 3.46  45 3.46

  44  0.667  0.333  0.622-   5 2.65  22 2.66  23 2.69   8 2.71  26 2.75   4 2.75  45 3.46  43 3.46

  45  0.667  0.667  0.622-   6 2.64  23 2.66  24 2.69   9 2.71   5 2.74  27 2.75  44 3.46  43 3.46

  46  0.001  0.222  0.377-  34 2.65  17 2.66  35 2.68  11 2.71  16 2.75  29 2.75  48 3.46  47 3.47

  47  1.000  0.556  0.378-  18 2.64  35 2.67  36 2.69  12 2.71  17 2.74  30 2.75  48 3.46  46 3.47

  48  0.000  0.889  0.378-  16 2.65  36 2.66  34 2.69  10 2.72  18 2.74  28 2.76  47 3.46  46 3.46

  49  0.334  0.223  0.377-  11 2.65  28 2.65  29 2.68  14 2.71  32 2.75  10 2.75  50 3.46  51 3.46

  50  0.334  0.556  0.378-  12 2.65  29 2.67  30 2.69  15 2.71  11 2.74  33 2.75  49 3.46  51 3.46

  51  0.333  0.889  0.378-  10 2.65  30 2.66  28 2.69  13 2.72  12 2.75  31 2.76  50 3.46  49 3.46

  52  0.667  0.222  0.378-  14 2.64  31 2.66  32 2.70  17 2.71  13 2.74  35 2.75  54 3.46  53 3.47

  53  0.667  0.556  0.378-  15 2.64  32 2.67  33 2.68  18 2.71  14 2.74  36 2.76  54 3.46  52 3.47

  54  0.667  0.889  0.378-  13 2.65  33 2.65  31 2.69  16 2.72  34 2.74  15 2.75  53 3.46  52 3.46

 

IMPORTANT INFORMATION: All symmetrisations will be switched off!
NOSYMM: (Re-)initialisation of all symmetry stuff for point group C_1.


----------------------------------------------------------------------------------------

                                     Primitive cell                                     

  volume of cell :    2846.2841

  direct lattice vectors                    reciprocal lattice vectors
    10.606999070  0.000000000  0.000000000     0.094277372  0.049872554  0.001530404
    -4.855805528  9.179248877  0.000000000     0.000000000  0.108941376  0.003425437
     0.011700889 -0.919182404 29.233349289     0.000000000  0.000000000  0.034207507

  length of vectors
    10.606999070 10.384481560 29.247798958     0.106666943  0.108995215  0.034207507

  position of ions in fractional coordinates (direct lattice)
     0.222904255  0.111889841  0.682768336
     0.222270532  0.444800091  0.682849267
     0.222312629  0.778203293  0.682807208
     0.555363051  0.110764703  0.682858681
     0.556377511  0.444687190  0.682905932
     0.555762987  0.777048017  0.682894197
     0.888410809  0.111043934  0.682716593
     0.888624752  0.444150208  0.682730542
     0.888570646  0.777548225  0.682756774
     0.223027554  0.000468218  0.438252420
     0.221956718  0.333075251  0.438024383
     0.221556056  0.666127454  0.438245933
     0.555584886  0.000012601  0.438105659
     0.555993246  0.333444437  0.437815155
     0.555558164  0.666669971  0.438107332
     0.889226114  0.000109939  0.438145664
     0.888773397  0.333568230  0.438199034
     0.889147837  0.667012018  0.438112629
     0.221521813  0.110727970  0.561668595
     0.222222039  0.444437753  0.561899223
     0.222201864  0.777711178  0.561883199
     0.555545713  0.110846828  0.561909189
     0.555642765  0.444817912  0.561882910
     0.555578390  0.777675137  0.561920293
     0.889151462  0.111547841  0.562022398
     0.888777968  0.444306046  0.561940814
     0.888629328  0.777076989  0.561787170
     0.222614189  0.000474710  0.317256963
     0.222373061  0.332749916  0.317187427
     0.221955507  0.666258293  0.317321218
     0.555909349  0.999965684  0.317152864
     0.555132085  0.333016071  0.317004315
     0.556249393  0.666742210  0.317296519
     0.888421171  0.000141815  0.317291334
     0.888808806  0.332779135  0.317384999
     0.889534299  0.666799957  0.317050945
     0.000299631  0.999759913  0.622095880
     0.000472380  0.333437087  0.622087008
     0.000384686  0.666685762  0.622491094
     0.333872155  0.000744130  0.622503379
     0.332768201  0.332788656  0.622195564
     0.333118308  0.666116193  0.622222808
     0.665667256  0.999522983  0.622289355
     0.666861886  0.333454393  0.622247536
     0.666744529  0.666635955  0.622353991
     0.000523174  0.222182916  0.377495756
     0.999905771  0.556005752  0.377820633
     0.000004950  0.888890147  0.377648769
     0.333920385  0.222573877  0.377422859
     0.333950138  0.555745346  0.377685147
     0.333200479  0.888740082  0.377554471
     0.666865385  0.222080433  0.377581326
     0.666634642  0.555809644  0.377786697
     0.666813160  0.888865409  0.377516142

  ion indices of the primitive-cell ions
   primitive index   ion index
                 1           1
                 2           2
                 3           3
                 4           4
                 5           5
                 6           6
                 7           7
                 8           8
                 9           9
                10          10
                11          11
                12          12
                13          13
                14          14
                15          15
                16          16
                17          17
                18          18
                19          19
                20          20
                21          21
                22          22
                23          23
                24          24
                25          25
                26          26
                27          27
                28          28
                29          29
                30          30
                31          31
                32          32
                33          33
                34          34
                35          35
                36          36
                37          37
                38          38
                39          39
                40          40
                41          41
                42          42
                43          43
                44          44
                45          45
                46          46
                47          47
                48          48
                49          49
                50          50
                51          51
                52          52
                53          53
                54          54

----------------------------------------------------------------------------------------

 
 

Automatic generation of k-mesh.
 generate k-points for:    3    3    1
Space group operators:
 irot       det(A)        alpha          n_x          n_y          n_z        tau_x        tau_y        tau_z
    1     1.000000     0.000001     1.000000     0.000000     0.000000     0.000000     0.000000     0.000000
 
 Subroutine IBZKPT returns following result:
 ===========================================
 
 Found      5 irreducible k-points:
 
 Following reciprocal coordinates:
            Coordinates               Weight
  0.000000  0.000000  0.000000      1.000000
  0.333333 -0.000000 -0.000000      2.000000
  0.000000  0.333333 -0.000000      2.000000
  0.333333  0.333333  0.000000      2.000000
 -0.333333  0.333333 -0.000000      2.000000
 
 Following cartesian coordinates:
            Coordinates               Weight
  0.000000  0.000000  0.000000      1.000000
  0.031426  0.016624  0.000510      2.000000
  0.000000  0.036314  0.001142      2.000000
  0.031426  0.052938  0.001652      2.000000
 -0.031426  0.019690  0.000632      2.000000
 


--------------------------------------------------------------------------------------------------------




 Dimension of arrays:
   k-points           NKPTS =      5   k-points in BZ     NKDIM =      5   number of bands    NBANDS=    200
   number of dos      NEDOS =    301   number of ions     NIONS =     54
   non local maximal  LDIM  =      6   non local SUM 2l+1 LMDIM =     18
   total plane-waves  NPLWV = ******
   max r-space proj   IRMAX =      1   max aug-charges    IRDMAX=  34151
   dimension x,y,z NGX =    84 NGY =   80 NGZ =  224
   dimension x,y,z NGXF=   168 NGYF=  160 NGZF=  448
   support grid    NGXF=   168 NGYF=  160 NGZF=  448
   ions per type =              36  18
   NGX,Y,Z   is equivalent  to a cutoff of  13.17, 12.81, 12.73 a.u.
   NGXF,Y,Z  is equivalent  to a cutoff of  26.33, 25.61, 25.46 a.u.

 SYSTEM =  dpgen_md                                
 POSCAR =  Te Mo                                   

 Startparameter for this run:
   NWRITE =      2    write-flag & timer
   PREC   = a         normal or accurate (medium, high low for compatibility)
   ISTART =      0    job   : 0-new  1-cont  2-samecut
   ICHARG =      2    charge: 1-file 2-atom 10-const
   ISPIN  =      1    spin polarized calculation?
   LNONCOLLINEAR =      F non collinear calculations
   LSORBIT =      F    spin-orbit coupling
   INIWAV =      1    electr: 0-lowe 1-rand  2-diag
   LASPH  =      F    aspherical Exc in radial PAW
   METAGGA=      F    non-selfconsistent MetaGGA calc.

 Electronic Relaxation 1
   ENCUT  =  550.0 eV  40.42 Ry    6.36 a.u.  20.28 19.86 55.93*2*pi/ulx,y,z
   ENINI  =  550.0     initial cutoff
   ENAUG  =  368.8 eV  augmentation charge cutoff
   NELM   =    100;   NELMIN=  6; NELMDL= -5     # of ELM steps 
   EDIFF  = 0.1E-05   stopping-criterion for ELM
   LREAL  =      F    real-space projection
   NLSPLINE    = F    spline interpolate recip. space projectors
   LCOMPAT=      F    compatible to vasp.4.4
   GGA_COMPAT  = T    GGA compatible to vasp.4.4-vasp.4.6
   LMAXPAW     = -100 max onsite density
   LMAXMIX     =    2 max onsite mixed and CHGCAR
   VOSKOWN=      0    Vosko Wilk Nusair interpolation
   ROPT   =    0.00000   0.00000
 Ionic relaxation
   EDIFFG = 0.1E-04   stopping-criterion for IOM
   NSW    =     10    number of steps for IOM
   NBLOCK =      1;   KBLOCK =      1    inner block; outer block 
   IBRION =      0    ionic relax: 0-MD 1-quasi-New 2-CG
   NFREE  =      0    steps in history (QN), initial steepest desc. (CG)
   ISIF   =      2    stress and relaxation
   IWAVPR =     11    prediction:  0-non 1-charg 2-wave 3-comb
   ISYM   =      0    0-nonsym 1-usesym 2-fastsym
   LCORR  =      T    Harris-Foulkes like correction to forces

   POTIM  = 2.0000    time-step for ionic-motion
   TEIN   =  100.0    initial temperature
   TEBEG  =  100.0;   TEEND  = 100.0 temperature during run
   SMASS  =   0.04    Nose mass-parameter (am)
   estimated Nose-frequenzy (Omega)   =  0.79E+14 period in steps = 0.40E+02 mass=   0.327E-28a.u.
   SCALEE = 1.0000    scale energy and forces
   NPACO  =    256;   APACO  = 16.0  distance and # of slots for P.C.
   PSTRESS=    0.0 pullay stress

  Mass of Ions in am
   POMASS = 127.60 95.94
  Ionic Valenz
   ZVAL   =   6.00  6.00
  Atomic Wigner-Seitz radii
   RWIGS  =  -1.00 -1.00
  virtual crystal weights 
   VCA    =   1.00  1.00
   NELECT =     324.0000    total number of electrons
   NUPDOWN=      -1.0000    fix difference up-down

 DOS related values:
   EMIN   =  10.00;   EMAX   =-10.00  energy-range for DOS
   EFERMI =   0.00
   ISMEAR =     0;   SIGMA  =   0.10  broadening in eV -4-tet -1-fermi 0-gaus

 Electronic relaxation 2 (details)
   IALGO  =     68    algorithm
   LDIAG  =      T    sub-space diagonalisation (order eigenvalues)
   LSUBROT=      F    optimize rotation matrix (better conditioning)
   TURBO    =      0    0=normal 1=particle mesh
   IRESTART =      0    0=no restart 2=restart with 2 vectors
   NREBOOT  =      0    no. of reboots
   NMIN     =      0    reboot dimension
   EREF     =   0.00    reference energy to select bands
   IMIX   =      4    mixing-type and parameters
     AMIX     =   0.40;   BMIX     =  1.00
     AMIX_MAG =   1.60;   BMIX_MAG =  1.00
     AMIN     =   0.10
     WC   =   100.;   INIMIX=   1;  MIXPRE=   1;  MAXMIX= -45

 Intra band minimization:
   WEIMIN = 0.0010     energy-eigenvalue tresh-hold
   EBREAK =  0.13E-08  absolut break condition
   DEPER  =   0.30     relativ break condition  

   TIME   =   0.40     timestep for ELM

  volume/ion in A,a.u.               =      52.71       355.70
  Fermi-wavevector in a.u.,A,eV,Ry     =   0.793409  1.499325  8.564837  0.629498
  Thomas-Fermi vector in A             =   1.899339
 
 Write flags
   LWAVE        =      F    write WAVECAR
   LDOWNSAMPLE  =      F    k-point downsampling of WAVECAR
   LCHARG       =      F    write CHGCAR
   LVTOT        =      F    write LOCPOT, total local potential
   LVHAR        =      F    write LOCPOT, Hartree potential only
   LELF         =      F    write electronic localiz. function (ELF)
   LORBIT       =      0    0 simple, 1 ext, 2 COOP (PROOUT), +10 PAW based schemes


 Dipole corrections
   LMONO  =      F    monopole corrections only (constant potential shift)
   LDIPOL =      F    correct potential (dipole corrections)
   IDIPOL =      0    1-x, 2-y, 3-z, 4-all directions 
   EPSILON=  1.0000000 bulk dielectric constant

 Exchange correlation treatment:
   GGA     =    --    GGA type
   LEXCH   =     8    internal setting for exchange type
   VOSKOWN=      0    Vosko Wilk Nusair interpolation
   LHFCALC =     F    Hartree Fock is set to
   LHFONE  =     F    Hartree Fock one center treatment
   AEXX    =    0.0000 exact exchange contribution

 Linear response parameters
   LEPSILON=     F    determine dielectric tensor
   LRPA    =     F    only Hartree local field effects (RPA)
   LNABLA  =     F    use nabla operator in PAW spheres
   LVEL    =     F    velocity operator in full k-point grid
   LINTERFAST=   F  fast interpolation
   KINTER  =     0    interpolate to denser k-point grid
   CSHIFT  =0.1000    complex shift for real part using Kramers Kronig
   OMEGAMAX=  -1.0    maximum frequency
   DEG_THRESHOLD= 0.2000000E-02 threshold for treating states as degnerate
   RTIME   =   -0.100 relaxation time in fs
  (WPLASMAI=    0.000 imaginary part of plasma frequency in eV, 0.658/RTIME)
   DFIELD  = 0.0000000 0.0000000 0.0000000 field for delta impulse in time
 
 Orbital magnetization related:
   ORBITALMAG=     F  switch on orbital magnetization
   LCHIMAG   =     F  perturbation theory with respect to B field
   DQ        =  0.001000  dq finite difference perturbation B field
   LLRAUG    =     F  two centre corrections for induced B field



--------------------------------------------------------------------------------------------------------


 molecular dynamics for ions
   using nose mass (canonical ensemble)
 charge density and potential will be updated during run
 non-spin polarized calculation
 RMM-DIIS sequential band-by-band and
  variant of blocked Davidson during initial phase
 perform sub-space diagonalisation
    before iterative eigenvector-optimisation
 modified Broyden-mixing scheme, WC =      100.0
 initial mixing is a Kerker type mixing with AMIX =  0.4000 and BMIX =      1.0000
 Hartree-type preconditioning will be used
 using additional bands           38
 reciprocal scheme for non local part
 use partial core corrections
 calculate Harris-corrections to forces 
   (improved forces if not selfconsistent)
 use gradient corrections 
 use of overlap-Matrix (Vanderbilt PP)
 Gauss-broadening in eV      SIGMA  =   0.10


--------------------------------------------------------------------------------------------------------


  energy-cutoff  :      550.00
  volume of cell :     2846.28
      direct lattice vectors                 reciprocal lattice vectors
    10.606999070  0.000000000  0.000000000     0.094277372  0.049872554  0.001530404
    -4.855805528  9.179248877  0.000000000     0.000000000  0.108941376  0.003425437
     0.011700889 -0.919182404 29.233349289     0.000000000  0.000000000  0.034207507

  length of vectors
    10.606999070 10.384481560 29.247798958     0.106666943  0.108995215  0.034207507


 
 k-points in units of 2pi/SCALE and weight: read from INCAR                         
   0.00000000  0.00000000  0.00000000       0.111
   0.03142579  0.01662418  0.00051013       0.222
   0.00000000  0.03631379  0.00114181       0.222
   0.03142579  0.05293798  0.00165195       0.222
  -0.03142579  0.01968961  0.00063168       0.222
 
 k-points in reciprocal lattice and weights: read from INCAR                         
   0.00000000  0.00000000  0.00000000       0.111
   0.33333333 -0.00000000 -0.00000000       0.222
   0.00000000  0.33333333 -0.00000000       0.222
   0.33333333  0.33333333  0.00000000       0.222
  -0.33333333  0.33333333 -0.00000000       0.222
 
 position of ions in fractional coordinates (direct lattice) 
   0.22290425  0.11188984  0.68276834
   0.22227053  0.44480009  0.68284927
   0.22231263  0.77820329  0.68280721
   0.55536305  0.11076470  0.68285868
   0.55637751  0.44468719  0.68290593
   0.55576299  0.77704802  0.68289420
   0.88841081  0.11104393  0.68271659
   0.88862475  0.44415021  0.68273054
   0.88857065  0.77754822  0.68275677
   0.22302755  0.00046822  0.43825242
   0.22195672  0.33307525  0.43802438
   0.22155606  0.66612745  0.43824593
   0.55558489  0.00001260  0.43810566
   0.55599325  0.33344444  0.43781515
   0.55555816  0.66666997  0.43810733
   0.88922611  0.00010994  0.43814566
   0.88877340  0.33356823  0.43819903
   0.88914784  0.66701202  0.43811263
   0.22152181  0.11072797  0.56166859
   0.22222204  0.44443775  0.56189922
   0.22220186  0.77771118  0.56188320
   0.55554571  0.11084683  0.56190919
   0.55564276  0.44481791  0.56188291
   0.55557839  0.77767514  0.56192029
   0.88915146  0.11154784  0.56202240
   0.88877797  0.44430605  0.56194081
   0.88862933  0.77707699  0.56178717
   0.22261419  0.00047471  0.31725696
   0.22237306  0.33274992  0.31718743
   0.22195551  0.66625829  0.31732122
   0.55590935  0.99996568  0.31715286
   0.55513208  0.33301607  0.31700432
   0.55624939  0.66674221  0.31729652
   0.88842117  0.00014181  0.31729133
   0.88880881  0.33277914  0.31738500
   0.88953430  0.66679996  0.31705094
   0.00029963  0.99975991  0.62209588
   0.00047238  0.33343709  0.62208701
   0.00038469  0.66668576  0.62249109
   0.33387216  0.00074413  0.62250338
   0.33276820  0.33278866  0.62219556
   0.33311831  0.66611619  0.62222281
   0.66566726  0.99952298  0.62228935
   0.66686189  0.33345439  0.62224754
   0.66674453  0.66663595  0.62235399
   0.00052317  0.22218292  0.37749576
   0.99990577  0.55600575  0.37782063
   0.00000495  0.88889015  0.37764877
   0.33392038  0.22257388  0.37742286
   0.33395014  0.55574535  0.37768515
   0.33320048  0.88874008  0.37755447
   0.66686539  0.22208043  0.37758133
   0.66663464  0.55580964  0.37778670
   0.66681316  0.88886541  0.37751614
 
 position of ions in cartesian coordinates  (Angst):
   1.82901891  0.39947606 19.95960524
   0.20575052  3.45526771 19.96197112
  -1.41274455  6.51569733 19.96074162
   5.36087356  0.38906510 19.96224633
   3.75017184  3.45417927 19.96362763
   2.12977390  6.50501281 19.96328458
   8.89215327  0.39175883 19.95809262
   7.27692344  3.44941140 19.95850039
   5.65743391  6.50973065 19.95926724
   2.36850742 -0.39853602 12.81158606
   0.74207133  2.65475631 12.80491977
  -0.87941263  5.71172174 12.81139643
   5.89815340 -0.40258334 12.80729576
   4.28340133  2.65833749 12.79880334
   2.66071145  5.71682903 12.80734468
   9.43661342 -0.40172663 12.80846523
   7.81260346  2.65912096 12.81002541
   6.19743594  5.71996390 12.80749953
   1.81858019  0.50012371 16.41945422
   0.20558039  3.56311686 16.42619625
  -1.41294474  6.62233131 16.42572783
   5.36099705  0.50099358 16.42648760
   3.74032754  3.56662144 16.42571938
   2.12335520  6.62196638 16.42681219
   8.89615027  0.50732429 16.42979706
   7.27637853  3.56186967 16.42741209
   5.65892913  6.61659819 16.42292057
   2.36267559 -0.28725954  9.27448362
   0.74665335  2.76284119  9.27245086
  -0.87722590  5.82407460  9.27636201
   1.04460202  8.88741255  9.27144046
   4.27493346  2.76545260  9.26709788
   2.66627894  5.82853930  9.27563998
   9.42650650 -0.29034686  9.27548840
   7.81539711  2.76292780  9.27822654
   6.20114834  5.82929511  9.26846101
  -4.84418246  8.60522548 18.18594614
  -1.60681614  2.48889057 18.18568678
  -3.22593235  5.54749167 18.19749957
   3.54505213 -0.56536360 18.19785872
   1.92099524  2.48283868 18.18886024
   0.30613545  5.54251006 18.18965668
   2.21452407  8.60287279 18.19160207
   5.46149457  2.48890187 18.19037956
   3.84238614  5.54716050 18.19349160
  -1.06891069  1.69248483 11.03546529
   7.91056462  4.75642909 11.04496254
  -4.31180635  7.81221578 11.03993838
   2.46553393  1.69614056 11.03333425
   0.84803673  4.75416331 11.04100182
  -0.77687411  7.81092497 11.03718172
   5.99947917  1.69146545 11.03796679
   4.37650992  4.75466017 11.04397048
   2.76114628  7.81211061 11.03606125
 


--------------------------------------------------------------------------------------------------------


 k-point   1 :   0.0000 0.0000 0.0000  plane waves:   83341
 k-point   2 :   0.3333-0.0000-0.0000  plane waves:   83340
 k-point   3 :   0.0000 0.3333-0.0000  plane waves:   83390
 k-point   4 :   0.3333 0.3333 0.0000  plane waves:   83360
 k-point   5 :  -0.3333 0.3333-0.0000  plane waves:   83378

 maximum and minimum number of plane-waves per node :     83390    83340

 maximum number of plane-waves:     83390
 maximum index in each direction: 
   IXMAX=   20   IYMAX=   19   IZMAX=   55
   IXMIN=  -20   IYMIN=  -20   IZMIN=  -55


 serial   3D FFT for wavefunctions
 parallel 3D FFT for charge:
    minimum data exchange during FFTs selected (reduces bandwidth)


 total amount of memory used by VASP MPI-rank0   354846. kBytes
=======================================================================

   base      :      30000. kBytes
   nonl-proj :     192153. kBytes
   fftplans  :      17721. kBytes
   grid      :      80453. kBytes
   one-center:        839. kBytes
   wavefun   :      33680. kBytes
 
     INWAV:  cpu time    0.0000: real time    0.0000
 Broyden mixing: mesh for mixing (old mesh)
   NGX = 41   NGY = 39   NGZ =111
  (NGX  =168   NGY  =160   NGZ  =448)
  gives a total of 177489 points

 initial charge density was supplied:
 charge density of overlapping atoms calculated
 number of electron     324.0000000 magnetization 
 keeping initial charge density in first step


--------------------------------------------------------------------------------------------------------


 Maximum index for augmentation-charges         2098 (set IRDMAX)


--------------------------------------------------------------------------------------------------------


 First call to EWALD:  gamma=   0.125
 Maximum number of real-space cells 4x 4x 2
 Maximum number of reciprocal cells 2x 2x 5

    FEWALD:  cpu time    0.0039: real time    0.0074


--------------------------------------- Iteration      1(   1)  ---------------------------------------


    POTLOK:  cpu time    0.2891: real time    0.3099
    SETDIJ:  cpu time    0.0213: real time    0.0487
     EDDAV:  cpu time   47.0625: real time   47.2770
       DOS:  cpu time    0.0052: real time    0.0243
    --------------------------------------------
      LOOP:  cpu time   47.3781: real time   47.6599

 eigenvalue-minimisations  :  2000
 total energy-change (2. order) : 0.2126835E+04  (-0.1160323E+05)
 number of electron     324.0000000 magnetization 
 augmentation part      324.0000000 magnetization 

 Free energy of the ion-electron system (eV)
  ---------------------------------------------------
  alpha Z        PSCENC =       252.14143973
  Ewald energy   TEWEN  =     57460.00140338
  -Hartree energ DENC   =    -69162.46603331
  -exchange      EXHF   =         0.00000000
  -V(xc)+E(xc)   XCENC  =     -2098.79735028
  PAW double counting   =      7476.04436201    -4809.59211051
  entropy T*S    EENTRO =        -0.11828905
  eigenvalues    EBANDS =      1056.53931141
  atomic energy  EATOM  =     11953.08265402
  Solvation  Ediel_sol  =         0.00000000
  ---------------------------------------------------
  free energy    TOTEN  =      2126.83538741 eV

  energy without entropy =     2126.95367646  energy(sigma->0) =     2126.89453194


--------------------------------------------------------------------------------------------------------




--------------------------------------- Iteration      1(   2)  ---------------------------------------


     EDDAV:  cpu time   67.7686: real time   67.9115
       DOS:  cpu time    0.0006: real time    0.0006
    --------------------------------------------
      LOOP:  cpu time   67.7692: real time   67.9121

 eigenvalue-minimisations  :  3120
 total energy-change (2. order) :-0.2227206E+04  (-0.2150054E+04)
 number of electron     324.0000000 magnetization 
 augmentation part      324.0000000 magnetization 

 Free energy of the ion-electron system (eV)
  ---------------------------------------------------
  alpha Z        PSCENC =       252.14143973
  Ewald energy   TEWEN  =     57460.00140338
  -Hartree energ DENC   =    -69162.46603331
  -exchange      EXHF   =         0.00000000
  -V(xc)+E(xc)   XCENC  =     -2098.79735028
  PAW double counting   =      7476.04436201    -4809.59211051
  entropy T*S    EENTRO =        -0.00158368
  eigenvalues    EBANDS =     -1170.78335012
  atomic energy  EATOM  =     11953.08265402
  Solvation  Ediel_sol  =         0.00000000
  ---------------------------------------------------
  free energy    TOTEN  =      -100.37056875 eV

  energy without entropy =     -100.36898507  energy(sigma->0) =     -100.36977691


--------------------------------------------------------------------------------------------------------




--------------------------------------- Iteration      1(   3)  ---------------------------------------


     EDDAV:  cpu time   56.1494: real time   56.2597
       DOS:  cpu time    0.0004: real time    0.0004
    --------------------------------------------
      LOOP:  cpu time   56.1498: real time   56.2600

 eigenvalue-minimisations  :  2480
 total energy-change (2. order) :-0.2224266E+03  (-0.2190931E+03)
 number of electron     324.0000000 magnetization 
 augmentation part      324.0000000 magnetization 

 Free energy of the ion-electron system (eV)
  ---------------------------------------------------
  alpha Z        PSCENC =       252.14143973
  Ewald energy   TEWEN  =     57460.00140338
  -Hartree energ DENC   =    -69162.46603331
  -exchange      EXHF   =         0.00000000
  -V(xc)+E(xc)   XCENC  =     -2098.79735028
  PAW double counting   =      7476.04436201    -4809.59211051
  entropy T*S    EENTRO =        -0.00000000
  eigenvalues    EBANDS =     -1393.21148899
  atomic energy  EATOM  =     11953.08265402
  Solvation  Ediel_sol  =         0.00000000
  ---------------------------------------------------
  free energy    TOTEN  =      -322.79712394 eV

  energy without entropy =     -322.79712394  energy(sigma->0) =     -322.79712394


--------------------------------------------------------------------------------------------------------




--------------------------------------- Iteration      1(   4)  ---------------------------------------


     EDDAV:  cpu time   67.7351: real time   67.8729
       DOS:  cpu time    0.0004: real time    0.0004
    --------------------------------------------
      LOOP:  cpu time   67.7355: real time   67.8732

 eigenvalue-minimisations  :  3120
 total energy-change (2. order) :-0.1124167E+02  (-0.1117067E+02)
 number of electron     324.0000000 magnetization 
 augmentation part      324.0000000 magnetization 

 Free energy of the ion-electron system (eV)
  ---------------------------------------------------
  alpha Z        PSCENC =       252.14143973
  Ewald energy   TEWEN  =     57460.00140338
  -Hartree energ DENC   =    -69162.46603331
  -exchange      EXHF   =         0.00000000
  -V(xc)+E(xc)   XCENC  =     -2098.79735028
  PAW double counting   =      7476.04436201    -4809.59211051
  entropy T*S    EENTRO =        -0.00000000
  eigenvalues    EBANDS =     -1404.45315546
  atomic energy  EATOM  =     11953.08265402
  Solvation  Ediel_sol  =         0.00000000
  ---------------------------------------------------
  free energy    TOTEN  =      -334.03879041 eV

  energy without entropy =     -334.03879041  energy(sigma->0) =     -334.03879041


--------------------------------------------------------------------------------------------------------




--------------------------------------- Iteration      1(   5)  ---------------------------------------


     EDDAV:  cpu time   63.3299: real time   63.4834
       DOS:  cpu time    0.0004: real time    0.0004
    CHARGE:  cpu time    1.0840: real time    1.0996
    MIXING:  cpu time    0.0108: real time    0.0210
    --------------------------------------------
      LOOP:  cpu time   64.4251: real time   64.6045

 eigenvalue-minimisations  :  2880
 total energy-change (2. order) :-0.2935172E+00  (-0.2930467E+00)
 number of electron     323.9999995 magnetization 
 augmentation part      -25.3382560 magnetization 

 Broyden mixing:
  rms(total) = 0.18737E+01    rms(broyden)= 0.18737E+01
  rms(prec ) = 0.19855E+01
  weight for this iteration     100.00

 Free energy of the ion-electron system (eV)
  ---------------------------------------------------
  alpha Z        PSCENC =       252.14143973
  Ewald energy   TEWEN  =     57460.00140338
  -Hartree energ DENC   =    -69162.46603331
  -exchange      EXHF   =         0.00000000
  -V(xc)+E(xc)   XCENC  =     -2098.79735028
  PAW double counting   =      7476.04436201    -4809.59211051
  entropy T*S    EENTRO =        -0.00000000
  eigenvalues    EBANDS =     -1404.74667270
  atomic energy  EATOM  =     11953.08265402
  Solvation  Ediel_sol  =         0.00000000
  ---------------------------------------------------
  free energy    TOTEN  =      -334.33230765 eV

  energy without entropy =     -334.33230765  energy(sigma->0) =     -334.33230765


--------------------------------------------------------------------------------------------------------




--------------------------------------- Iteration      1(   6)  ---------------------------------------


    POTLOK:  cpu time    0.2418: real time    0.2421
    SETDIJ:  cpu time    0.0114: real time    0.0114
    EDDIAG:  cpu time    2.3502: real time    2.3654
  RMM-DIIS:  cpu time   40.5838: real time   40.6871
    ORTHCH:  cpu time    0.2037: real time    0.2039
       DOS:  cpu time    0.0005: real time    0.0005
    CHARGE:  cpu time    1.0857: real time    1.0881
    MIXING:  cpu time    0.0085: real time    0.0406
    --------------------------------------------
      LOOP:  cpu time   44.4856: real time   44.6391

 eigenvalue-minimisations  :  2132
 total energy-change (2. order) : 0.8560703E+01  (-0.4779557E+01)
 number of electron     323.9999996 magnetization 
 augmentation part      -20.1483372 magnetization 

 Broyden mixing:
  rms(total) = 0.70176E+00    rms(broyden)= 0.70176E+00
  rms(prec ) = 0.80424E+00
  weight for this iteration     100.00

 eigenvalues of (default mixing * dielectric matrix)
  average eigenvalue GAMMA=   1.0863
  1.0863

 Free energy of the ion-electron system (eV)
  ---------------------------------------------------
  alpha Z        PSCENC =       252.14143973
  Ewald energy   TEWEN  =     57460.00140338
  -Hartree energ DENC   =    -69143.95576570
  -exchange      EXHF   =         0.00000000
  -V(xc)+E(xc)   XCENC  =     -2092.22486379
  PAW double counting   =      7731.09851270    -5076.61659663
  entropy T*S    EENTRO =        -0.00000131
  eigenvalues    EBANDS =     -1409.29838657
  atomic energy  EATOM  =     11953.08265402
  Solvation  Ediel_sol  =         0.00000000
  ---------------------------------------------------
  free energy    TOTEN  =      -325.77160415 eV

  energy without entropy =     -325.77160284  energy(sigma->0) =     -325.77160350


--------------------------------------------------------------------------------------------------------




--------------------------------------- Iteration      1(   7)  ---------------------------------------


    POTLOK:  cpu time    0.2420: real time    0.2422
    SETDIJ:  cpu time    0.0113: real time    0.0113
    EDDIAG:  cpu time    2.3447: real time    2.3556
  RMM-DIIS:  cpu time   37.8926: real time   37.9763
    ORTHCH:  cpu time    0.2015: real time    0.2017
       DOS:  cpu time    0.0004: real time    0.0004
    CHARGE:  cpu time    1.0806: real time    1.0817
    MIXING:  cpu time    0.0065: real time    0.0065
    --------------------------------------------
      LOOP:  cpu time   41.7796: real time   41.8757

 eigenvalue-minimisations  :  2009
 total energy-change (2. order) : 0.2924878E+01  (-0.9393558E+00)
 number of electron     323.9999996 magnetization 
 augmentation part      -21.6851083 magnetization 

 Broyden mixing:
  rms(total) = 0.45803E+00    rms(broyden)= 0.45803E+00
  rms(prec ) = 0.48591E+00
  weight for this iteration     100.00

 eigenvalues of (default mixing * dielectric matrix)
  average eigenvalue GAMMA=   1.5048
  0.7570  2.2526

 Free energy of the ion-electron system (eV)
  ---------------------------------------------------
  alpha Z        PSCENC =       252.14143973
  Ewald energy   TEWEN  =     57460.00140338
  -Hartree energ DENC   =    -69228.15541247
  -exchange      EXHF   =         0.00000000
  -V(xc)+E(xc)   XCENC  =     -2090.55830850
  PAW double counting   =      8050.61622650    -5401.81446361
  entropy T*S    EENTRO =        -0.00000000
  eigenvalues    EBANDS =     -1318.16026509
  atomic energy  EATOM  =     11953.08265402
  Solvation  Ediel_sol  =         0.00000000
  ---------------------------------------------------
  free energy    TOTEN  =      -322.84672603 eV

  energy without entropy =     -322.84672603  energy(sigma->0) =     -322.84672603


--------------------------------------------------------------------------------------------------------




--------------------------------------- Iteration      1(   8)  ---------------------------------------


    POTLOK:  cpu time    0.2428: real time    0.2431
    SETDIJ:  cpu time    0.0115: real time    0.0115
    EDDIAG:  cpu time    2.3543: real time    2.3569
  RMM-DIIS:  cpu time   37.8660: real time   37.9409
    ORTHCH:  cpu time    0.2014: real time    0.2017
       DOS:  cpu time    0.0004: real time    0.0004
    CHARGE:  cpu time    1.0798: real time    1.0809
    MIXING:  cpu time    0.0079: real time    0.0079
    --------------------------------------------
      LOOP:  cpu time   41.7642: real time   41.8433

 eigenvalue-minimisations  :  2016
 total energy-change (2. order) : 0.4233181E+00  (-0.6818060E+00)
 number of electron     323.9999996 magnetization 
 augmentation part      -21.4961531 magnetization 

 Broyden mixing:
  rms(total) = 0.13010E+00    rms(broyden)= 0.13010E+00
  rms(prec ) = 0.15130E+00
  weight for this iteration     100.00

 eigenvalues of (default mixing * dielectric matrix)
  average eigenvalue GAMMA=   1.2662
  2.1897  0.8045  0.8045

 Free energy of the ion-electron system (eV)
  ---------------------------------------------------
  alpha Z        PSCENC =       252.14143973
  Ewald energy   TEWEN  =     57460.00140338
  -Hartree energ DENC   =    -69288.02186156
  -exchange      EXHF   =         0.00000000
  -V(xc)+E(xc)   XCENC  =     -2086.53879672
  PAW double counting   =      8394.37612309    -5752.38205106
  entropy T*S    EENTRO =        -0.00000000
  eigenvalues    EBANDS =     -1255.08231882
  atomic energy  EATOM  =     11953.08265402
  Solvation  Ediel_sol  =         0.00000000
  ---------------------------------------------------
  free energy    TOTEN  =      -322.42340792 eV

  energy without entropy =     -322.42340792  energy(sigma->0) =     -322.42340792


--------------------------------------------------------------------------------------------------------




--------------------------------------- Iteration      1(   9)  ---------------------------------------


    POTLOK:  cpu time    0.2423: real time    0.2426
    SETDIJ:  cpu time    0.0114: real time    0.0114
    EDDIAG:  cpu time    2.3515: real time    2.3575
  RMM-DIIS:  cpu time   42.4863: real time   42.5773
    ORTHCH:  cpu time    0.2057: real time    0.2070
       DOS:  cpu time    0.0004: real time    0.0004
    CHARGE:  cpu time    1.0784: real time    1.0795
    MIXING:  cpu time    0.0067: real time    0.0067
    --------------------------------------------
      LOOP:  cpu time   46.3827: real time   46.4824

 eigenvalue-minimisations  :  2229
 total energy-change (2. order) :-0.2896416E-01  (-0.1198181E+00)
 number of electron     323.9999996 magnetization 
 augmentation part      -21.1738687 magnetization 

 Broyden mixing:
  rms(total) = 0.10109E+00    rms(broyden)= 0.10109E+00
  rms(prec ) = 0.11310E+00
  weight for this iteration     100.00

 eigenvalues of (default mixing * dielectric matrix)
  average eigenvalue GAMMA=   1.1760
  2.0042  1.5236  0.7679  0.4082

 Free energy of the ion-electron system (eV)
  ---------------------------------------------------
  alpha Z        PSCENC =       252.14143973
  Ewald energy   TEWEN  =     57460.00140338
  -Hartree energ DENC   =    -69284.97056062
  -exchange      EXHF   =         0.00000000
  -V(xc)+E(xc)   XCENC  =     -2086.28132856
  PAW double counting   =      8389.65379476    -5747.68109635
  entropy T*S    EENTRO =        -0.00000000
  eigenvalues    EBANDS =     -1258.39867846
  atomic energy  EATOM  =     11953.08265402
  Solvation  Ediel_sol  =         0.00000000
  ---------------------------------------------------
  free energy    TOTEN  =      -322.45237209 eV

  energy without entropy =     -322.45237209  energy(sigma->0) =     -322.45237209


--------------------------------------------------------------------------------------------------------




--------------------------------------- Iteration      1(  10)  ---------------------------------------


    POTLOK:  cpu time    0.2453: real time    0.2456
    SETDIJ:  cpu time    0.0115: real time    0.0116
    EDDIAG:  cpu time    2.3441: real time    2.3510
  RMM-DIIS:  cpu time   42.8950: real time   42.9842
    ORTHCH:  cpu time    0.2016: real time    0.2018
       DOS:  cpu time    0.0004: real time    0.0004
    CHARGE:  cpu time    1.0822: real time    1.0832
    MIXING:  cpu time    0.0082: real time    0.0082
    --------------------------------------------
      LOOP:  cpu time   46.7884: real time   46.8859

 eigenvalue-minimisations  :  2273
 total energy-change (2. order) : 0.2099430E-03  (-0.3993607E-01)
 number of electron     323.9999996 magnetization 
 augmentation part      -20.9598398 magnetization 

 Broyden mixing:
  rms(total) = 0.69949E-01    rms(broyden)= 0.69949E-01
  rms(prec ) = 0.79058E-01
  weight for this iteration     100.00

 eigenvalues of (default mixing * dielectric matrix)
  average eigenvalue GAMMA=   1.3038
  2.4331  1.8364  0.9361  0.9361  0.3772

 Free energy of the ion-electron system (eV)
  ---------------------------------------------------
  alpha Z        PSCENC =       252.14143973
  Ewald energy   TEWEN  =     57460.00140338
  -Hartree energ DENC   =    -69285.71901139
  -exchange      EXHF   =         0.00000000
  -V(xc)+E(xc)   XCENC  =     -2086.06388244
  PAW double counting   =      8398.12550563    -5756.09898663
  entropy T*S    EENTRO =        -0.00000000
  eigenvalues    EBANDS =     -1257.92128444
  atomic energy  EATOM  =     11953.08265402
  Solvation  Ediel_sol  =         0.00000000
  ---------------------------------------------------
  free energy    TOTEN  =      -322.45216214 eV

  energy without entropy =     -322.45216214  energy(sigma->0) =     -322.45216214


--------------------------------------------------------------------------------------------------------




--------------------------------------- Iteration      1(  11)  ---------------------------------------


    POTLOK:  cpu time    0.2444: real time    0.2446
    SETDIJ:  cpu time    0.0113: real time    0.0113
    EDDIAG:  cpu time    2.3305: real time    2.3372
  RMM-DIIS:  cpu time   40.1640: real time   40.2400
    ORTHCH:  cpu time    0.2024: real time    0.2026
       DOS:  cpu time    0.0004: real time    0.0004
    CHARGE:  cpu time    1.0826: real time    1.0837
    MIXING:  cpu time    0.0082: real time    0.0083
    --------------------------------------------
      LOOP:  cpu time   44.0438: real time   44.1280

 eigenvalue-minimisations  :  2116
 total energy-change (2. order) : 0.1311407E-01  (-0.1638807E-01)
 number of electron     323.9999996 magnetization 
 augmentation part      -21.2530501 magnetization 

 Broyden mixing:
  rms(total) = 0.31639E-01    rms(broyden)= 0.31638E-01
  rms(prec ) = 0.36497E-01
  weight for this iteration     100.00

 eigenvalues of (default mixing * dielectric matrix)
  average eigenvalue GAMMA=   1.2274
  2.5527  1.7158  1.2895  0.7160  0.7160  0.3746

 Free energy of the ion-electron system (eV)
  ---------------------------------------------------
  alpha Z        PSCENC =       252.14143973
  Ewald energy   TEWEN  =     57460.00140338
  -Hartree energ DENC   =    -69303.14151435
  -exchange      EXHF   =         0.00000000
  -V(xc)+E(xc)   XCENC  =     -2085.77244524
  PAW double counting   =      8449.80498168    -5808.07678391
  entropy T*S    EENTRO =        -0.00000000
  eigenvalues    EBANDS =     -1240.47878339
  atomic energy  EATOM  =     11953.08265402
  Solvation  Ediel_sol  =         0.00000000
  ---------------------------------------------------
  free energy    TOTEN  =      -322.43904807 eV

  energy without entropy =     -322.43904807  energy(sigma->0) =     -322.43904807


--------------------------------------------------------------------------------------------------------




--------------------------------------- Iteration      1(  12)  ---------------------------------------


    POTLOK:  cpu time    0.2449: real time    0.2453
    SETDIJ:  cpu time    0.0115: real time    0.0115
    EDDIAG:  cpu time    2.3468: real time    2.3495
  RMM-DIIS:  cpu time   46.8360: real time   46.9306
    ORTHCH:  cpu time    0.2060: real time    0.2062
       DOS:  cpu time    0.0004: real time    0.0004
    CHARGE:  cpu time    1.0845: real time    1.0855
    MIXING:  cpu time    0.0070: real time    0.0070
    --------------------------------------------
      LOOP:  cpu time   50.7371: real time   50.8360

 eigenvalue-minimisations  :  2471
 total energy-change (2. order) :-0.3294601E-03  (-0.3628469E-02)
 number of electron     323.9999996 magnetization 
 augmentation part      -21.2470882 magnetization 

 Broyden mixing:
  rms(total) = 0.22929E-01    rms(broyden)= 0.22929E-01
  rms(prec ) = 0.26701E-01
  weight for this iteration     100.00

 eigenvalues of (default mixing * dielectric matrix)
  average eigenvalue GAMMA=   1.2119
  2.4906  1.7732  1.7732  0.8315  0.8315  0.3721  0.4111

 Free energy of the ion-electron system (eV)
  ---------------------------------------------------
  alpha Z        PSCENC =       252.14143973
  Ewald energy   TEWEN  =     57460.00140338
  -Hartree energ DENC   =    -69306.20383125
  -exchange      EXHF   =         0.00000000
  -V(xc)+E(xc)   XCENC  =     -2085.68190154
  PAW double counting   =      8452.47551394    -5810.76382958
  entropy T*S    EENTRO =        -0.00000000
  eigenvalues    EBANDS =     -1237.49082624
  atomic energy  EATOM  =     11953.08265402
  Solvation  Ediel_sol  =         0.00000000
  ---------------------------------------------------
  free energy    TOTEN  =      -322.43937753 eV

  energy without entropy =     -322.43937753  energy(sigma->0) =     -322.43937753


--------------------------------------------------------------------------------------------------------




--------------------------------------- Iteration      1(  13)  ---------------------------------------


    POTLOK:  cpu time    0.2468: real time    0.2471
    SETDIJ:  cpu time    0.0113: real time    0.0113
    EDDIAG:  cpu time    2.3503: real time    2.3529
  RMM-DIIS:  cpu time   44.8946: real time   44.9815
    ORTHCH:  cpu time    0.2009: real time    0.2011
       DOS:  cpu time    0.0004: real time    0.0004
    CHARGE:  cpu time    1.0788: real time    1.0867
    MIXING:  cpu time    0.0070: real time    0.0070
    --------------------------------------------
      LOOP:  cpu time   48.7900: real time   48.8879

 eigenvalue-minimisations  :  2369
 total energy-change (2. order) : 0.8195972E-03  (-0.2007926E-02)
 number of electron     323.9999996 magnetization 
 augmentation part      -21.1498551 magnetization 

 Broyden mixing:
  rms(total) = 0.10189E-01    rms(broyden)= 0.10189E-01
  rms(prec ) = 0.13047E-01
  weight for this iteration     100.00

 eigenvalues of (default mixing * dielectric matrix)
  average eigenvalue GAMMA=   1.3738
  2.7941  2.7941  1.6586  1.3143  0.8200  0.8200  0.3718  0.4177

 Free energy of the ion-electron system (eV)
  ---------------------------------------------------
  alpha Z        PSCENC =       252.14143973
  Ewald energy   TEWEN  =     57460.00140338
  -Hartree energ DENC   =    -69308.45976138
  -exchange      EXHF   =         0.00000000
  -V(xc)+E(xc)   XCENC  =     -2085.61332057
  PAW double counting   =      8447.39362739    -5805.63574047
  entropy T*S    EENTRO =        -0.00000000
  eigenvalues    EBANDS =     -1235.34886006
  atomic energy  EATOM  =     11953.08265402
  Solvation  Ediel_sol  =         0.00000000
  ---------------------------------------------------
  free energy    TOTEN  =      -322.43855794 eV

  energy without entropy =     -322.43855794  energy(sigma->0) =     -322.43855794


--------------------------------------------------------------------------------------------------------




--------------------------------------- Iteration      1(  14)  ---------------------------------------


    POTLOK:  cpu time    0.2460: real time    0.2462
    SETDIJ:  cpu time    0.0123: real time    0.0123
    EDDIAG:  cpu time    2.3764: real time    2.3792
  RMM-DIIS:  cpu time   42.0166: real time   42.0995
    ORTHCH:  cpu time    0.2017: real time    0.2019
       DOS:  cpu time    0.0004: real time    0.0004
    CHARGE:  cpu time    1.0847: real time    1.0874
    MIXING:  cpu time    0.0072: real time    0.0072
    --------------------------------------------
      LOOP:  cpu time   45.9452: real time   46.0342

 eigenvalue-minimisations  :  2187
 total energy-change (2. order) :-0.4939503E-03  (-0.4659427E-03)
 number of electron     323.9999996 magnetization 
 augmentation part      -21.1666179 magnetization 

 Broyden mixing:
  rms(total) = 0.51955E-02    rms(broyden)= 0.51955E-02
  rms(prec ) = 0.67548E-02
  weight for this iteration     100.00

 eigenvalues of (default mixing * dielectric matrix)
  average eigenvalue GAMMA=   1.3331
  3.3141  2.5683  1.5545  1.5545  0.8177  0.8177  0.5813  0.3720  0.4177

 Free energy of the ion-electron system (eV)
  ---------------------------------------------------
  alpha Z        PSCENC =       252.14143973
  Ewald energy   TEWEN  =     57460.00140338
  -Hartree energ DENC   =    -69317.30075957
  -exchange      EXHF   =         0.00000000
  -V(xc)+E(xc)   XCENC  =     -2085.57905899
  PAW double counting   =      8445.58469559    -5803.71995320
  entropy T*S    EENTRO =        -0.00000000
  eigenvalues    EBANDS =     -1226.64947285
  atomic energy  EATOM  =     11953.08265402
  Solvation  Ediel_sol  =         0.00000000
  ---------------------------------------------------
  free energy    TOTEN  =      -322.43905189 eV

  energy without entropy =     -322.43905189  energy(sigma->0) =     -322.43905189


--------------------------------------------------------------------------------------------------------




--------------------------------------- Iteration      1(  15)  ---------------------------------------


    POTLOK:  cpu time    0.2482: real time    0.2484
    SETDIJ:  cpu time    0.0127: real time    0.0127
    EDDIAG:  cpu time    2.3506: real time    2.3532
  RMM-DIIS:  cpu time   51.7161: real time   51.8468
    ORTHCH:  cpu time    0.2026: real time    0.2028
       DOS:  cpu time    0.0004: real time    0.0004
    CHARGE:  cpu time    1.0785: real time    1.0836
    MIXING:  cpu time    0.0092: real time    0.0092
    --------------------------------------------
      LOOP:  cpu time   55.6183: real time   55.7571

 eigenvalue-minimisations  :  2695
 total energy-change (2. order) :-0.5922721E-03  (-0.2004010E-03)
 number of electron     323.9999996 magnetization 
 augmentation part      -21.1698203 magnetization 

 Broyden mixing:
  rms(total) = 0.42164E-02    rms(broyden)= 0.42164E-02
  rms(prec ) = 0.52627E-02
  weight for this iteration     100.00

 eigenvalues of (default mixing * dielectric matrix)
  average eigenvalue GAMMA=   1.2996
  3.4289  2.4607  1.7196  1.7196  0.8557  0.8164  0.8164  0.4221  0.3726  0.3837

 Free energy of the ion-electron system (eV)
  ---------------------------------------------------
  alpha Z        PSCENC =       252.14143973
  Ewald energy   TEWEN  =     57460.00140338
  -Hartree energ DENC   =    -69319.32141785
  -exchange      EXHF   =         0.00000000
  -V(xc)+E(xc)   XCENC  =     -2085.56554942
  PAW double counting   =      8445.84533645    -5803.98198042
  entropy T*S    EENTRO =        -0.00000000
  eigenvalues    EBANDS =     -1224.64153006
  atomic energy  EATOM  =     11953.08265402
  Solvation  Ediel_sol  =         0.00000000
  ---------------------------------------------------
  free energy    TOTEN  =      -322.43964416 eV

  energy without entropy =     -322.43964416  energy(sigma->0) =     -322.43964416


--------------------------------------------------------------------------------------------------------




--------------------------------------- Iteration      1(  16)  ---------------------------------------


    POTLOK:  cpu time    0.2557: real time    0.2560
    SETDIJ:  cpu time    0.0115: real time    0.0115
    EDDIAG:  cpu time    2.3565: real time    2.3590
  RMM-DIIS:  cpu time   47.2385: real time   47.3263
    ORTHCH:  cpu time    0.2005: real time    0.2022
       DOS:  cpu time    0.0004: real time    0.0004
    CHARGE:  cpu time    1.0842: real time    1.0852
    MIXING:  cpu time    0.0075: real time    0.0075
    --------------------------------------------
      LOOP:  cpu time   51.1549: real time   51.2481

 eigenvalue-minimisations  :  2482
 total energy-change (2. order) :-0.7095825E-03  (-0.3909036E-04)
 number of electron     323.9999996 magnetization 
 augmentation part      -21.1707974 magnetization 

 Broyden mixing:
  rms(total) = 0.27835E-02    rms(broyden)= 0.27835E-02
  rms(prec ) = 0.37261E-02
  weight for this iteration     100.00

 eigenvalues of (default mixing * dielectric matrix)
  average eigenvalue GAMMA=   1.3608
  3.8178  2.2897  2.0603  2.0603  1.0744  0.8211  0.8211  0.8642  0.4186  0.3725
  0.3683

 Free energy of the ion-electron system (eV)
  ---------------------------------------------------
  alpha Z        PSCENC =       252.14143973
  Ewald energy   TEWEN  =     57460.00140338
  -Hartree energ DENC   =    -69320.63278655
  -exchange      EXHF   =         0.00000000
  -V(xc)+E(xc)   XCENC  =     -2085.55505175
  PAW double counting   =      8445.91508555    -5804.06706666
  entropy T*S    EENTRO =        -0.00000000
  eigenvalues    EBANDS =     -1223.32603147
  atomic energy  EATOM  =     11953.08265402
  Solvation  Ediel_sol  =         0.00000000
  ---------------------------------------------------
  free energy    TOTEN  =      -322.44035374 eV

  energy without entropy =     -322.44035374  energy(sigma->0) =     -322.44035374


--------------------------------------------------------------------------------------------------------




--------------------------------------- Iteration      1(  17)  ---------------------------------------


    POTLOK:  cpu time    0.2478: real time    0.2481
    SETDIJ:  cpu time    0.0127: real time    0.0127
    EDDIAG:  cpu time    2.3459: real time    2.3514
  RMM-DIIS:  cpu time   39.6357: real time   39.7221
    ORTHCH:  cpu time    0.2054: real time    0.2056
       DOS:  cpu time    0.0004: real time    0.0004
    CHARGE:  cpu time    1.0813: real time    1.0857
    MIXING:  cpu time    0.0095: real time    0.0095
    --------------------------------------------
      LOOP:  cpu time   43.5386: real time   43.6353

 eigenvalue-minimisations  :  2057
 total energy-change (2. order) :-0.1415397E-02  (-0.2988470E-04)
 number of electron     323.9999996 magnetization 
 augmentation part      -21.1694936 magnetization 

 Broyden mixing:
  rms(total) = 0.17806E-02    rms(broyden)= 0.17806E-02
  rms(prec ) = 0.22831E-02
  weight for this iteration     100.00

 eigenvalues of (default mixing * dielectric matrix)
  average eigenvalue GAMMA=   1.4115
  4.5393  2.6622  2.4188  1.5348  1.5348  0.9259  0.8215  0.8215  0.5291  0.4179
  0.3723  0.3595

 Free energy of the ion-electron system (eV)
  ---------------------------------------------------
  alpha Z        PSCENC =       252.14143973
  Ewald energy   TEWEN  =     57460.00140338
  -Hartree energ DENC   =    -69323.71018173
  -exchange      EXHF   =         0.00000000
  -V(xc)+E(xc)   XCENC  =     -2085.54045205
  PAW double counting   =      8444.88504595    -5803.04793450
  entropy T*S    EENTRO =        -0.00000000
  eigenvalues    EBANDS =     -1220.25374395
  atomic energy  EATOM  =     11953.08265402
  Solvation  Ediel_sol  =         0.00000000
  ---------------------------------------------------
  free energy    TOTEN  =      -322.44176914 eV

  energy without entropy =     -322.44176914  energy(sigma->0) =     -322.44176914


--------------------------------------------------------------------------------------------------------




--------------------------------------- Iteration      1(  18)  ---------------------------------------


    POTLOK:  cpu time    0.2558: real time    0.2560
    SETDIJ:  cpu time    0.0115: real time    0.0115
    EDDIAG:  cpu time    2.3579: real time    2.3606
  RMM-DIIS:  cpu time   40.5952: real time   40.6740
    ORTHCH:  cpu time    0.2061: real time    0.2063
       DOS:  cpu time    0.0004: real time    0.0004
    CHARGE:  cpu time    1.1030: real time    1.1040
    MIXING:  cpu time    0.0076: real time    0.0077
    --------------------------------------------
      LOOP:  cpu time   44.5375: real time   44.6204

 eigenvalue-minimisations  :  2127
 total energy-change (2. order) :-0.5869695E-03  (-0.1540327E-04)
 number of electron     323.9999996 magnetization 
 augmentation part      -21.1686896 magnetization 

 Broyden mixing:
  rms(total) = 0.13509E-02    rms(broyden)= 0.13509E-02
  rms(prec ) = 0.16181E-02
  weight for this iteration     100.00

 eigenvalues of (default mixing * dielectric matrix)
  average eigenvalue GAMMA=   1.4165
  4.9528  2.8347  2.3359  1.7047  1.7047  0.9335  0.8286  0.8286  0.7137  0.4198
  0.4236  0.3718  0.3616

 Free energy of the ion-electron system (eV)
  ---------------------------------------------------
  alpha Z        PSCENC =       252.14143973
  Ewald energy   TEWEN  =     57460.00140338
  -Hartree energ DENC   =    -69325.13076173
  -exchange      EXHF   =         0.00000000
  -V(xc)+E(xc)   XCENC  =     -2085.53590105
  PAW double counting   =      8444.48969550    -5802.64983039
  entropy T*S    EENTRO =        -0.00000000
  eigenvalues    EBANDS =     -1218.84105558
  atomic energy  EATOM  =     11953.08265402
  Solvation  Ediel_sol  =         0.00000000
  ---------------------------------------------------
  free energy    TOTEN  =      -322.44235611 eV

  energy without entropy =     -322.44235611  energy(sigma->0) =     -322.44235611


--------------------------------------------------------------------------------------------------------




--------------------------------------- Iteration      1(  19)  ---------------------------------------


    POTLOK:  cpu time    0.2478: real time    0.2492
    SETDIJ:  cpu time    0.0121: real time    0.0121
    EDDIAG:  cpu time    2.3482: real time    2.3548
  RMM-DIIS:  cpu time   44.0951: real time   44.2041
    ORTHCH:  cpu time    0.2075: real time    0.2076
       DOS:  cpu time    0.0004: real time    0.0004
    CHARGE:  cpu time    1.0816: real time    1.0826
    MIXING:  cpu time    0.0080: real time    0.0080
    --------------------------------------------
      LOOP:  cpu time   48.0007: real time   48.1187

 eigenvalue-minimisations  :  2329
 total energy-change (2. order) :-0.2824443E-03  (-0.4702287E-05)
 number of electron     323.9999996 magnetization 
 augmentation part      -21.1683833 magnetization 

 Broyden mixing:
  rms(total) = 0.84778E-03    rms(broyden)= 0.84778E-03
  rms(prec ) = 0.10504E-02
  weight for this iteration     100.00

 eigenvalues of (default mixing * dielectric matrix)
  average eigenvalue GAMMA=   1.5506
  6.2773  3.1141  2.4671  1.8758  1.8758  1.0935  1.0935  0.8234  0.8234  0.7012
  0.4204  0.4103  0.3721  0.3599

 Free energy of the ion-electron system (eV)
  ---------------------------------------------------
  alpha Z        PSCENC =       252.14143973
  Ewald energy   TEWEN  =     57460.00140338
  -Hartree energ DENC   =    -69325.65112391
  -exchange      EXHF   =         0.00000000
  -V(xc)+E(xc)   XCENC  =     -2085.53541075
  PAW double counting   =      8444.58954171    -5802.74543219
  entropy T*S    EENTRO =        -0.00000000
  eigenvalues    EBANDS =     -1218.32571056
  atomic energy  EATOM  =     11953.08265402
  Solvation  Ediel_sol  =         0.00000000
  ---------------------------------------------------
  free energy    TOTEN  =      -322.44263855 eV

  energy without entropy =     -322.44263855  energy(sigma->0) =     -322.44263855


--------------------------------------------------------------------------------------------------------




--------------------------------------- Iteration      1(  20)  ---------------------------------------


    POTLOK:  cpu time    0.2505: real time    0.2507
    SETDIJ:  cpu time    0.0115: real time    0.0115
    EDDIAG:  cpu time    2.3567: real time    2.3595
  RMM-DIIS:  cpu time   40.1972: real time   40.2846
    ORTHCH:  cpu time    0.2042: real time    0.2046
       DOS:  cpu time    0.0004: real time    0.0004
    CHARGE:  cpu time    1.0774: real time    1.0783
    MIXING:  cpu time    0.0079: real time    0.0079
    --------------------------------------------
      LOOP:  cpu time   44.1058: real time   44.1976

 eigenvalue-minimisations  :  2093
 total energy-change (2. order) :-0.4018358E-03  (-0.5482165E-05)
 number of electron     323.9999996 magnetization 
 augmentation part      -21.1679247 magnetization 

 Broyden mixing:
  rms(total) = 0.36612E-03    rms(broyden)= 0.36612E-03
  rms(prec ) = 0.46530E-03
  weight for this iteration     100.00

 eigenvalues of (default mixing * dielectric matrix)
  average eigenvalue GAMMA=   1.5567
  6.6895  3.2401  2.4832  1.8415  1.8415  1.2497  1.2497  0.8212  0.8212  0.8114
  0.7402  0.4202  0.4102  0.3721  0.3591

 Free energy of the ion-electron system (eV)
  ---------------------------------------------------
  alpha Z        PSCENC =       252.14143973
  Ewald energy   TEWEN  =     57460.00140338
  -Hartree energ DENC   =    -69326.27617281
  -exchange      EXHF   =         0.00000000
  -V(xc)+E(xc)   XCENC  =     -2085.53496161
  PAW double counting   =      8445.07479272    -5803.22971329
  entropy T*S    EENTRO =        -0.00000000
  eigenvalues    EBANDS =     -1217.70248253
  atomic energy  EATOM  =     11953.08265402
  Solvation  Ediel_sol  =         0.00000000
  ---------------------------------------------------
  free energy    TOTEN  =      -322.44304039 eV

  energy without entropy =     -322.44304039  energy(sigma->0) =     -322.44304039


--------------------------------------------------------------------------------------------------------




--------------------------------------- Iteration      1(  21)  ---------------------------------------


    POTLOK:  cpu time    0.2474: real time    0.2476
    SETDIJ:  cpu time    0.0113: real time    0.0113
    EDDIAG:  cpu time    2.3382: real time    2.3470
  RMM-DIIS:  cpu time   36.2872: real time   36.3731
    ORTHCH:  cpu time    0.2022: real time    0.2024
       DOS:  cpu time    0.0004: real time    0.0004
    CHARGE:  cpu time    1.0828: real time    1.0838
    MIXING:  cpu time    0.0093: real time    0.0093
    --------------------------------------------
      LOOP:  cpu time   40.1787: real time   40.2748

 eigenvalue-minimisations  :  1780
 total energy-change (2. order) :-0.6207711E-04  (-0.9592751E-06)
 number of electron     323.9999996 magnetization 
 augmentation part      -21.1682716 magnetization 

 Broyden mixing:
  rms(total) = 0.27422E-03    rms(broyden)= 0.27422E-03
  rms(prec ) = 0.35184E-03
  weight for this iteration     100.00

 eigenvalues of (default mixing * dielectric matrix)
  average eigenvalue GAMMA=   1.5261
  6.8498  3.2590  2.4722  1.9339  1.9339  1.4991  1.1423  0.9315  0.8208  0.8208
  0.7318  0.3721  0.3591  0.4210  0.4097  0.4613

 Free energy of the ion-electron system (eV)
  ---------------------------------------------------
  alpha Z        PSCENC =       252.14143973
  Ewald energy   TEWEN  =     57460.00140338
  -Hartree energ DENC   =    -69326.43708786
  -exchange      EXHF   =         0.00000000
  -V(xc)+E(xc)   XCENC  =     -2085.53528764
  PAW double counting   =      8445.06804658    -5803.22384528
  entropy T*S    EENTRO =        -0.00000000
  eigenvalues    EBANDS =     -1217.54042541
  atomic energy  EATOM  =     11953.08265402
  Solvation  Ediel_sol  =         0.00000000
  ---------------------------------------------------
  free energy    TOTEN  =      -322.44310247 eV

  energy without entropy =     -322.44310247  energy(sigma->0) =     -322.44310247


--------------------------------------------------------------------------------------------------------




--------------------------------------- Iteration      1(  22)  ---------------------------------------


    POTLOK:  cpu time    0.2495: real time    0.2498
    SETDIJ:  cpu time    0.0123: real time    0.0123
    EDDIAG:  cpu time    2.3459: real time    2.3513
  RMM-DIIS:  cpu time   25.0856: real time   25.1354
    ORTHCH:  cpu time    0.2000: real time    0.2003
       DOS:  cpu time    0.0004: real time    0.0004
    CHARGE:  cpu time    1.0803: real time    1.0815
    MIXING:  cpu time    0.0082: real time    0.0082
    --------------------------------------------
      LOOP:  cpu time   28.9823: real time   29.0392

 eigenvalue-minimisations  :  1279
 total energy-change (2. order) :-0.3766479E-04  (-0.2439517E-06)
 number of electron     323.9999996 magnetization 
 augmentation part      -21.1685096 magnetization 

 Broyden mixing:
[...]
  0.000   0.000   0.000  -0.000   0.000   0.011   0.000  -0.000
 -0.000   0.000  -0.000   0.000   0.000   0.000   0.011  -0.000
 -0.000  -0.000   0.000   0.000   0.000  -0.000  -0.000   0.011
 -0.001  -0.000   0.000   0.000   0.000  -0.000  -0.000   0.000
 -0.000   0.000  -0.016  -0.000   0.000  -0.000   0.000  -0.000
 -0.009  -0.000  -0.000  -0.020  -0.000  -0.000  -0.000   0.000
  0.000  -0.000   0.000   0.001  -0.016  -0.000  -0.000  -0.000
 -0.001   0.000   0.000  -0.000   0.000   0.000   0.000  -0.000
 total augmentation occupancy for first ion, spin component:           1
  1.931   0.234  -0.004   0.199  -0.002   0.006   0.045  -0.007   0.002   0.001   0.005  -0.001   0.001
  0.234   1.375   0.004  -0.960   0.019  -0.013   0.386  -0.005  -0.010   0.001  -0.020  -0.003  -0.003
 -0.004   0.004   1.328   0.009   0.004  -0.495  -0.003  -0.002   0.008  -0.119  -0.002   0.000  -0.046
  0.199  -0.960   0.009   1.513  -0.005  -0.003  -0.544   0.012  -0.002  -0.001  -0.037   0.004  -0.001
 -0.002   0.019   0.004  -0.005   1.350  -0.002   0.012  -0.498  -0.046   0.000   0.001  -0.122  -0.001
  0.006  -0.013  -0.495  -0.003  -0.002   0.314   0.001  -0.008  -0.000   0.041   0.001   0.002   0.009
  0.045   0.386  -0.003  -0.544   0.012   0.001   0.300  -0.004   0.000   0.001   0.048  -0.002  -0.000
 -0.007  -0.005  -0.002   0.012  -0.498  -0.008  -0.004   0.309   0.008   0.002  -0.000   0.042  -0.000
  0.002  -0.010   0.008  -0.002  -0.046  -0.000   0.000   0.008   0.021  -0.000   0.001  -0.000   0.001
  0.001   0.001  -0.119  -0.001   0.000   0.041   0.001   0.002  -0.000   0.019   0.000  -0.001  -0.001
  0.005  -0.020  -0.002  -0.037   0.001   0.001   0.048  -0.000   0.001   0.000   0.021  -0.001  -0.000
 -0.001  -0.003   0.000   0.004  -0.122   0.002  -0.002   0.042  -0.000  -0.001  -0.001   0.019  -0.000
  0.001  -0.003  -0.046  -0.001  -0.001   0.009  -0.000  -0.000   0.001  -0.001  -0.000  -0.000   0.021


------------------------ aborting loop because EDIFF is reached ----------------------------------------


    CHARGE:  cpu time    1.0860: real time    1.0872
    FORLOC:  cpu time    0.0708: real time    0.0708
    FORNL :  cpu time   13.1471: real time   13.1645
    STRESS:  cpu time   69.7661: real time   69.8852
    FORCOR:  cpu time    0.2842: real time    0.2844
    FORHAR:  cpu time    0.1162: real time    0.1163
    MIXING:  cpu time    0.0068: real time    0.0069
    OFIELD:  cpu time    0.0000: real time    0.0000

  Number of pair interactions contributing to vdW energy:  274033
  Edisp (eV):  -19.19112
    FORVDW:  cpu time    0.0300: real time    0.0300

  FORCE on cell =-STRESS in cart. coord.  units (eV):
  Direction    XX          YY          ZZ          XY          YZ          ZX
  --------------------------------------------------------------------------------------
  Alpha Z   252.14144   252.14144   252.14144
  Ewald   66484.29249 66537.96545-75668.72683   -78.17021    75.01142    -7.04675
  Hartree 68835.69329 68850.44549-68459.76793   -23.45532    11.03328    -2.52189
  E(xc)   -1359.27753 -1359.76863 -1378.66480     1.05588    -2.26251    -0.09837
  Local  ************************139053.11580    98.71262   -82.28030     8.27833
  n-local  3568.16827  3569.82189  3753.58564     3.26120    15.40685     1.55247
  augment  -760.82243  -760.30414  -801.51699    -2.11238    -2.18412    -0.45303
  Kinetic  3289.89247  3292.04924  3294.30750   -20.20595    12.48522    -2.46079
  Fock        0.00000     0.00000     0.00000     0.00000     0.00000     0.00000
  vdW       -13.49994   -13.08106    -9.00377    -0.16310     0.14462    -0.56787
  -------------------------------------------------------------------------------------
  Total       5.38205    12.51949    35.47006   -21.07726    27.35446    -3.31791
  in kB       3.02956     7.04724    19.96615   -11.86442    15.39787    -1.86765
  external pressure =       10.01 kB  Pullay stress =        0.00 kB

  kinetic pressure (ideal gas correction) =      0.26 kB
  total pressure  =     10.27 kB
  Total+kin.     3.258       7.233      20.318     -11.877      15.384      -1.875

 VOLUME and BASIS-vectors are now :
 -----------------------------------------------------------------------------
  energy-cutoff  :      550.00
  volume of cell :     2846.28
      direct lattice vectors                 reciprocal lattice vectors
    10.606999070  0.000000000  0.000000000     0.094277372  0.049872554  0.001530404
    -4.855805528  9.179248877  0.000000000     0.000000000  0.108941376  0.003425437
     0.011700889 -0.919182404 29.233349289     0.000000000  0.000000000  0.034207507

  length of vectors
    10.606999070 10.384481560 29.247798958     0.106666943  0.108995215  0.034207507


 FORCES acting on ions
    electron-ion (+dipol)            ewald-force                    non-local-force                 convergence-correction
 -----------------------------------------------------------------------------------------------
   0.763E+00 0.935E+00 -.818E+03   -.662E+00 -.110E+01 0.824E+03   -.160E+00 0.277E+00 -.502E+01   0.139E-02 0.439E-03 0.396E-04
   0.218E+01 -.369E+01 -.818E+03   -.215E+01 0.360E+01 0.824E+03   -.142E+00 0.731E+00 -.541E+01   0.699E-03 0.759E-03 -.351E-03
   0.925E-01 -.156E+01 -.819E+03   -.189E-01 0.153E+01 0.824E+03   -.900E-01 0.422E+00 -.519E+01   0.928E-03 0.350E-03 -.747E-03
   0.503E+01 0.748E+00 -.819E+03   -.498E+01 -.846E+00 0.824E+03   -.445E+00 0.339E+00 -.510E+01   -.119E-02 -.114E-02 0.397E-03
   0.267E+01 -.401E+00 -.819E+03   -.260E+01 0.337E+00 0.824E+03   -.210E+00 0.313E+00 -.490E+01   -.137E-02 0.482E-04 0.554E-03
   0.269E+01 -.426E+00 -.819E+03   -.269E+01 0.296E+00 0.825E+03   -.656E-01 0.480E+00 -.528E+01   -.111E-02 -.797E-03 -.863E-05
   0.105E+01 -.172E+01 -.817E+03   -.979E+00 0.161E+01 0.823E+03   -.709E-01 0.660E+00 -.478E+01   -.274E-03 0.355E-03 0.149E-02
   0.157E+01 -.596E+00 -.820E+03   -.150E+01 0.499E+00 0.826E+03   -.228E+00 0.366E+00 -.496E+01   0.665E-03 0.604E-03 0.116E-02
   0.282E+01 -.217E+01 -.818E+03   -.273E+01 0.209E+01 0.824E+03   -.322E+00 0.438E+00 -.497E+01   0.141E-03 -.579E-03 0.123E-02
   0.171E+01 0.119E+01 0.106E+03   -.163E+01 -.130E+01 -.100E+03   -.167E+00 0.211E-01 -.512E+01   -.104E-02 0.985E-03 -.316E-03
   0.277E+01 -.157E+01 0.103E+03   -.274E+01 0.138E+01 -.972E+02   -.197E-02 0.414E+00 -.557E+01   0.115E-02 -.662E-03 0.316E-03
   0.179E+01 0.777E+00 0.103E+03   -.178E+01 -.939E+00 -.978E+02   0.752E-01 0.368E+00 -.498E+01   -.527E-03 -.427E-03 0.131E-02
   0.241E+00 -.227E+01 0.102E+03   -.146E+00 0.208E+01 -.967E+02   -.781E-01 0.474E+00 -.538E+01   -.794E-03 0.203E-02 0.135E-02
   0.524E+00 0.144E+01 0.103E+03   -.413E+00 -.162E+01 -.978E+02   -.262E+00 0.223E+00 -.498E+01   0.122E-04 -.108E-02 -.767E-03
   0.345E+01 -.165E+01 0.104E+03   -.344E+01 0.151E+01 -.989E+02   -.266E+00 0.441E+00 -.507E+01   0.167E-03 -.129E-02 0.196E-02
   0.393E+01 -.251E+01 0.104E+03   -.391E+01 0.238E+01 -.981E+02   -.207E+00 0.369E+00 -.548E+01   0.183E-02 0.289E-04 0.852E-03
   0.197E+01 0.499E+00 0.108E+03   -.193E+01 -.635E+00 -.103E+03   -.125E+00 0.290E+00 -.542E+01   -.113E-02 -.612E-04 -.255E-03
   -.807E+00 0.152E+01 0.104E+03   0.941E+00 -.167E+01 -.981E+02   0.329E-01 0.213E+00 -.519E+01   0.299E-03 0.563E-03 0.517E-05
   0.206E+01 0.106E+01 -.102E+03   -.204E+01 -.924E+00 0.966E+02   -.272E+00 -.515E+00 0.527E+01   0.140E-02 0.457E-03 -.148E-03
   0.200E+01 0.340E+00 -.105E+03   -.203E+01 -.185E+00 0.994E+02   -.780E-01 -.447E+00 0.534E+01   0.785E-03 0.800E-03 0.529E-03
   0.303E+01 0.116E+01 -.104E+03   -.306E+01 -.969E+00 0.986E+02   -.300E+00 -.553E+00 0.504E+01   0.902E-03 0.456E-03 0.943E-03
   0.230E+01 0.235E+01 -.105E+03   -.228E+01 -.216E+01 0.994E+02   -.209E+00 -.726E+00 0.523E+01   -.134E-02 -.111E-02 -.466E-03
   0.205E+01 0.282E+01 -.103E+03   -.206E+01 -.263E+01 0.973E+02   -.117E+00 -.885E+00 0.508E+01   -.132E-02 0.180E-05 -.595E-03
   0.172E+01 -.135E+01 -.104E+03   -.179E+01 0.156E+01 0.984E+02   0.205E-03 -.372E+00 0.538E+01   -.105E-02 -.906E-03 0.187E-03
   0.403E+01 0.116E+01 -.104E+03   -.407E+01 -.106E+01 0.986E+02   -.341E+00 -.390E+00 0.506E+01   -.107E-03 0.353E-03 -.133E-02
   0.326E+01 -.672E+00 -.105E+03   -.328E+01 0.795E+00 0.990E+02   -.384E+00 -.246E+00 0.480E+01   0.605E-03 0.554E-03 -.916E-03
   0.215E+01 0.337E+00 -.103E+03   -.209E+01 -.210E+00 0.974E+02   -.310E+00 -.414E+00 0.544E+01   0.173E-03 -.564E-03 -.121E-02
   0.348E+00 0.221E+01 0.817E+03   -.288E+00 -.210E+01 -.822E+03   0.605E-01 -.724E+00 0.523E+01   -.102E-02 0.865E-03 0.243E-03
   0.301E+01 -.557E+00 0.818E+03   -.299E+01 0.662E+00 -.824E+03   -.833E-01 -.408E+00 0.518E+01   0.100E-02 -.775E-03 -.447E-03
   -.760E+00 0.767E+00 0.819E+03   0.842E+00 -.641E+00 -.825E+03   0.197E+00 -.424E+00 0.498E+01   -.778E-03 -.471E-03 -.150E-02
   0.445E+01 0.827E+00 0.820E+03   -.447E+01 -.768E+00 -.825E+03   -.317E+00 -.466E+00 0.514E+01   -.798E-03 0.228E-02 -.141E-02
   0.600E+00 -.657E+00 0.819E+03   -.539E+00 0.774E+00 -.825E+03   -.307E-01 -.365E+00 0.512E+01   0.147E-03 -.127E-02 0.589E-03
   0.331E+00 0.281E+01 0.819E+03   -.305E+00 -.275E+01 -.824E+03   0.104E-01 -.639E+00 0.488E+01   0.137E-03 -.130E-02 -.208E-02
   0.156E+01 0.940E+00 0.819E+03   -.146E+01 -.821E+00 -.825E+03   -.884E-01 -.595E+00 0.506E+01   0.181E-02 0.890E-04 -.128E-02
   0.139E+01 0.164E+01 0.815E+03   -.139E+01 -.157E+01 -.821E+03   0.468E-01 -.460E+00 0.521E+01   -.119E-02 -.110E-03 -.313E-03
   0.624E+01 0.280E+01 0.820E+03   -.621E+01 -.267E+01 -.825E+03   -.519E+00 -.603E+00 0.501E+01   0.497E-03 0.579E-03 -.267E-03
   -.595E+01 0.166E+01 -.460E+03   0.626E+01 -.177E+01 0.460E+03   0.211E+00 -.360E-02 -.911E-01   0.975E-03 0.191E-03 -.222E-03
   -.726E+01 -.862E+00 -.460E+03   0.755E+01 0.838E+00 0.460E+03   0.285E+00 -.746E-01 0.346E+00   0.890E-03 0.102E-02 -.146E-03
   -.486E+01 -.199E+01 -.463E+03   0.503E+01 0.206E+01 0.463E+03   0.323E+00 0.297E-01 -.183E+00   0.124E-02 0.392E-03 -.151E-03
   -.545E+01 -.659E+00 -.461E+03   0.561E+01 0.738E+00 0.461E+03   0.356E+00 0.303E+00 0.214E+00   0.363E-03 -.431E-03 -.199E-03
   -.307E+01 -.154E+01 -.460E+03   0.318E+01 0.161E+01 0.460E+03   0.343E-01 0.169E+00 -.521E-01   -.708E-04 0.432E-03 -.215E-03
   -.387E+01 0.139E+01 -.461E+03   0.402E+01 -.141E+01 0.461E+03   -.182E-01 -.304E+00 0.437E+00   -.767E-04 0.118E-03 -.132E-03
   -.183E+01 0.319E+01 -.462E+03   0.186E+01 -.332E+01 0.462E+03   0.992E-01 -.139E+00 -.284E+00   -.126E-02 -.938E-03 -.173E-03
   -.206E+01 0.804E+00 -.462E+03   0.216E+01 -.740E+00 0.463E+03   -.236E-01 0.203E+00 -.178E-01   -.937E-03 -.256E-03 -.231E-03
   -.277E+01 -.385E+01 -.461E+03   0.285E+01 0.405E+01 0.461E+03   0.526E-01 0.514E+00 0.354E-01   -.123E-02 -.461E-03 -.192E-03
   -.225E+01 -.106E+01 0.463E+03   0.239E+01 0.108E+01 -.463E+03   -.178E+00 0.227E+00 0.238E+00   0.518E-03 0.292E-04 0.920E-04
   -.268E+01 0.348E+01 0.463E+03   0.269E+01 -.346E+01 -.463E+03   -.989E-03 -.239E+00 0.172E+00   -.959E-03 -.594E-04 0.723E-04
   -.331E+01 -.173E+01 0.459E+03   0.339E+01 0.186E+01 -.459E+03   0.109E+00 0.285E+00 -.156E+00   0.939E-03 0.503E-03 0.249E-04
   -.270E+01 -.150E+01 0.460E+03   0.271E+01 0.166E+01 -.460E+03   0.531E-01 0.334E+00 -.713E-01   0.371E-03 -.348E-03 0.395E-04
   -.232E+01 0.272E+01 0.460E+03   0.236E+01 -.274E+01 -.460E+03   -.989E-01 -.280E+00 -.237E-01   0.170E-04 -.143E-02 0.107E-03
   -.459E+01 -.300E+01 0.458E+03   0.476E+01 0.312E+01 -.458E+03   -.123E+00 0.256E+00 -.457E+00   -.160E-02 0.123E-02 0.263E-04
   -.569E+01 0.908E+00 0.460E+03   0.580E+01 -.948E+00 -.460E+03   0.204E+00 -.152E+00 -.462E-01   -.970E-03 0.988E-03 0.115E-04
   -.559E+01 -.657E+00 0.461E+03   0.576E+01 0.665E+00 -.462E+03   0.295E+00 0.255E+00 -.522E+00   0.890E-03 -.142E-02 0.186E-03
   -.440E+01 -.301E+01 0.465E+03   0.450E+01 0.317E+01 -.465E+03   0.321E+00 0.164E+00 0.466E+00   0.521E-03 0.726E-03 0.193E-03
 -----------------------------------------------------------------------------------------------
   0.357E+01 0.838E+00 0.331E+00   0.391E-13 -.235E-13 -.273E-11   -.357E+01 -.843E+00 -.332E+00   -.657E-03 0.351E-03 -.217E-02
 
 
 POSITION                                       TOTAL-FORCE (eV/Angst)
 -----------------------------------------------------------------------------------
      1.80965      0.41664     19.96329        -0.068446      0.113969      0.486482
      0.20333      3.42725     19.98893        -0.123152      0.609316      0.075729
     -1.42352      6.50545     19.97587        -0.021606      0.379968      0.335799
      5.36496      0.39273     19.97069        -0.398314      0.229416      0.455590
      3.74725      3.45068     19.95778        -0.145729      0.238809      0.628140
      2.12070      6.49674     19.98858        -0.070578      0.331265      0.200972
      8.87791      0.38328     19.93995        -0.011860      0.535598      0.826474
      7.28422      3.46043     19.96562        -0.161968      0.259127      0.617652
      5.64874      6.51820     19.96230        -0.245527      0.355471      0.556020
      2.35937     -0.37370     12.79747        -0.087666     -0.123140      0.581471
      0.74024      2.66603     12.84582         0.042708      0.185316      0.018284
     -0.89677      5.72377     12.80248         0.092016      0.169611      0.672234
      5.90780     -0.39995     12.83546         0.030684      0.242849      0.180254
      4.27953      2.66752     12.80775        -0.140763      0.006422      0.658532
      2.66980      5.73399     12.80718        -0.236953      0.264629      0.522212
      4.57754      8.77106     12.83334        -0.166631      0.194818      0.088135
      7.83641      2.67363     12.79110        -0.077727      0.121984      0.338187
      6.17119      5.72162     12.81282         0.170602      0.027592      0.462166
      1.82650      0.51600     16.40081        -0.273755     -0.332484     -0.330351
      0.20485      3.56990     16.41407        -0.132517     -0.246714     -0.311946
     -1.41412      6.62095     16.42630        -0.350941     -0.324813     -0.589409
      5.35785      0.51648     16.42687        -0.213532     -0.490576     -0.402511
      3.74972      3.58068     16.41564        -0.152503     -0.645842     -0.499943
      2.12376      6.61937     16.40652        -0.085465     -0.120323     -0.234101
      8.90610      0.49676     16.43461        -0.403736     -0.242396     -0.627532
      7.28936      3.55135     16.45668        -0.417050     -0.089195     -0.910143
      5.66846      6.61978     16.39893        -0.275463     -0.242919     -0.142926
      2.34103     -0.29144      9.27082         0.104689     -0.595383     -0.295784
      0.75218      2.77260      9.25742        -0.068823     -0.291104     -0.332238
     -0.90465      5.83267      9.27047         0.261186     -0.280497     -0.544209
      5.90860     -0.28056      9.24272        -0.339242     -0.390378     -0.303397
      4.25270      2.74862      9.25921         0.019176     -0.239530     -0.368407
      2.64697      5.82815      9.27665         0.027783     -0.561511     -0.649481
      4.57534      8.87745      9.25146         0.009226     -0.463518     -0.448361
      7.80686      2.76093      9.27412         0.035462     -0.371780     -0.441750
      6.21693      5.82457      9.25737        -0.483107     -0.462257     -0.462518
      0.00659     -0.56784     18.18921         0.520784     -0.115015     -0.086658
     -1.61000      2.49448     18.17624         0.598139     -0.095776      0.541722
      7.36843      5.54666     18.20867         0.511162      0.094844     -0.203531
     -1.33427      8.59260     18.18006         0.543528      0.385803      0.391384
      1.93882      2.48176     18.19092         0.138884      0.240096     -0.056376
      0.32124      5.56788     18.17111         0.136790     -0.339434      0.636834
      2.22888      8.60318     18.21006         0.147968     -0.285168     -0.408208
      5.47872      2.47549     18.19942         0.077674      0.259914      0.041634
      3.85088      5.51547     18.18674         0.136554      0.739836      0.167135
     -1.02760      1.66765     11.02536        -0.055221      0.267895      0.254543
     -2.67775      4.77214     11.02371         0.040360     -0.263597      0.247652
      6.29280      7.78001     11.05223         0.208755      0.421160     -0.219085
      2.47030      1.67734     11.04659         0.086361      0.494097     -0.092430
      0.85850      4.76628     11.04822        -0.042249     -0.335797     -0.097217
     -0.74544      7.79884     11.06864         0.032254      0.386282     -0.617517
      5.99625      1.69442     11.04224         0.348752     -0.200554     -0.087417
      4.37440      4.72604     11.06665         0.476527      0.277173     -0.826652
      2.76014      7.81034     11.00838         0.454665      0.312394      0.601902
 -----------------------------------------------------------------------------------
    total drift:                                0.002171     -0.004047     -0.002956


--------------------------------------------------------------------------------------------------------



  FREE ENERGIE OF THE ION-ELECTRON SYSTEM (eV)
  ---------------------------------------------------
  free  energy   TOTEN  =      -341.63439084 eV

  energy  without entropy=     -341.63439084  energy(sigma->0) =     -341.63439084
 
 d Force = 0.2396868E-03[-0.272E-02, 0.320E-02]  d Energy = 0.1866173E-03 0.531E-04
 d Force = 0.2116770E+02[ 0.212E+02, 0.212E+02]  d Ewald  = 0.2116770E+02-0.244E-05


--------------------------------------------------------------------------------------------------------


    POTLOK:  cpu time    0.2565: real time    0.2567


--------------------------------------------------------------------------------------------------------


           RANDOM_SEED =         195052573              324                0
   IONSTEP:  cpu time    0.0001: real time    0.0001

  ENERGY OF THE ELECTRON-ION-THERMOSTAT SYSTEM (eV)
  ---------------------------------------------------
% ion-electron   TOTEN  =      -341.634391  see above
  kinetic energy EKIN   =         0.680869
  kin. lattice  EKIN_LAT=         0.000000  (temperature   99.39 K)
  nose potential ES     =        -0.001004
  nose kinetic   EPS    =         0.000006
  ---------------------------------------------------
  total energy   ETOTAL =      -340.954519 eV

  maximum distance moved by ions :      0.44E-03


 mean value of Nose-termostat <S>:     0.999 mean value of <T> :    99.385
 mean temperature <T/S>/<1/S>  :    99.385

    WAVPRE:  cpu time    0.0918: real time    0.0946
    FEWALD:  cpu time    0.0011: real time    0.0010
    ORTHCH:  cpu time    7.8154: real time    7.8267
    POTLOK:  cpu time    0.2592: real time    0.2594
    EDDIAG:  cpu time    2.3550: real time    2.3575
     LOOP+:  cpu time  455.5448: real time  456.4956
    4ORBIT:  cpu time    0.0000: real time    0.0000

 total amount of memory used by VASP MPI-rank0   354846. kBytes
=======================================================================

   base      :      30000. kBytes
   nonl-proj :     192153. kBytes
   fftplans  :      17721. kBytes
   grid      :      80453. kBytes
   one-center:        839. kBytes
   wavefun   :      33680. kBytes
 
  
  
 General timing and accounting informations for this job:
 ========================================================
  
                  Total CPU time used (sec):     5501.671
                            User time (sec):     5489.508
                          System time (sec):       12.163
                         Elapsed time (sec):     5514.656
  
                   Maximum memory used (kb):      774176.
                   Average memory used (kb):           0.
  
                          Minor page faults:       400352
                          Major page faults:            0
                 Voluntary context switches:         8893
