3.458183763709736791e-01 -1.583560283181285833e+00 0.000000000000000000e+00 -1.583560283181285833e+00 2.174366494893921864e+00 0.000000000000000000e+00 0.000000000000000000e+00 0.000000000000000000e+00 -3.153847679505413781e-01
1.937226660772977116e-01 -1.576833424992099442e+00 -2.122396090496820042e-01 -1.576833424992099442e+00 2.262719798959419659e+00 -7.764819640958800506e-02 -2.122396090496820042e-01 -7.764819640958800506e-02 -4.093980360300588095e-01
5.616564928928280409e-02 -1.567484538745299805e+00 -4.244068862908780826e-01 -1.567484538745299805e+00 2.362917436664479620e+00 -1.546273235906816812e-01 -4.244068862908780826e-01 -1.546273235906816812e-01 -4.836647203929321237e-01
-6.621977066881958029e-02 -1.555604039201494704e+00 -6.363210022023736423e-01 -1.555604039201494704e+00 2.473964845642421029e+00 -2.309012156390380377e-01 -6.363210022023736423e-01 -2.309012156390380377e-01 -5.390708856931132331e-01
-1.733431790364021174e-01 -1.541427004738262996e+00 -8.477287954544681092e-01 -1.541427004738262996e+00 2.594560053340497774e+00 -3.063432918898068569e-01 -8.477287954544681092e-01 -3.063432918898068569e-01 -5.763217670633393741e-01
-2.657108984728658863e-01 -1.525278928493791097e+00 -1.058268607004732020e+00 -1.525278928493791097e+00 2.722605437312620058e+00 -3.808088887260162592e-01 -1.058268607004732020e+00 -3.808088887260162592e-01 -5.972256597157576952e-01
-3.440643300151912110e-01 -1.507485303606265648e+00 -1.267687275523464718e+00 -1.507485303606265648e+00 2.856075706921182622e+00 -4.541714254828161379e-01 -1.267687275523464718e+00 -4.541714254828161379e-01 -6.038801860964583268e-01
-4.095065337427876151e-01 -1.488407789118115998e+00 -1.475749722633087568e+00 -1.488407789118115998e+00 2.992656244294638501e+00 -5.263404873995990441e-01 -1.475749722633087568e+00 -5.263404873995990441e-01 -5.988712083588112467e-01
-4.633033163041579972e-01 -1.468444209976013992e+00 -1.682311284716628164e+00 -1.468444209976013992e+00 3.129978182705074552e+00 -5.972256597157576952e-01 -1.682311284716628164e+00 -5.972256597157576952e-01 -5.850015840816445989e-01
-5.068470650126554178e-01 -1.448010474078754051e+00 -1.887371961774087170e+00 -1.448010474078754051e+00 3.265672655424578075e+00 -6.667546106228060543e-01 -1.887371961774087170e+00 -6.667546106228060543e-01 -5.652911662692433614e-01
1.721889177591799935e+01 -2.258652335311418735e+00 -1.610736514256043606e+01 -2.258652335311418735e+00 -1.127028923813437089e+01 -6.820861827982174219e+00 -1.610736514256043606e+01 -6.820861827982174219e+00 -3.587585089846845676e+01
1.737595829692103067e+01 -2.341327568427677530e+00 -1.617199451261070919e+01 -2.341327568427677530e+00 -1.113743592268094318e+01 -6.756962320947714318e+00 -1.617199451261070919e+01 -6.756962320947714318e+00 -3.546858733564459953e+01
1.757128788652808282e+01 -2.423802089214587063e+00 -1.621127938943686431e+01 -2.423802089214587063e+00 -1.094894879884714278e+01 -6.680910594699962068e+00 -1.621127938943686431e+01 -6.680910594699962068e+00 -3.493943664917991043e+01
1.780478931186217295e+01 -2.505893431918194914e+00 -1.622520152646350411e+01 -2.505893431918194914e+00 -1.070453592142664334e+01 -6.592962101294452815e+00 -1.622520152646350411e+01 -6.592962101294452815e+00 -3.428998629113379337e+01
1.807478388798692848e+01 -2.587163678729012428e+00 -1.621348722505970130e+01 -2.587163678729012428e+00 -1.040551104384791081e+01 -6.493518265389882416e+00 -1.621348722505970130e+01 -6.493518265389882416e+00 -3.352403154918845729e+01
1.837961117654138121e+01 -2.667211404988342416e+00 -1.617584454001912420e+01 -2.667211404988342416e+00 -1.005333389214256989e+01 -6.383035251371135033e+00 -1.617584454001912420e+01 -6.383035251371135033e+00 -3.264545894390312242e+01
1.871709983505347807e+01 -2.745616939462092621e+00 -1.611194503298466785e+01 -2.745616939462092621e+00 -9.649810877274758170e+00 -6.262005716773884956e+00 -1.611194503298466785e+01 -6.262005716773884956e+00 -3.165919505063453698e+01
1.908495079502340985e+01 -2.821851131463798623e+00 -1.602142377244841143e+01 -2.821851131463798623e+00 -9.196949122537963817e+00 -6.130995305435386733e+00 -1.602142377244841143e+01 -6.130995305435386733e+00 -3.057042189679495436e+01
1.948148537151481108e+01 -2.895384830306994228e+00 -1.590404355293022931e+01 -2.895384830306994228e+00 -8.696117121086835766e+00 -5.990587907768291309e+00 -1.590404355293022931e+01 -5.990587907768291309e+00 -2.938450397555061855e+01
1.990247035903595574e+01 -2.965780118182192560e+00 -1.575912925114048768e+01 -2.965780118182192560e+00 -8.151493338686906398e+00 -5.841239688157482846e+00 -1.575912925114048768e+01 -5.841239688157482846e+00 -2.810808304034542005e+01
-3.741043779437242023e+01 -4.074726415082221997e+00 9.468896351192784167e+00 -4.074726415082221997e+00 -3.704260568061340564e+01 1.765279613869580899e+01 9.468896351192784167e+00 1.765279613869580899e+01 -1.945030961605515785e+01
-3.743728671546635667e+01 -4.134620162137919941e+00 9.298177382204540820e+00 -4.134620162137919941e+00 -3.692188974815790203e+01 1.747184540020105814e+01 9.298177382204540820e+00 1.747184540020105814e+01 -1.933779804692617077e+01
-3.743118554920506824e+01 -4.192069653144840480e+00 9.113228674513724314e+00 -4.192069653144840480e+00 -3.677136905008435264e+01 1.726391310656321210e+01 9.113228674513724314e+00 1.726391310656321210e+01 -1.915074614217012794e+01
-3.739190692293285423e+01 -4.246980149496442536e+00 8.914107071284263384e+00 -4.246980149496442536e+00 -3.659140359309763824e+01 1.702863925107741849e+01 8.914107071284263384e+00 1.702863925107741849e+01 -1.889013918329506225e+01
-3.732001926828897354e+01 -4.299029539930482535e+00 8.701286265548862531e+00 -4.299029539930482535e+00 -3.638313024047624111e+01 1.676649752677637650e+01 8.701286265548862531e+00 1.676649752677637650e+01 -1.855739824939911031e+01
-3.721654576222406519e+01 -4.347914660906028850e+00 8.475088368569766217e+00 -4.347914660906028850e+00 -3.614827323485923216e+01 1.647781004492233947e+01 8.475088368569766217e+00 1.647781004492233947e+01 -1.815466443299010635e+01
-3.708279379750841542e+01 -4.393408139767379872e+00 8.235835491609217129e+00 -4.393408139767379872e+00 -3.588857576660696935e+01 1.616310734171193531e+01 8.235835491609217129e+00 1.616310734171193531e+01 -1.768476094454299741e+01
-3.692044972133846414e+01 -4.435244708416218984e+00 7.983755007322912434e+00 -4.435244708416218984e+00 -3.560615998050599273e+01 1.582301469194834098e+01 7.983755007322912434e+00 1.582301469194834098e+01 -1.715098468756544037e+01
-3.673131356723850161e+01 -4.473272785082079928e+00 7.719036392923938728e+00 -4.473272785082079928e+00 -3.530322381222807593e+01 1.545813842271342331e+01 7.719036392923938728e+00 1.545813842271342331e+01 -1.655684099049947378e+01
-3.651745063683114267e+01 -4.507246049387953590e+00 7.441774387018837089e+00 -4.507246049387953590e+00 -3.498224941326461135e+01 1.506900907020381553e+01 7.441774387018837089e+00 1.506900907020381553e+01 -1.590623308393461777e+01
3.255035608889769350e+01 -3.320609649665085428e+00 -1.130357637237327673e+01 -3.320609649665085428e+00 -1.972480429898618581e+01 -9.648947664520845180e+00 -1.130357637237327673e+01 -9.648947664520845180e+00 -3.912640381934017197e-01
3.268198063940945275e+01 -3.420668131502081266e+00 -1.122995830826557295e+01 -3.420668131502081266e+00 -1.960772649024221082e+01 -9.677301177321334436e+00 -1.122995830826557295e+01 -9.677301177321334436e+00 -7.305857403971077746e-02
3.279404108560821385e+01 -3.516286788928560281e+00 -1.113073003749721224e+01 -3.516286788928560281e+00 -1.946612135884014094e+01 -9.690981611887069747e+00 -1.113073003749721224e+01 -9.690981611887069747e+00 2.392451723000015296e-01
3.288538235122455688e+01 -3.606833939609693562e+00 -1.100609008880199369e+01 -3.606833939609693562e+00 -1.930114398104938189e+01 -9.689916775951214589e+00 -1.100609008880199369e+01 -9.689916775951214589e+00 5.424887891515876026e-01
3.295497569645606006e+01 -3.691750093477490502e+00 -1.085639942351410703e+01 -3.691750093477490502e+00 -1.911409381767300886e+01 -9.673853996579836689e+00 -1.085639942351410703e+01 -9.673853996579836689e+00 8.345606527100459804e-01
3.300175628536686645e+01 -3.770385520130409951e+00 -1.068205509910116113e+01 -3.770385520130409951e+00 -1.890637861791435270e+01 -9.642540600839001996e+00 -1.068205509910116113e+01 -9.642540600839001996e+00 1.113475475637341061e+00
3.302480366655478861e+01 -3.842289017900718306e+00 -1.048354441336430831e+01 -3.842289017900718306e+00 -1.867969490004410815e+01 -9.595705867728069549e+00 -1.048354441336430831e+01 -9.595705867728069549e+00 1.377103586061761975e+00
3.302332372508461589e+01 -3.907027433187388876e+00 -1.026126442377115744e+01 -3.907027433187388876e+00 -1.843581137459978692e+01 -9.533151268513238463e+00 -1.026126442377115744e+01 -9.533151268513238463e+00 1.623658225379076336e+00
3.299655844215455147e+01 -3.964149564322686281e+00 -1.001568438005615214e+01 -3.964149564322686281e+00 -1.817685771345310286e+01 -9.454515841860319014e+00 -1.001568438005615214e+01 -9.454515841860319014e+00 1.851280442718214569e+00
3.294387613542976823e+01 -4.013366642239260429e+00 -9.747129147420059425e+00 -4.013366642239260429e+00 -1.790476505974196542e+01 -9.359510818701959778e+00 -9.747129147420059425e+00 -9.359510818701959778e+00 2.058165431408235602e+00
2.711683399142210860e+01 -3.412150203623046441e+00 2.608612723682703916e+00 -3.412150203623046441e+00 5.267000974460577112e+01 -1.128810584730670818e+01 2.608612723682703916e+00 -1.128810584730670818e+01 4.683930291183973083e+01
2.695527335858076867e+01 -3.406986480563766850e+00 2.791346348064769778e+00 -3.406986480563766850e+00 5.263819844736432429e+01 -1.125159711637922477e+01 2.791346348064769778e+00 -1.125159711637922477e+01 4.659819676591797588e+01
2.675160852233299380e+01 -3.400993798618716646e+00 2.970885026741261203e+00 -3.400993798618716646e+00 5.252589178831919270e+01 -1.118868259094459283e+01 2.970885026741261203e+00 -1.118868259094459283e+01 4.618948549527947733e+01
2.650665117158776951e+01 -3.394362127532551732e+00 3.146935170106801571e+00 -3.394362127532551732e+00 5.233272709795784294e+01 -1.109856785207060881e+01 3.146935170106801571e+00 -1.109856785207060881e+01 4.561328998976173210e+01
2.622081578578798045e+01 -3.387212357142779684e+00 3.318995948834570608e+00 -3.387212357142779684e+00 5.205865256634992733e+01 -1.098083842031438984e+01 3.318995948834570608e+00 -1.098083842031438984e+01 4.487106092741484531e+01
2.589432687463185800e+01 -3.379734457194057295e+00 3.486393833829879441e+00 -3.379734457194057295e+00 5.170380635330973007e+01 -1.083532159590806820e+01 3.486393833829879441e+00 -1.083532159590806820e+01 4.396424898628890787e+01
2.552716716814260778e+01 -3.372118397431039583e+00 3.648507105928400662e+00 -3.372118397431039583e+00 5.126889652788551643e+01 -1.066212099871236596e+01 3.648507105928400662e+00 -1.066212099871236596e+01 4.289549647283232758e+01
2.511930212636666582e+01 -3.364554147598382006e+00 3.804731315942593284e+00 -3.364554147598382006e+00 5.075520106835952561e+01 -1.046151294835586931e+01 3.804731315942593284e+00 -1.046151294835586931e+01 4.166780836300600299e+01
2.467074901928081232e+01 -3.357231677440741358e+00 3.954427474731341707e+00 -3.357231677440741358e+00 5.016461967217829709e+01 -1.023408462404933594e+01 3.954427474731341707e+00 -1.023408462404933594e+01 4.028520856140129069e+01
2.418147330693147623e+01 -3.350444576563494259e+00 4.096973863130318527e+00 -3.350444576563494259e+00 4.949974283585989099e+01 -9.980889494376764759e+00 4.096973863130318527e+00 -9.980889494376764759e+00 3.875244631163458564e+01
3.956469021934582830e+00 6.995391282084528761e+00 -9.682832549152191604e+00 6.995391282084528761e+00 5.502782662733501695e+00 -4.653077633468814867e+00 -9.682832549152191604e+00 -4.653077633468814867e+00 -1.719596051087069810e+01
3.982045427497734380e+00 6.990594574742536871e+00 -9.660876300073562462e+00 6.990594574742536871e+00 5.501497507181495550e+00 -4.759854148979805188e+00 -9.660876300073562462e+00 -4.759854148979805188e+00 -1.717427577352840729e+01
4.037578627970308531e+00 6.980186624849534560e+00 -9.619968531798457789e+00 6.980186624849534560e+00 5.531074185660044051e+00 -4.854810853568828577e+00 -9.619968531798457789e+00 -4.854810853568828577e+00 -1.708290302385906045e+01
4.123539243695293344e+00 6.964167432405523606e+00 -9.560073042762034845e+00 6.964167432405523606e+00 5.592019520076979333e+00 -4.938237359754648281e+00 -9.560073042762034845e+00 -4.938237359754648281e+00 -1.692224047907595619e+01
4.238714522250376149e+00 6.942609400540191267e+00 -9.481262236093980889e+00 6.942609400540191267e+00 5.683084556445141544e+00 -5.010206070666954226e+00 -9.481262236093980889e+00 -5.010206070666954226e+00 -1.669420682211588769e+01
4.381746904953857324e+00 6.915639234730499574e+00 -9.383626615706409879e+00 6.915639234730499574e+00 5.802857433735566950e+00 -5.070825591000282628e+00 -9.383626615706409879e+00 -5.070825591000282628e+00 -1.640115515469379304e+01
4.550989220605281993e+00 6.883401741235827487e+00 -9.267238584729012629e+00 6.883401741235827487e+00 5.949654779182952602e+00 -5.120258827796436485e+00 -9.267238584729012629e+00 -5.120258827796436485e+00 -1.604592729965002817e+01
4.744595189397542434e+00 6.846023625533132595e+00 -9.132170546291481728e+00 6.846023625533132595e+00 6.121539809068077709e+00 -5.158813494356601304e+00 -9.132170546291481728e+00 -5.158813494356601304e+00 -1.563181759938550641e+01
4.960483221352038008e+00 6.803595391534529746e+00 -8.978422500393811845e+00 6.803595391534529746e+00 6.316376631065076630e+00 -5.186797303981959040e+00 -8.978422500393811845e+00 -5.186797303981959040e+00 -1.516239190803747938e+01
5.196698431967128329e+00 6.756298047064244194e+00 -8.806012547818431457e+00 6.756298047064244194e+00 6.532210360672304539e+00 -5.204499869191274719e+00 -8.806012547818431457e+00 -5.204499869191274719e+00 -1.464087216487717669e+01
-5.134492934691344601e+01 -9.528029749992549924e+00 1.099641799662060437e+00 -9.528029749992549924e+00 -3.967879319814803551e+01 -6.037408050227783818e+00 1.099641799662060437e+00 -6.037408050227783818e+00 -5.980429285008472107e+01
-5.130041045429218372e+01 -9.562836133228387325e+00 1.072439034331550634e+00 -9.562836133228387325e+00 -3.975929867932886452e+01 -5.924437248830311198e+00 1.072439034331550634e+00 -5.924437248830311198e+00 -5.987382822604336496e+01
-5.118743965289471021e+01 -9.591412580165204815e+00 1.046068217016127511e+00 -9.591412580165204815e+00 -3.977545394892415942e+01 -5.805797592353292735e+00 1.046068217016127511e+00 -5.805797592353292735e+00 -5.974551475543743351e+01
-5.100545586150155231e+01 -9.613604309776937029e+00 1.020045657009345463e+00 -9.613604309776937029e+00 -3.972634966840578841e+01 -5.681372995027184736e+00 1.020045657009345463e+00 -5.681372995027184736e+00 -5.941894613807351533e+01
-5.075513624710174554e+01 -9.629353279178809899e+00 9.939070112330161688e-01 -9.629353279178809899e+00 -3.961254691899322466e+01 -5.551240847365015441e+00 9.939070112330161688e-01 -5.551240847365015441e+00 -5.889549605555790635e+01
-5.043758362450596877e+01 -9.638582097857796072e+00 9.671492413524365173e-01 -9.638582097857796072e+00 -3.943480025818853107e+01 -5.415497887508076147e+00 9.671492413524365173e-01 -5.415497887508076147e+00 -5.817756361379458951e+01
-5.005409428480751188e+01 -9.641194027672600697e+00 9.393080042894181858e-01 -9.641194027672600697e+00 -3.919409641503285968e+01 -5.274279548854170940e+00 9.393080042894181858e-01 -5.274279548854170940e+00 -5.726859269061344548e+01
-4.960639016692130809e+01 -9.637150373366715428e+00 9.097835235679686550e-01 -9.637150373366715428e+00 -3.889182841876078101e+01 -5.127682569544588453e+00 9.097835235679686550e-01 -5.127682569544588453e+00 -5.617260759269211690e+01
-4.909642538130140821e+01 -9.626335049170588576e+00 8.780340655968686958e-01 -9.626335049170588576e+00 -3.852948603674812489e+01 -4.975842382977134548e+00 8.780340655968686958e-01 -4.975842382977134548e+00 -5.489477413677543183e+01
-4.852539948089979305e+01 -9.608612621686416944e+00 8.437887635805085829e-01 -9.608612621686416944e+00 -3.810817208380561283e+01 -4.819165289345221481e+00 8.437887635805085829e-01 -4.819165289345221481e+00 -5.344186399275364607e+01
2.285025036560854517e+01 4.949418612661861339e+00 -1.707314896427793371e+01 4.949418612661861339e+00 9.679461280176676397e+00 -2.188617327679204294e+01 -1.707314896427793371e+01 -2.188617327679204294e+01 1.512296473347284831e+01
2.282974943638544829e+01 4.911617246201931408e+00 -1.686918872219803944e+01 4.911617246201931408e+00 9.729033344941626638e+00 -2.164700762286329194e+01 -1.686918872219803944e+01 -2.164700762286329194e+01 1.513466430973372923e+01
2.278867645589512136e+01 4.860320471866606873e+00 -1.661597646455181732e+01 4.860320471866606873e+00 9.774658136256858754e+00 -2.136664452486697030e+01 -1.661597646455181732e+01 -2.136664452486697030e+01 1.509556496596826136e+01
2.272761818100170572e+01 4.796221729586245708e+00 -1.631466792455653092e+01 4.796221729586245708e+00 9.816051165945813395e+00 -2.104559961762308617e+01 -1.631466792455653092e+01 -2.104559961762308617e+01 1.500468877406953183e+01
2.264629012352864734e+01 4.720227825423620516e+00 -1.596727229995910946e+01 4.720227825423620516e+00 9.851825554147779940e+00 -2.068469080463923504e+01 -1.596727229995910946e+01 -2.068469080463923504e+01 1.486128895257407478e+01
2.254403440456765750e+01 4.633352248507712545e+00 -1.557613661821614315e+01 4.633352248507712545e+00 9.879936542093759044e+00 -2.028482489197819305e+01 -1.557613661821614315e+01 -2.028482489197819305e+01 1.466417420724256537e+01
2.242019314521045814e+01 4.536768512566818679e+00 -1.514376793138353605e+01 4.536768512566818679e+00 9.898357151525784658e+00 -1.984696202723584335e+01 -1.514376793138353605e+01 -1.984696202723584335e+01 1.441238439047912578e+01
2.227407290552668329e+01 4.431721253373370750e+00 -1.467301112122684792e+01 4.431721253373370750e+00 9.904758135498303417e+00 -1.937211569954115475e+01 -1.467301112122684792e+01 -1.937211569954115475e+01 1.410476376906649598e+01
2.210462463536528332e+01 4.319561789766014570e+00 -1.416663994746750888e+01 4.319561789766014570e+00 9.896436856334027254e+00 -1.886110381240174050e+01 -1.416663994746750888e+01 -1.886110381240174050e+01 1.373965875547843751e+01
2.191101265070762238e+01 4.201641440583390619e+00 -1.362748151136004537e+01 4.201641440583390619e+00 9.870832920443953995e+00 -1.831481539136933279e+01 -1.362748151136004537e+01 -1.831481539136933279e+01 1.331577137240941688e+01
-2.003886155488807930e+01 -1.097576659738184413e+00 -1.354926120100179077e+01 -1.097576659738184413e+00 -2.799732943734043999e+01 1.317160821597874154e+01 -1.354926120100179077e+01 1.317160821597874154e+01 -5.941007352145994069e+00
-1.996757608921602767e+01 -1.023407778831485482e+00 -1.354187593746530816e+01 -1.023407778831485482e+00 -2.801492757161125624e+01 1.310871255850556771e+01 -1.354187593746530816e+01 1.310871255850556771e+01 -5.867210524817959794e+00
-1.988339896704325938e+01 -9.497969782927828675e-01 -1.351490205301215575e+01 -9.497969782927828675e-01 -2.801087218760381603e+01 1.302926051678183761e+01 -1.351490205301215575e+01 1.302926051678183761e+01 -5.760635777209612840e+00
-1.978714870624284572e+01 -8.771721197375402790e-01 -1.346826513692660399e+01 -8.771721197375402790e-01 -2.798588878979651895e+01 1.293362414438621677e+01 -1.346826513692660399e+01 1.293362414438621677e+01 -5.623850279013737463e+00
-1.967977404344037140e+01 -8.061284888916202540e-01 -1.340176055974038682e+01 -8.061284888916202540e-01 -2.794059126659415782e+01 1.282221270025523552e+01 -1.340176055974038682e+01 1.282221270025523552e+01 -5.458212025792455790e+00
-1.956248415276649766e+01 -7.373357821966183279e-01 -1.331505347323270705e+01 -7.373357821966183279e-01 -2.787598416265912959e+01 1.269537963528862612e+01 -1.331505347323270705e+01 1.269537963528862612e+01 -5.265581285439091097e+00
-1.943686026193054772e+01 -6.713334773415975398e-01 -1.320782763186169717e+01 -6.713334773415975398e-01 -2.779344407623248614e+01 1.255349700306505056e+01 -1.320782763186169717e+01 1.255349700306505056e+01 -5.048115968709892876e+00
-1.930450220132077277e+01 -6.087540654102869819e-01 -1.307958076329616404e+01 -6.087540654102869819e-01 -2.769442201627102307e+01 1.239676943305277668e+01 -1.307958076329616404e+01 1.239676943305277668e+01 -4.808178615829381108e+00
-1.916706560936223624e+01 -5.500812160549501950e-01 -1.292977338984704261e+01 -5.500812160549501950e-01 -2.758059222387872467e+01 1.222536434936220218e+01 -1.292977338984704261e+01 1.222536434936220218e+01 -4.548187575058871168e+00
-1.902642935662718671e+01 -4.958172016067834420e-01 -1.275784743114633635e+01 -4.958172016067834420e-01 -2.745375915891211704e+01 1.203931895735119184e+01 -1.275784743114633635e+01 1.203931895735119184e+01 -4.270672810733278979e+00
6.502175186236732429e+01 -7.893039013328249531e+00 2.370094891099948597e+01 -7.893039013328249531e+00 5.593397845902187271e+01 -7.414406851182026026e-02 2.370094891099948597e+01 -7.414406851182026026e-02 8.062912885986845879e+01
6.493584049967149951e+01 -7.796118992892948185e+00 2.383497468286600807e+01 -7.796118992892948185e+00 5.563060817414914538e+01 -3.169414479359301817e-02 2.383497468286600807e+01 -3.169414479359301817e-02 8.017200825557151234e+01
6.469810069654423046e+01 -7.691224860496279625e+00 2.389057430495604706e+01 -7.691224860496279625e+00 5.521814596855337953e+01 7.164899753870762437e-03 2.389057430495604706e+01 7.164899753870762437e-03 7.938688696983616921e+01
6.430991485717335365e+01 -7.579772737501363267e+00 2.386821981772396839e+01 -7.579772737501363267e+00 5.469971068095094324e+01 4.201160043916692122e-02 2.386821981772396839e+01 4.201160043916692122e-02 7.827870456884572548e+01
6.377269910292194766e+01 -7.463971098891154732e+00 2.376899017077977305e+01 -7.463971098891154732e+00 5.407783109949027534e+01 7.212103799308028362e-02 2.376899017077977305e+01 7.212103799308028362e-02 7.685223203290684069e+01
6.309264053545984297e+01 -7.345606954957211165e+00 2.359438577842485429e+01 -7.345606954957211165e+00 5.335877861877946771e+01 9.668400020811486473e-02 2.359438577842485429e+01 9.668400020811486473e-02 7.512168115141371061e+01
6.227547107459013631e+01 -7.226973073620766463e+00 2.334686799445701766e+01 -7.226973073620766463e+00 5.254750966358941611e+01 1.148406991138061911e-01 2.334686799445701766e+01 1.148406991138061911e-01 7.310021848132574007e+01
6.132958629696560138e+01 -7.110429657153688687e+00 2.302999398087171556e+01 -7.110429657153688687e+00 5.165061594169370807e+01 1.256470538014089200e-01 2.302999398087171556e+01 1.256470538014089200e-01 7.080610187307460990e+01
6.026611287043930787e+01 -6.998336907827837905e+00 2.264838299068672711e+01 -6.998336907827837905e+00 5.067629072669321744e+01 1.282432763004585641e-01 2.264838299068672711e+01 1.282432763004585641e-01 6.826276476350236067e+01
5.909831850349666382e+01 -6.893021310739764651e+00 2.220783437805578586e+01 -6.893021310739764651e+00 4.963419398931494442e+01 1.219550231047084599e-01 2.220783437805578586e+01 1.219550231047084599e-01 6.549820926670589927e+01
-9.741476240058183578e+00 9.300041386580165437e+00 1.788975103179227233e+01 9.300041386580165437e+00 2.918284375520200769e+01 -1.625979337526021240e+01 1.788975103179227233e+01 -1.625979337526021240e+01 -1.011487607285322099e+01
-9.494038491371911803e+00 9.219159710773519478e+00 1.800751504005073400e+01 9.219159710773519478e+00 2.925403188198125903e+01 -1.626581130346680837e+01 1.800751504005073400e+01 -1.626581130346680837e+01 -9.680233910794028063e+00
-9.207322049600659142e+00 9.132602443993583563e+00 1.810425233508434673e+01 9.132602443993583563e+00 2.932662539319199269e+01 -1.624222606986669959e+01 1.810425233508434673e+01 -1.624222606986669959e+01 -9.202547346083449042e+00
-8.882912476667119250e+00 9.040802012219277373e+00 1.817895392294230206e+01 9.040802012219277373e+00 2.939984952562198117e+01 -1.618901965671075516e+01 1.817895392294230206e+01 -1.618901965671075516e+01 -8.686104603012408276e+00
-8.522701636229056632e+00 8.944389036669853965e+00 1.823048468542993561e+01 8.944389036669853965e+00 2.947303762255372561e+01 -1.610644431248668340e+01 1.823048468542993561e+01 -1.610644431248668340e+01 -8.133986716680698947e+00
-8.129067871170514437e+00 8.844192333804905104e+00 1.825758338010875192e+01 8.844192333804905104e+00 2.954545095627323903e+01 -1.599491444542427843e+01 1.825758338010875192e+01 -1.599491444542427843e+01 -7.549418864181072664e+00
-7.704785914856214113e+00 8.740968649087534459e+00 1.825880858704901755e+01 8.740968649087534459e+00 2.961620665707356892e+01 -1.585497058799718673e+01 1.825880858704901755e+01 -1.585497058799718673e+01 -6.936148737330814384e+00
-7.253026891131544751e+00 8.635618869973821887e+00 1.823286302831398231e+01 8.635618869973821887e+00 2.968436780200039848e+01 -1.568727939692290363e+01 1.823286302831398231e+01 -1.568727939692290363e+01 -6.298230329682273698e+00
-6.776979941591026346e+00 8.528989830672479400e+00 1.817816114198095079e+01 8.528989830672479400e+00 2.974872720186258590e+01 -1.549257959991541433e+01 1.817816114198095079e+01 -1.549257959991541433e+01 -5.639915830028137123e+00
-6.280032403069506941e+00 8.422000436388703548e+00 1.809320745487283588e+01 8.422000436388703548e+00 2.980842000470228470e+01 -1.527164596018694809e+01 1.809320745487283588e+01 -1.527164596018694809e+01 -4.965241214171630446e+00
-2.331577148725976656e+01 5.409678782298743549e+00 -1.141607204882648396e+01 5.409678782298743549e+00 -2.910098547839986693e+01 1.390187417820844296e+01 -1.141607204882648396e+01 1.390187417820844296e+01 -1.852693991905976745e+01
-2.316435263798398836e+01 5.372039206718947746e+00 -1.129234036250204554e+01 5.372039206718947746e+00 -2.901577262215435482e+01 1.390279084779264274e+01 -1.129234036250204554e+01 1.390279084779264274e+01 -1.819295416218795225e+01
-2.298644390847908880e+01 5.329105396601836020e+00 -1.115366134969239198e+01 5.329105396601836020e+00 -2.889467869932731148e+01 1.389089285074057933e+01 -1.115366134969239198e+01 1.389089285074057933e+01 -1.778410082009230919e+01
-2.278404700579627828e+01 5.281045719830218310e+00 -1.099964215200429152e+01 5.281045719830218310e+00 -2.873914419069390291e+01 1.386588086637170036e+01 -1.099964215200429152e+01 1.386588086637170036e+01 -1.730724556088307153e+01
-2.255822825986004077e+01 5.228178204627185188e+00 -1.083033889206535072e+01 5.228178204627185188e+00 -2.854980515270030850e+01 1.382732462120770300e+01 -1.083033889206535072e+01 1.382732462120770300e+01 -1.676457716703679068e+01
-2.231080230229623496e+01 5.170839586758360973e+00 -1.064565803216289375e+01 5.170839586758360973e+00 -2.832802723595155925e+01 1.377462547388748249e+01 -1.064565803216289375e+01 1.377462547388748249e+01 -1.615935075095451268e+01
-2.204377084015607480e+01 5.109329186904301601e+00 -1.044561827983945790e+01 5.109329186904301601e+00 -2.807543799664818351e+01 1.370714736796485766e+01 -1.044561827983945790e+01 1.370714736796485766e+01 -1.549517686834542474e+01
-2.175924782574598382e+01 5.044002448373165137e+00 -1.023005126721222879e+01 5.044002448373165137e+00 -2.779398301921377623e+01 1.362421683190857813e+01 -1.023005126721222879e+01 1.362421683190857813e+01 -1.477570349000379579e+01
-2.145938462645744238e+01 4.975158691845507519e+00 -9.998900871653603417e+00 4.975158691845507519e+00 -2.748572013332715969e+01 1.352506685647472118e+01 -9.998900871653603417e+00 1.352506685647472118e+01 -1.400500886020218694e+01
-2.114650097756475589e+01 4.903172068172021447e+00 -9.751998725280769165e+00 4.903172068172021447e+00 -2.715285682900742614e+01 1.340889301733429839e+01 -9.751998725280769165e+00 1.340889301733429839e+01 -1.318735829863850562e+01
-4.016307205726773333e+01 -4.268094885384039472e+00 -2.195903070124791245e+00 -4.268094885384039472e+00 -1.646721683094045474e+01 9.607033487403851879e+00 -2.195903070124791245e+00 9.607033487403851879e+00 -4.014558496771903862e+01
-4.007210900893567640e+01 -4.263756125301838118e+00 -2.157288105393201594e+00 -4.263756125301838118e+00 -1.654795549681793432e+01 9.443632009873304867e+00 -2.157288105393201594e+00 9.443632009873304867e+00 -4.013379485880001596e+01
-3.991764915000931779e+01 -4.257229121004265870e+00 -2.115334181815743619e+00 -4.257229121004265870e+00 -1.658677796746650301e+01 9.268459287598002305e+00 -2.115334181815743619e+00 9.268459287598002305e+00 -3.997658083043017285e+01
-3.969935292535179627e+01 -4.248476144142781408e+00 -2.069890385998254256e+00 -4.248476144142781408e+00 -1.658230715816440437e+01 9.081439863880865104e+00 -2.069890385998254256e+00 9.081439863880865104e+00 -3.967420698104929500e+01
-3.941838991376786794e+01 -4.237497194717385618e+00 -2.020975582115004610e+00 -4.237497194717385618e+00 -1.653490148822279338e+01 8.882932158033028713e+00 -2.020975582115004610e+00 8.882932158033028713e+00 -3.922823903712183835e+01
-3.907623152085063367e+01 -4.224235680205267407e+00 -1.968552041817452913e+00 -4.224235680205267407e+00 -1.644488164860425528e+01 8.673200268494282383e+00 -1.968552041817452913e+00 8.673200268494282383e+00 -3.864088410703742937e+01
-3.867487734907275865e+01 -4.208672736432154338e+00 -1.912751814325492683e+00 -4.208672736432154338e+00 -1.631296447793106807e+01 8.452508293704408260e+00 -1.912751814325492683e+00 8.452508293704408260e+00 -3.791531137207351065e+01
-3.821674201274086613e+01 -4.190846091746588620e+00 -1.853612627987664574e+00 -4.190846091746588620e+00 -1.614014977743957147e+01 8.221082603754656049e+00 -1.853612627987664574e+00 8.221082603754656049e+00 -3.705582186396374311e+01
-3.770440990372999579e+01 -4.170699153625760047e+00 -1.791360852895213851e+00 -4.170699153625760047e+00 -1.592768258263161307e+01 7.979092976213456367e+00 -1.791360852895213851e+00 7.979092976213456367e+00 -3.606688639201021829e+01
-3.714099361079477291e+01 -4.148307378766747711e+00 -1.726109674093763369e+00 -4.148307378766747711e+00 -1.567693997822892982e+01 7.726652596126433181e+00 -1.726109674093763369e+00 7.726652596126433181e+00 -3.495427739353969088e+01