0.000000000000000000e+00 2.032270000000000021e+00 9.386839999999999407e+00 -1.760000000000000009e+00 5.080680000000000085e+00 9.386839999999999407e+00 -3.520000000000000018e+00 8.129089999999999705e+00 9.386839999999999407e+00 3.520000000000000018e+00 2.032270000000000021e+00 9.386839999999999407e+00 1.760000000000000009e+00 5.080680000000000085e+00 9.386839999999999407e+00 0.000000000000000000e+00 8.129089999999999705e+00 9.386839999999999407e+00 7.040000000000000036e+00 2.032270000000000021e+00 9.386839999999999407e+00 5.280000000000000249e+00 5.080680000000000085e+00 9.386839999999999407e+00 3.520000000000000018e+00 8.129089999999999705e+00 9.386839999999999407e+00 1.056000000000000050e+00 2.032270000000000021e+00 1.699249000000000009e+01 -7.039999999999999591e-01 5.080680000000000085e+00 1.699249000000000009e+01 -2.463999999999999968e+00 8.129089999999999705e+00 1.699249000000000009e+01 4.575999999999999623e+00 2.032270000000000021e+00 1.699249000000000009e+01 2.815999999999999837e+00 5.080680000000000085e+00 1.699249000000000009e+01 1.056000000000000050e+00 8.129089999999999705e+00 1.699249000000000009e+01 8.096000000000000085e+00 2.032270000000000021e+00 1.699249000000000009e+01 6.336000000000000298e+00 5.080680000000000085e+00 1.699249000000000009e+01 4.575999999999999623e+00 8.129089999999999705e+00 1.699249000000000009e+01 0.000000000000000000e+00 2.032270000000000021e+00 1.300749000000000066e+01 -1.760000000000000009e+00 5.080680000000000085e+00 1.300749000000000066e+01 -3.520000000000000018e+00 8.129089999999999705e+00 1.300749000000000066e+01 3.520000000000000018e+00 2.032270000000000021e+00 1.300749000000000066e+01 1.760000000000000009e+00 5.080680000000000085e+00 1.300749000000000066e+01 0.000000000000000000e+00 8.129089999999999705e+00 1.300749000000000066e+01 7.040000000000000036e+00 2.032270000000000021e+00 1.300749000000000066e+01 5.280000000000000249e+00 5.080680000000000085e+00 1.300749000000000066e+01 3.520000000000000018e+00 8.129089999999999705e+00 1.300749000000000066e+01 1.056000000000000050e+00 2.032270000000000021e+00 2.061320999999999870e+01 -7.039999999999999591e-01 5.080680000000000085e+00 2.061320999999999870e+01 -2.463999999999999968e+00 8.129089999999999705e+00 2.061320999999999870e+01 4.575999999999999623e+00 2.032270000000000021e+00 2.061320999999999870e+01 2.815999999999999837e+00 5.080680000000000085e+00 2.061320999999999870e+01 1.056000000000000050e+00 8.129089999999999705e+00 2.061320999999999870e+01 8.096000000000000085e+00 2.032270000000000021e+00 2.061320999999999870e+01 6.336000000000000298e+00 5.080680000000000085e+00 2.061320999999999870e+01 4.575999999999999623e+00 8.129089999999999705e+00 2.061320999999999870e+01 0.000000000000000000e+00 0.000000000000000000e+00 1.119685999999999915e+01 -1.760000000000000009e+00 3.048410000000000064e+00 1.119685999999999915e+01 -3.520000000000000018e+00 6.096820000000000128e+00 1.119685999999999915e+01 3.520000000000000018e+00 0.000000000000000000e+00 1.119685999999999915e+01 1.760000000000000009e+00 3.048410000000000064e+00 1.119685999999999915e+01 0.000000000000000000e+00 6.096820000000000128e+00 1.119685999999999915e+01 7.040000000000000036e+00 0.000000000000000000e+00 1.119685999999999915e+01 5.280000000000000249e+00 3.048410000000000064e+00 1.119685999999999915e+01 3.520000000000000018e+00 6.096820000000000128e+00 1.119685999999999915e+01 1.056000000000000050e+00 0.000000000000000000e+00 1.880314999999999870e+01 -7.039999999999999591e-01 3.048410000000000064e+00 1.880314999999999870e+01 -2.463999999999999968e+00 6.096820000000000128e+00 1.880314999999999870e+01 4.575999999999999623e+00 0.000000000000000000e+00 1.880314999999999870e+01 2.815999999999999837e+00 3.048410000000000064e+00 1.880314999999999870e+01 1.056000000000000050e+00 6.096820000000000128e+00 1.880314999999999870e+01 8.096000000000000085e+00 0.000000000000000000e+00 1.880314999999999870e+01 6.336000000000000298e+00 3.048410000000000064e+00 1.880314999999999870e+01 4.575999999999999623e+00 6.096820000000000128e+00 1.880314999999999870e+01
-2.150000000000000001e-03 2.033049999999999802e+00 9.389789999999999637e+00 -1.760639999999999983e+00 5.082379999999999676e+00 9.385830000000000339e+00 -3.517520000000000202e+00 8.128000000000000114e+00 9.387969999999999260e+00 3.516379999999999839e+00 2.032849999999999824e+00 9.387869999999999493e+00 1.761139999999999928e+00 5.080499999999999794e+00 9.387950000000000017e+00 1.459999999999999926e-03 8.126509999999999678e+00 9.385659999999999670e+00 7.039769999999999861e+00 2.031670000000000087e+00 9.386839999999999407e+00 5.278279999999999639e+00 5.078050000000000175e+00 9.386100000000000776e+00 3.519709999999999894e+00 8.127039999999999154e+00 9.388619999999999521e+00 1.055069999999999952e+00 2.030759999999999899e+00 1.699540999999999968e+01 -7.013700000000000490e-01 5.081159999999999677e+00 1.699200000000000088e+01 -2.464030000000000165e+00 8.128729999999999123e+00 1.699227000000000132e+01 4.573699999999999655e+00 2.033669999999999867e+00 1.699117999999999995e+01 2.817379999999999995e+00 5.080199999999999605e+00 1.699677000000000149e+01 1.053609999999999935e+00 8.130309999999999704e+00 1.698950999999999922e+01 8.096149999999999736e+00 2.030759999999999899e+00 1.699232999999999905e+01 6.335619999999999585e+00 5.080070000000000086e+00 1.699164000000000030e+01 4.576839999999999797e+00 8.130750000000000810e+00 1.699368000000000123e+01 -4.479999999999999608e-03 2.030980000000000008e+00 1.300934999999999953e+01 -1.758289999999999909e+00 5.078199999999999825e+00 1.300732999999999961e+01 -3.521710000000000118e+00 8.126310000000000144e+00 1.300609999999999999e+01 3.520150000000000112e+00 2.032799999999999940e+00 1.300417999999999985e+01 1.759390000000000009e+00 5.081290000000000084e+00 1.300914000000000037e+01 1.840000000000000056e-03 8.128709999999999880e+00 1.300737999999999950e+01 7.038579999999999615e+00 2.029599999999999849e+00 1.300772000000000084e+01 5.280770000000000408e+00 5.078879999999999839e+00 1.300765999999999956e+01 3.519509999999999916e+00 8.128959999999999297e+00 1.300680000000000014e+01 1.055879999999999930e+00 2.031639999999999890e+00 2.061302999999999841e+01 -7.015799999999999814e-01 5.080210000000000115e+00 2.061301999999999879e+01 -2.464869999999999894e+00 8.130420000000000869e+00 2.061277000000000115e+01 4.575160000000000338e+00 2.032729999999999926e+00 2.061281999999999925e+01 2.817279999999999784e+00 5.081929999999999836e+00 2.061448999999999998e+01 1.057860000000000023e+00 8.130129999999999413e+00 2.061441999999999908e+01 8.098089999999999122e+00 2.030440000000000023e+00 2.060931000000000068e+01 6.335379999999999789e+00 5.085230000000000139e+00 2.061234999999999928e+01 4.576900000000000190e+00 8.129289999999999239e+00 2.061371000000000109e+01 5.279829999999999579e+00 9.144239999999999924e+00 1.119811999999999941e+01 -1.761740000000000084e+00 3.052529999999999966e+00 1.119879000000000069e+01 -3.519420000000000215e+00 6.099059999999999704e+00 1.120006000000000057e+01 3.522569999999999979e+00 2.900000000000000017e-04 1.119593000000000060e+01 1.759689999999999976e+00 3.048639999999999795e+00 1.119622000000000028e+01 1.180000000000000059e-03 6.095989999999999576e+00 1.119533000000000023e+01 1.760310000000000041e+00 9.143370000000000886e+00 1.119678000000000040e+01 5.281290000000000262e+00 3.047699999999999854e+00 1.119734000000000052e+01 3.520840000000000192e+00 6.097739999999999938e+00 1.119541000000000075e+01 1.058019999999999960e+00 1.809999999999999977e-03 1.880217000000000027e+01 -7.051699999999999635e-01 3.052550000000000097e+00 1.879979000000000156e+01 -2.465399999999999814e+00 6.097249999999999837e+00 1.880376000000000047e+01 4.575000000000000178e+00 1.760000000000000063e-03 1.880504000000000175e+01 2.815519999999999801e+00 3.048750000000000071e+00 1.880118999999999829e+01 1.058449999999999891e+00 6.097579999999999778e+00 1.880330999999999975e+01 8.092930000000000845e+00 2.990000000000000036e-03 1.880227000000000004e+01 6.339610000000000412e+00 3.047829999999999817e+00 1.880172999999999917e+01 4.574130000000000251e+00 6.095480000000000231e+00 1.880330999999999975e+01
-4.300000000000000003e-03 2.033830000000000027e+00 9.392739999999999867e+00 -1.761279999999999957e+00 5.084069999999999645e+00 9.384819999999999496e+00 -3.515050000000000008e+00 8.126899999999999125e+00 9.389110000000000511e+00 3.512779999999999792e+00 2.033420000000000005e+00 9.388889999999999958e+00 1.762280000000000069e+00 5.080320000000000391e+00 9.389060000000000628e+00 2.919999999999999853e-03 8.123929999999999652e+00 9.384479999999999933e+00 7.039550000000000196e+00 2.031060000000000088e+00 9.386850000000000804e+00 5.276570000000000427e+00 5.075420000000000265e+00 9.385360000000000369e+00 3.519420000000000215e+00 8.124990000000000379e+00 9.390399999999999636e+00 1.054149999999999920e+00 2.029259999999999842e+00 1.699831000000000003e+01 -6.987400000000000277e-01 5.081649999999999778e+00 1.699149999999999849e+01 -2.464049999999999851e+00 8.128379999999999939e+00 1.699203999999999937e+01 4.571419999999999817e+00 2.035060000000000091e+00 1.698986000000000018e+01 2.818770000000000220e+00 5.079720000000000013e+00 1.700101000000000084e+01 1.051230000000000109e+00 8.131529999999999703e+00 1.698652999999999835e+01 8.096310000000000784e+00 2.029250000000000220e+00 1.699214999999999876e+01 6.335250000000000270e+00 5.079449999999999577e+00 1.699078000000000088e+01 4.577679999999999971e+00 8.132410000000000139e+00 1.699486999999999881e+01 -8.959999999999999215e-03 2.029689999999999994e+00 1.301120000000000054e+01 -1.756590000000000096e+00 5.075739999999999696e+00 1.300717999999999996e+01 -3.523410000000000153e+00 8.123530000000000584e+00 1.300470999999999933e+01 3.520290000000000141e+00 2.033329999999999860e+00 1.300087000000000081e+01 1.758769999999999945e+00 5.081900000000000084e+00 1.301079000000000008e+01 3.670000000000000085e-03 8.128330000000000055e+00 1.300727999999999973e+01 7.037149999999999572e+00 2.026920000000000055e+00 1.300794999999999924e+01 5.281520000000000437e+00 5.077090000000000103e+00 1.300783999999999985e+01 3.519019999999999815e+00 8.128830000000000666e+00 1.300611999999999924e+01 1.055749999999999966e+00 2.031019999999999825e+00 2.061283999999999850e+01 -6.991699999999999582e-01 5.079740000000000144e+00 2.061283999999999850e+01 -2.465730000000000199e+00 8.131750000000000256e+00 2.061233000000000004e+01 4.574329999999999785e+00 2.033189999999999831e+00 2.061243999999999943e+01 2.818550000000000111e+00 5.083169999999999966e+00 2.061577000000000126e+01 1.059709999999999930e+00 8.131169999999999121e+00 2.061562999999999946e+01 8.100189999999999557e+00 2.028630000000000155e+00 2.060542999999999836e+01 6.334760000000000169e+00 5.089760000000000062e+00 2.061149999999999949e+01 4.577799999999999869e+00 8.129500000000000171e+00 2.061420999999999992e+01 5.279659999999999798e+00 9.143250000000000099e+00 1.119937000000000005e+01 -1.763479999999999936e+00 3.056630000000000180e+00 1.120069999999999943e+01 -3.518850000000000033e+00 6.101280000000000037e+00 1.120322999999999958e+01 3.525119999999999809e+00 5.699999999999999772e-04 1.119500000000000028e+01 1.759370000000000100e+00 3.048869999999999969e+00 1.119558999999999926e+01 2.360000000000000119e-03 6.095159999999999911e+00 1.119382000000000055e+01 1.760610000000000008e+00 9.141529999999999490e+00 1.119668000000000063e+01 5.282560000000000144e+00 3.046990000000000087e+00 1.119780000000000086e+01 3.521669999999999856e+00 6.098650000000000126e+00 1.119397000000000020e+01 1.060040000000000093e+00 3.609999999999999928e-03 1.880120000000000147e+01 -7.063300000000000134e-01 3.056659999999999933e+00 1.879645000000000010e+01 -2.466769999999999907e+00 6.097690000000000055e+00 1.880435999999999908e+01 4.574010000000000353e+00 3.500000000000000073e-03 1.880690999999999846e+01 2.815049999999999830e+00 3.049100000000000144e+00 1.879925000000000068e+01 1.060890000000000111e+00 6.098359999999999559e+00 1.880348000000000042e+01 8.089880000000000848e+00 5.950000000000000427e-03 1.880138000000000176e+01 6.343200000000000394e+00 3.047270000000000145e+00 1.880031999999999925e+01 4.572280000000000122e+00 6.094149999999999956e+00 1.880347000000000079e+01
-6.459999999999999597e-03 2.034609999999999808e+00 9.395680000000000476e+00 -1.761919999999999931e+00 5.085770000000000124e+00 9.383810000000000429e+00 -3.512589999999999879e+00 8.125819999999999155e+00 9.390240000000000364e+00 3.509189999999999809e+00 2.033999999999999808e+00 9.389900000000000801e+00 1.763419999999999987e+00 5.080140000000000100e+00 9.390150000000000219e+00 4.380000000000000213e-03 8.121359999999999246e+00 9.383290000000000575e+00 7.039329999999999643e+00 2.030460000000000154e+00 9.386860000000000426e+00 5.274879999999999569e+00 5.072809999999999597e+00 9.384639999999999205e+00 3.519130000000000091e+00 8.122949999999999449e+00 9.392150000000000887e+00 1.053239999999999954e+00 2.027779999999999916e+00 1.700116999999999834e+01 -6.961000000000000520e-01 5.082160000000000011e+00 1.699099999999999966e+01 -2.464049999999999851e+00 8.128019999999999357e+00 1.699181000000000097e+01 4.569169999999999732e+00 2.036449999999999871e+00 1.698854000000000042e+01 2.820170000000000066e+00 5.079240000000000421e+00 1.700522000000000133e+01 1.048859999999999904e+00 8.132749999999999702e+00 1.698357000000000028e+01 8.096479999999999677e+00 2.027759999999999785e+00 1.699194999999999922e+01 6.334900000000000198e+00 5.078839999999999577e+00 1.698992000000000147e+01 4.578520000000000145e+00 8.134059999999999846e+00 1.699605999999999995e+01 -1.342999999999999923e-02 2.028410000000000046e+00 1.301304999999999978e+01 -1.754909999999999970e+00 5.073290000000000077e+00 1.300703999999999994e+01 -3.525110000000000188e+00 8.120779999999999887e+00 1.300334999999999930e+01 3.520420000000000105e+00 2.033859999999999779e+00 1.299759000000000064e+01 1.758150000000000102e+00 5.082510000000000083e+00 1.301243000000000016e+01 5.479999999999999628e-03 8.127940000000000609e+00 1.300717999999999996e+01 7.035709999999999908e+00 2.024259999999999948e+00 1.300819000000000081e+01 5.282259999999999955e+00 5.075300000000000367e+00 1.300801000000000052e+01 3.518510000000000026e+00 8.128690000000000637e+00 1.300545999999999935e+01 1.055620000000000003e+00 2.030409999999999826e+00 2.061264999999999858e+01 -6.967799999999999550e-01 5.079290000000000305e+00 2.061264999999999858e+01 -2.466590000000000060e+00 8.133079999999999643e+00 2.061191000000000173e+01 4.573500000000000121e+00 2.033669999999999867e+00 2.061204999999999998e+01 2.819809999999999928e+00 5.084399999999999586e+00 2.061705999999999861e+01 1.061539999999999928e+00 8.132210000000000605e+00 2.061683000000000021e+01 8.102280000000000371e+00 2.026829999999999909e+00 2.060156999999999883e+01 6.334139999999999660e+00 5.094269999999999854e+00 2.061064999999999969e+01 4.578689999999999927e+00 8.129720000000000724e+00 2.061467999999999989e+01 5.279480000000000395e+00 9.142260000000000275e+00 1.120059999999999967e+01 -1.765239999999999920e+00 3.060690000000000133e+00 1.120259000000000071e+01 -3.518289999999999917e+00 6.103439999999999976e+00 1.120635000000000048e+01 3.527649999999999952e+00 8.300000000000000086e-04 1.119407999999999959e+01 1.759009999999999962e+00 3.049100000000000144e+00 1.119500999999999991e+01 3.510000000000000099e-03 6.094330000000000247e+00 1.119233000000000011e+01 1.760909999999999975e+00 9.139689999999999870e+00 1.119658000000000087e+01 5.283820000000000405e+00 3.046269999999999811e+00 1.119824000000000019e+01 3.522499999999999964e+00 6.099529999999999674e+00 1.119257999999999953e+01 1.062040000000000095e+00 5.380000000000000233e-03 1.880026000000000153e+01 -7.074700000000000433e-01 3.060709999999999820e+00 1.879315000000000069e+01 -2.468119999999999870e+00 6.098130000000000273e+00 1.880495000000000161e+01 4.573030000000000150e+00 5.230000000000000274e-03 1.880874999999999986e+01 2.814589999999999925e+00 3.049450000000000216e+00 1.879737000000000080e+01 1.063330000000000108e+00 6.099149999999999849e+00 1.880364000000000146e+01 8.086859999999999715e+00 8.869999999999999413e-03 1.880048999999999992e+01 6.346750000000000114e+00 3.046720000000000095e+00 1.879891999999999896e+01 4.570470000000000255e+00 6.092850000000000321e+00 1.880362999999999829e+01
-8.609999999999999598e-03 2.035390000000000033e+00 9.398609999999999687e+00 -1.762569999999999970e+00 5.087460000000000093e+00 9.382820000000000604e+00 -3.510139999999999816e+00 8.124739999999999185e+00 9.391360000000000596e+00 3.505640000000000089e+00 2.034569999999999990e+00 9.390890000000000626e+00 1.764559999999999906e+00 5.079950000000000188e+00 9.391220000000000567e+00 5.830000000000000113e-03 8.118800000000000239e+00 9.382099999999999440e+00 7.039109999999999978e+00 2.029860000000000220e+00 9.386870000000000047e+00 5.273220000000000240e+00 5.070219999999999949e+00 9.383919999999999817e+00 3.518870000000000164e+00 8.120929999999999538e+00 9.393869999999999720e+00 1.052340000000000053e+00 2.026310000000000056e+00 1.700399000000000171e+01 -6.934799999999999853e-01 5.082690000000000374e+00 1.699048000000000158e+01 -2.464039999999999786e+00 8.127670000000000172e+00 1.699157999999999902e+01 4.566939999999999777e+00 2.037830000000000030e+00 1.698723999999999990e+01 2.821559999999999846e+00 5.078759999999999941e+00 1.700937000000000054e+01 1.046499999999999986e+00 8.133960000000000079e+00 1.698063000000000144e+01 8.096669999999999590e+00 2.026279999999999859e+00 1.699171000000000120e+01 6.334550000000000125e+00 5.078240000000000087e+00 1.698905999999999850e+01 4.579349999999999810e+00 8.135699999999999932e+00 1.699724000000000146e+01 -1.788000000000000006e-02 2.027149999999999785e+00 1.301487999999999978e+01 -1.753230000000000066e+00 5.070890000000000342e+00 1.300693000000000055e+01 -3.526780000000000026e+00 8.118069999999999453e+00 1.300201999999999991e+01 3.520529999999999937e+00 2.034380000000000077e+00 1.299433999999999934e+01 1.757540000000000102e+00 5.083109999999999573e+00 1.301404999999999923e+01 7.270000000000000420e-03 8.127539999999999765e+00 1.300707000000000058e+01 7.034279999999999866e+00 2.021599999999999842e+00 1.300843000000000060e+01 5.282980000000000231e+00 5.073520000000000252e+00 1.300819000000000081e+01 3.517999999999999794e+00 8.128539999999999210e+00 1.300481000000000087e+01 1.055479999999999974e+00 2.029830000000000023e+00 2.061244999999999905e+01 -6.943899999999999517e-01 5.078850000000000087e+00 2.061245999999999867e+01 -2.467439999999999856e+00 8.134389999999999787e+00 2.061148999999999987e+01 4.572700000000000209e+00 2.034159999999999968e+00 2.061166000000000054e+01 2.821070000000000189e+00 5.085600000000000342e+00 2.061833999999999989e+01 1.063360000000000083e+00 8.133250000000000313e+00 2.061803000000000097e+01 8.104359999999999786e+00 2.025069999999999926e+00 2.059775000000000134e+01 6.333529999999999660e+00 5.098720000000000141e+00 2.060980999999999952e+01 4.579570000000000363e+00 8.129939999999999500e+00 2.061513000000000062e+01 5.279289999999999594e+00 9.141289999999999694e+00 1.120180000000000042e+01 -1.767009999999999970e+00 3.064659999999999940e+00 1.120443000000000033e+01 -3.517729999999999801e+00 6.105520000000000280e+00 1.120937999999999946e+01 3.530149999999999899e+00 1.059999999999999961e-03 1.119317999999999991e+01 1.758620000000000072e+00 3.049339999999999939e+00 1.119448000000000043e+01 4.649999999999999620e-03 6.093510000000000204e+00 1.119087000000000032e+01 1.761200000000000099e+00 9.137879999999999114e+00 1.119646999999999970e+01 5.285029999999999895e+00 3.045560000000000045e+00 1.119865000000000066e+01 3.523299999999999876e+00 6.100369999999999848e+00 1.119125000000000014e+01 1.064019999999999966e+00 7.110000000000000001e-03 1.879936000000000007e+01 -7.085700000000000331e-01 3.064690000000000136e+00 1.878991999999999862e+01 -2.469409999999999883e+00 6.098580000000000112e+00 1.880551000000000172e+01 4.572070000000000078e+00 6.919999999999999936e-03 1.881053999999999959e+01 2.814140000000000086e+00 3.049799999999999844e+00 1.879555999999999827e+01 1.065739999999999910e+00 6.099969999999999892e+00 1.880382000000000176e+01 8.083899999999999864e+00 1.171999999999999952e-02 1.879958999999999847e+01 6.350220000000000198e+00 3.046199999999999797e+00 1.879755000000000109e+01 4.568699999999999761e+00 6.091590000000000060e+00 1.880378999999999934e+01
-1.077000000000000006e-02 2.036150000000000126e+00 9.401519999999999655e+00 -1.763230000000000075e+00 5.089159999999999684e+00 9.381830000000000780e+00 -3.507719999999999949e+00 8.123680000000000234e+00 9.392480000000000828e+00 3.502130000000000187e+00 2.035130000000000106e+00 9.391859999999999431e+00 1.765689999999999982e+00 5.079760000000000275e+00 9.392260000000000275e+00 7.280000000000000013e-03 8.116270000000000095e+00 9.380900000000000460e+00 7.038909999999999556e+00 2.029259999999999842e+00 9.386889999999999290e+00 5.271589999999999776e+00 5.067660000000000053e+00 9.383229999999999293e+00 3.518619999999999859e+00 8.118940000000000268e+00 9.395559999999999690e+00 1.051460000000000061e+00 2.024869999999999948e+00 1.700674000000000063e+01 -6.908699999999999841e-01 5.083260000000000112e+00 1.698995999999999995e+01 -2.463999999999999968e+00 8.127319999999999212e+00 1.699135000000000062e+01 4.564759999999999707e+00 2.039200000000000124e+00 1.698593999999999937e+01 2.822940000000000005e+00 5.078299999999999592e+00 1.701343999999999923e+01 1.044149999999999912e+00 8.135180000000000078e+00 1.697774000000000072e+01 8.096859999999999502e+00 2.024830000000000130e+00 1.699142000000000152e+01 6.334220000000000184e+00 5.077639999999999709e+00 1.698820999999999870e+01 4.580180000000000362e+00 8.137330000000000396e+00 1.699842999999999904e+01 -2.230999999999999997e-02 2.025889999999999969e+00 1.301670000000000016e+01 -1.751579999999999915e+00 5.068539999999999601e+00 1.300685000000000002e+01 -3.528430000000000177e+00 8.115410000000000679e+00 1.300071999999999939e+01 3.520620000000000083e+00 2.034879999999999800e+00 1.299112000000000045e+01 1.756930000000000103e+00 5.083709999999999951e+00 1.301563999999999943e+01 9.029999999999999832e-03 8.127119999999999678e+00 1.300697000000000081e+01 7.032849999999999824e+00 2.018959999999999866e+00 1.300868000000000002e+01 5.283680000000000376e+00 5.071760000000000268e+00 1.300838000000000072e+01 3.517490000000000006e+00 8.128379999999999939e+00 1.300417999999999985e+01 1.055320000000000036e+00 2.029279999999999973e+00 2.061223000000000027e+01 -6.920300000000000340e-01 5.078439999999999621e+00 2.061225999999999914e+01 -2.468280000000000030e+00 8.135699999999999932e+00 2.061110000000000042e+01 4.571920000000000428e+00 2.034679999999999822e+00 2.061127000000000109e+01 2.822309999999999874e+00 5.086789999999999701e+00 2.061963000000000079e+01 1.065160000000000107e+00 8.134290000000000020e+00 2.061921999999999855e+01 8.106450000000000600e+00 2.023350000000000204e+00 2.059397999999999840e+01 6.332919999999999661e+00 5.103119999999999656e+00 2.060896999999999935e+01 4.580429999999999779e+00 8.130190000000000694e+00 2.061553999999999931e+01 5.279090000000000060e+00 9.140319999999999112e+00 1.120297000000000054e+01 -1.768790000000000084e+00 3.068550000000000111e+00 1.120622000000000007e+01 -3.517189999999999817e+00 6.107499999999999929e+00 1.121231000000000044e+01 3.532610000000000028e+00 1.260000000000000052e-03 1.119231000000000087e+01 1.758170000000000011e+00 3.049589999999999801e+00 1.119402999999999970e+01 5.760000000000000363e-03 6.092699999999999783e+00 1.118947000000000003e+01 1.761490000000000000e+00 9.136079999999999757e+00 1.119633999999999929e+01 5.286209999999999631e+00 3.044840000000000213e+00 1.119902000000000086e+01 3.524090000000000167e+00 6.101149999999999629e+00 1.118998999999999988e+01 1.065960000000000019e+00 8.789999999999999203e-03 1.879850000000000065e+01 -7.096299999999999830e-01 3.068569999999999798e+00 1.878677000000000064e+01 -2.470629999999999882e+00 6.099039999999999573e+00 1.880602999999999980e+01 4.571139999999999759e+00 8.580000000000000820e-03 1.881225999999999843e+01 2.813689999999999802e+00 3.050159999999999982e+00 1.879386999999999830e+01 1.068119999999999958e+00 6.100819999999999688e+00 1.880401000000000167e+01 8.081009999999999138e+00 1.447000000000000022e-02 1.879869000000000057e+01 6.353600000000000136e+00 3.045710000000000139e+00 1.879620999999999853e+01 4.567000000000000171e+00 6.090379999999999683e+00 1.880396000000000001e+01
-1.294000000000000011e-02 2.036919999999999842e+00 9.404429999999999623e+00 -1.763900000000000023e+00 5.090860000000000163e+00 9.380860000000000198e+00 -3.505320000000000213e+00 8.122640000000000526e+00 9.393589999999999662e+00 3.498660000000000103e+00 2.035690000000000222e+00 9.392810000000000770e+00 1.766829999999999901e+00 5.079559999999999853e+00 9.393259999999999721e+00 8.729999999999999913e-03 8.113759999999999195e+00 9.379699999999999704e+00 7.038710000000000022e+00 2.028669999999999973e+00 9.386910000000000309e+00 5.270019999999999705e+00 5.065129999999999910e+00 9.382559999999999789e+00 3.518390000000000128e+00 8.116979999999999862e+00 9.397199999999999775e+00 1.050589999999999913e+00 2.023470000000000102e+00 1.700941999999999865e+01 -6.882700000000000484e-01 5.083870000000000111e+00 1.698940999999999946e+01 -2.463940000000000019e+00 8.126970000000000027e+00 1.699111999999999867e+01 4.562630000000000408e+00 2.040560000000000151e+00 1.698466000000000165e+01 2.824320000000000164e+00 5.077840000000000131e+00 1.701741000000000170e+01 1.041819999999999968e+00 8.136400000000000077e+00 1.697487999999999886e+01 8.097070000000000434e+00 2.023410000000000153e+00 1.699107000000000056e+01 6.333899999999999864e+00 5.077049999999999841e+00 1.698735999999999891e+01 4.581000000000000405e+00 8.138939999999999841e+00 1.699962000000000018e+01 -2.670000000000000151e-02 2.024649999999999839e+00 1.301848999999999990e+01 -1.749940000000000051e+00 5.066250000000000142e+00 1.300680000000000014e+01 -3.530040000000000067e+00 8.112809999999999633e+00 1.299947000000000052e+01 3.520700000000000163e+00 2.035379999999999967e+00 1.298794999999999966e+01 1.756340000000000012e+00 5.084290000000000198e+00 1.301721000000000039e+01 1.076000000000000047e-02 8.126689999999999969e+00 1.300686999999999927e+01 7.031419999999999781e+00 2.016340000000000021e+00 1.300892999999999944e+01 5.284360000000000390e+00 5.070009999999999906e+00 1.300857000000000063e+01 3.516970000000000152e+00 8.128199999999999648e+00 1.300357999999999947e+01 1.055150000000000032e+00 2.028760000000000119e+00 2.061197999999999908e+01 -6.896799999999999597e-01 5.078050000000000175e+00 2.061205999999999960e+01 -2.469110000000000138e+00 8.137000000000000455e+00 2.061073000000000022e+01 4.571159999999999890e+00 2.035229999999999873e+00 2.061086999999999847e+01 2.823539999999999939e+00 5.087939999999999685e+00 2.062092000000000169e+01 1.066929999999999934e+00 8.135339999999999350e+00 2.062039000000000044e+01 8.108530000000000015e+00 2.021679999999999922e+00 2.059026000000000067e+01 6.332320000000000171e+00 5.107450000000000045e+00 2.060814999999999841e+01 4.581269999999999953e+00 8.130459999999999354e+00 2.061590999999999951e+01 5.278870000000000395e+00 9.139369999999999550e+00 1.120410000000000039e+01 -1.770599999999999952e+00 3.072309999999999874e+00 1.120794000000000068e+01 -3.516659999999999897e+00 6.109340000000000437e+00 1.121510999999999925e+01 3.535029999999999895e+00 1.399999999999999986e-03 1.119147000000000070e+01 1.757670000000000066e+00 3.049859999999999793e+00 1.119368000000000052e+01 6.850000000000000186e-03 6.091890000000000249e+00 1.118812999999999924e+01 1.761770000000000058e+00 9.134309999999999263e+00 1.119618000000000002e+01 5.287340000000000373e+00 3.044109999999999872e+00 1.119933999999999941e+01 3.524859999999999882e+00 6.101860000000000284e+00 1.118884000000000079e+01 1.067860000000000031e+00 1.039999999999999952e-02 1.879770999999999859e+01 -7.106500000000000039e-01 3.072319999999999940e+00 1.878372999999999848e+01 -2.471779999999999866e+00 6.099520000000000053e+00 1.880650999999999939e+01 4.570240000000000080e+00 1.017999999999999981e-02 1.881390999999999991e+01 2.813260000000000094e+00 3.050530000000000186e+00 1.879230000000000089e+01 1.070459999999999967e+00 6.101709999999999745e+00 1.880422000000000082e+01 8.078189999999999316e+00 1.711000000000000021e-02 1.879776999999999987e+01 6.356869999999999798e+00 3.045259999999999856e+00 1.879492000000000118e+01 4.565369999999999706e+00 6.089229999999999698e+00 1.880413000000000068e+01