-3.347247730700000261e+02
-3.347205642000000125e+02
-3.347104539599999953e+02
-3.346946553999999878e+02
-3.346738854100000253e+02
-3.346483268599999974e+02
-3.346188530499999843e+02
-3.345861560399999917e+02
-3.345509139999999775e+02
-3.345139258599999721e+02
-3.343874259099999904e+02
-3.343932281500000272e+02
-3.343957914100000153e+02
-3.343950119400000176e+02
-3.343912844399999926e+02
-3.343843443900000239e+02
-3.343748154699999873e+02
-3.343629171700000029e+02
-3.343491323200000238e+02
-3.343335814999999798e+02
-3.332839869700000008e+02
-3.332914486399999987e+02
-3.332974993199999858e+02
-3.333021440499999812e+02
-3.333054941600000234e+02
-3.333076761699999793e+02
-3.333093336100000101e+02
-3.333104830099999845e+02
-3.333115803200000187e+02
-3.333128152400000204e+02
-3.332839082200000007e+02
-3.332834524900000019e+02
-3.332823961400000030e+02
-3.332805800200000022e+02
-3.332782609000000207e+02
-3.332761575399999856e+02
-3.332746429800000101e+02
-3.332743921000000000e+02
-3.332755665099999760e+02
-3.332783060599999772e+02
-3.339732076600000141e+02
-3.339760795700000244e+02
-3.339758977399999935e+02
-3.339729230199999961e+02
-3.339671891899999991e+02
-3.339591509399999723e+02
-3.339492013799999768e+02
-3.339378480400000058e+02
-3.339254636300000243e+02
-3.339123787600000242e+02
-3.341026071300000240e+02
-3.340992202799999973e+02
-3.340932589099999745e+02
-3.340850224100000219e+02
-3.340747638999999936e+02
-3.340627943299999743e+02
-3.340494843600000081e+02
-3.340350423200000023e+02
-3.340205018500000165e+02
-3.340058652600000073e+02
-3.341393236200000274e+02
-3.341398551699999757e+02
-3.341384228800000074e+02
-3.341349958100000208e+02
-3.341295710699999972e+02
-3.341225362000000132e+02
-3.341142475799999829e+02
-3.341047641999999769e+02
-3.340946010299999784e+02
-3.340840398099999788e+02
-3.341329326800000104e+02
-3.341333023999999909e+02
-3.341304226699999731e+02
-3.341245585199999937e+02
-3.341157169699999940e+02
-3.341038521099999912e+02
-3.340894746399999917e+02
-3.340731850000000236e+02
-3.340552693000000204e+02
-3.340362152299999821e+02
-3.345492444600000113e+02
-3.345466160500000115e+02
-3.345384258000000273e+02
-3.345250805900000159e+02
-3.345068659300000036e+02
-3.344845747200000119e+02
-3.344588628899999776e+02
-3.344303177099999971e+02
-3.343993854700000270e+02
-3.343667094300000144e+02
-3.327124196199999915e+02
-3.327386023199999840e+02
-3.327695870300000252e+02
-3.328052309500000092e+02
-3.328446987600000284e+02
-3.328872491999999852e+02
-3.329325241299999902e+02
-3.329796505200000070e+02
-3.330278807700000243e+02
-3.330766428700000006e+02
-3.335552037200000086e+02
-3.335511064300000044e+02
-3.335488356800000247e+02
-3.335483510999999908e+02
-3.335497219999999743e+02
-3.335531222999999841e+02
-3.335583680799999797e+02
-3.335659025400000246e+02
-3.335756387299999801e+02
-3.335873604500000056e+02
-3.325714545499999986e+02
-3.325796709400000282e+02
-3.325944787700000234e+02
-3.326156782200000066e+02
-3.326428012800000147e+02
-3.326754972699999939e+02
-3.327136087800000155e+02
-3.327563445000000115e+02
-3.328029829199999767e+02
-3.328528071000000068e+02
-3.330773223799999982e+02
-3.330910132100000283e+02
-3.331070059400000218e+02
-3.331251273500000138e+02
-3.331451985100000002e+02
-3.331671159300000227e+02
-3.331908406700000000e+02
-3.332164465100000257e+02
-3.332436997099999871e+02
-3.332726462200000128e+02
-3.342110527699999807e+02
-3.342136630300000206e+02
-3.342135747799999876e+02
-3.342108268900000212e+02
-3.342055081899999891e+02
-3.341979573799999912e+02
-3.341886010299999725e+02
-3.341779736400000047e+02
-3.341664711500000067e+02
-3.341548972599999843e+02
-3.344359709299999963e+02
-3.344346180200000163e+02
-3.344288248099999805e+02
-3.344187905300000239e+02
-3.344048842600000171e+02
-3.343873384600000236e+02
-3.343667283500000167e+02
-3.343439824700000145e+02
-3.343192625699999780e+02
-3.342935580600000094e+02
-3.332498584300000175e+02
-3.332411134299999844e+02
-3.332328834599999823e+02
-3.332253579200000217e+02
-3.332189220600000112e+02
-3.332136484999999766e+02
-3.332100255700000275e+02
-3.332083468899999730e+02
-3.332084043400000155e+02
-3.332104019399999970e+02
-3.334055504799999881e+02
-3.334040337299999806e+02
-3.334054344300000139e+02
-3.334098579199999790e+02
-3.334173638500000152e+02
-3.334278202400000168e+02
-3.334411800299999982e+02
-3.334574668899999779e+02
-3.334764142899999797e+02
-3.334978925600000252e+02
-3.333678005699999858e+02
-3.333715441300000180e+02
-3.333747982599999773e+02
-3.333774982200000068e+02
-3.333796188499999857e+02
-3.333811645299999782e+02
-3.333821735700000204e+02
-3.333829933399999845e+02
-3.333837941699999874e+02
-3.333847261299999900e+02
-3.342266374100000235e+02
-3.342286670600000207e+02
-3.342288352400000235e+02
-3.342272437299999979e+02
-3.342239505300000246e+02
-3.342190068599999790e+02
-3.342127237299999933e+02
-3.342054549499999894e+02
-3.341973730899999850e+02
-3.341887747299999774e+02
-3.339157280700000001e+02
-3.339209116299999778e+02
-3.339230964199999789e+02
-3.339224632500000212e+02
-3.339191893400000026e+02
-3.339135910900000113e+02
-3.339062597999999866e+02
-3.338970943900000066e+02
-3.338866418800000133e+02
-3.338755880100000013e+02
-3.322759744100000034e+02
-3.322977154999999811e+02
-3.323289928500000201e+02
-3.323691397900000197e+02
-3.324177464300000224e+02
-3.324742274000000180e+02
-3.325374754299999722e+02
-3.326064923399999884e+02
-3.326802644900000132e+02
-3.327574042300000201e+02
-3.331201054100000079e+02
-3.331286388699999748e+02
-3.331364746599999762e+02
-3.331435844000000088e+02
-3.331501782799999773e+02
-3.331564948399999935e+02
-3.331625812799999835e+02
-3.331688717900000256e+02
-3.331761614800000189e+02
-3.331846726300000228e+02
-3.345883023200000252e+02
-3.345844686600000273e+02
-3.345756398999999988e+02
-3.345622629800000141e+02
-3.345445899800000120e+02
-3.345230576100000235e+02
-3.344980965199999901e+02
-3.344703388699999778e+02
-3.344404965300000185e+02
-3.344088147200000094e+02
-3.341695978800000262e+02
-3.341732457900000099e+02
-3.341748102999999901e+02
-3.341742336099999875e+02
-3.341718511999999919e+02
-3.341678440499999851e+02
-3.341625703899999849e+02
-3.341563633800000162e+02
-3.341496190899999874e+02
-3.341430482200000256e+02
-3.343224246400000084e+02
-3.343213570799999843e+02
-3.343156843500000264e+02
-3.343056885099999818e+02
-3.342915925899999934e+02
-3.342737902200000235e+02
-3.342524321500000042e+02
-3.342280294099999765e+02
-3.342011017500000207e+02
-3.341722397300000011e+02
-3.338210217199999761e+02
-3.338279289100000256e+02
-3.338331982999999923e+02
-3.338371142299999974e+02
-3.338396800799999937e+02
-3.338406048400000259e+02
-3.338403878199999895e+02
-3.338391564400000107e+02
-3.338370813500000054e+02
-3.338345846700000266e+02
-3.343804604599999948e+02
-3.343801006099999995e+02
-3.343748431299999879e+02
-3.343652617800000257e+02
-3.343514135300000021e+02
-3.343335903400000007e+02
-3.343123987399999919e+02
-3.342886625300000105e+02
-3.342627191099999777e+02
-3.342350510100000065e+02
-3.343244258299999956e+02
-3.343247548100000017e+02
-3.343214919100000202e+02
-3.343149532499999737e+02
-3.343053066800000011e+02
-3.342928163400000017e+02
-3.342778989799999749e+02
-3.342610171900000182e+02
-3.342425474899999926e+02
-3.342230594399999859e+02
-3.337302020000000198e+02
-3.337334169700000075e+02
-3.337349302499999908e+02
-3.337347900600000230e+02
-3.337332047699999862e+02
-3.337301554000000010e+02
-3.337260302799999749e+02
-3.337207649999999717e+02
-3.337150054900000100e+02
-3.337086348199999861e+02
-3.331078451700000187e+02
-3.331077011799999923e+02
-3.331072197299999971e+02
-3.331064315599999759e+02
-3.331056935199999884e+02
-3.331055613400000084e+02
-3.331063804600000253e+02
-3.331085508900000036e+02
-3.331128422300000125e+02
-3.331201584199999957e+02
-3.339285744700000009e+02
-3.339310045600000194e+02
-3.339302040900000179e+02
-3.339263649399999849e+02
-3.339197068999999942e+02
-3.339103388899999914e+02
-3.338987184800000136e+02
-3.338854968100000065e+02
-3.338711210999999821e+02
-3.338562056600000005e+02
-3.345312510900000120e+02
-3.345305614399999854e+02
-3.345253966600000126e+02
-3.345163597299999765e+02
-3.345033715999999799e+02
-3.344868870299999912e+02
-3.344670098199999870e+02
-3.344444932800000174e+02
-3.344198881799999867e+02
-3.343935713600000099e+02
-3.343135211100000106e+02
-3.343079973800000175e+02
-3.342987167399999748e+02
-3.342859860099999878e+02
-3.342698594799999796e+02
-3.342509248399999819e+02
-3.342301366099999882e+02
-3.342079251800000179e+02
-3.341851720099999739e+02
-3.341625729599999772e+02
-3.336194059000000038e+02
-3.336138567400000170e+02
-3.336060460100000000e+02
-3.335965248499999802e+02
-3.335855390599999737e+02
-3.335738871799999856e+02
-3.335615127400000119e+02
-3.335486176900000146e+02
-3.335357496799999808e+02
-3.335236376099999802e+02
-3.341222349500000064e+02
-3.341272755800000027e+02
-3.341296302599999990e+02
-3.341293925800000011e+02
-3.341265927200000192e+02
-3.341217780800000128e+02
-3.341148758400000247e+02
-3.341062530400000128e+02
-3.340962859800000047e+02
-3.340851495599999907e+02
-3.339361479699999791e+02
-3.339363588499999764e+02
-3.339344510099999752e+02
-3.339304981399999974e+02
-3.339249552399999743e+02
-3.339178186400000072e+02
-3.339095433900000103e+02
-3.339003966999999875e+02
-3.338912178499999754e+02
-3.338822201300000074e+02
-3.341599443999999721e+02
-3.341678055200000017e+02
-3.341715975899999762e+02
-3.341715743400000065e+02
-3.341674988600000233e+02
-3.341599654199999918e+02
-3.341497010300000170e+02
-3.341369872399999963e+02
-3.341227858999999967e+02
-3.341078577399999858e+02
-3.341762512899999820e+02
-3.341754958800000281e+02
-3.341707924799999887e+02
-3.341625826900000220e+02
-3.341510862900000234e+02
-3.341364489499999877e+02
-3.341193488399999865e+02
-3.341002475500000060e+02
-3.340798108399999933e+02
-3.340586194699999965e+02
-3.336435232700000029e+02
-3.336442907300000229e+02
-3.336465457799999967e+02
-3.336503469500000278e+02
-3.336558829200000105e+02
-3.336635299700000132e+02
-3.336729488400000037e+02
-3.336844838499999923e+02
-3.336984472400000072e+02
-3.337145186199999785e+02
-3.335360945599999809e+02
-3.335453333300000054e+02
-3.335565333299999793e+02
-3.335697497099999964e+02
-3.335848503299999948e+02
-3.336015035500000181e+02
-3.336197326899999780e+02
-3.336394962400000281e+02
-3.336606866500000024e+02
-3.336829014200000074e+02
-3.336286761299999739e+02
-3.336371530499999949e+02
-3.336468570000000113e+02
-3.336577497499999936e+02
-3.336694736700000021e+02
-3.336818960900000093e+02
-3.336949749699999757e+02
-3.337086970799999790e+02
-3.337231196399999931e+02
-3.337380318200000033e+02
-3.340265039199999819e+02
-3.340235643199999913e+02
-3.340166779599999813e+02
-3.340061366099999987e+02
-3.339920672299999751e+02
-3.339749721300000260e+02
-3.339555070999999771e+02
-3.339341397900000175e+02
-3.339113423599999919e+02
-3.338878388399999722e+02
-3.334442571100000237e+02
-3.334359200100000180e+02
-3.334261625699999740e+02
-3.334149749900000188e+02
-3.334028960900000129e+02
-3.333902943699999923e+02
-3.333775874899999963e+02
-3.333652174299999729e+02
-3.333533526100000017e+02
-3.333425091400000042e+02
-3.328572376800000256e+02
-3.328799002700000074e+02
-3.329078172600000016e+02
-3.329406226199999992e+02
-3.329778281299999776e+02
-3.330190178099999798e+02
-3.330635085999999774e+02
-3.331107140299999969e+02
-3.331600760200000195e+02
-3.332109118000000194e+02
-3.334667006399999991e+02
-3.334695969399999740e+02
-3.334674574699999994e+02
-3.334603071299999897e+02
-3.334484324399999764e+02
-3.334324363399999811e+02
-3.334126511399999799e+02
-3.333898883200000114e+02
-3.333645951099999820e+02
-3.333376233500000012e+02
-3.334840504900000155e+02
-3.334828736900000195e+02
-3.334765987200000268e+02
-3.334653251400000045e+02
-3.334491758500000174e+02
-3.334288030800000229e+02
-3.334047141400000100e+02
-3.333775006299999859e+02
-3.333479488300000071e+02
-3.333168953900000133e+02
-3.341681586000000266e+02
-3.341738400300000080e+02
-3.341753019999999879e+02
-3.341726342599999953e+02
-3.341659414399999832e+02
-3.341553214599999819e+02
-3.341410870600000180e+02
-3.341235870400000181e+02
-3.341032768000000033e+02
-3.340807197500000143e+02
-3.327349853000000053e+02
-3.327354475600000114e+02
-3.327319972299999904e+02
-3.327248682100000110e+02
-3.327141573800000174e+02
-3.327005261400000222e+02
-3.326845376300000225e+02
-3.326666973600000006e+02
-3.326477562700000021e+02
-3.326281638899999962e+02
-3.335287278700000115e+02
-3.335109408000000144e+02
-3.334912679400000002e+02
-3.334703081999999768e+02
-3.334487033999999994e+02
-3.334268448700000249e+02
-3.334056918800000062e+02
-3.333856613300000049e+02
-3.333676696499999821e+02
-3.333521079399999962e+02
-3.344674351300000126e+02
-3.344731924000000163e+02
-3.344749096699999882e+02
-3.344727561700000251e+02
-3.344668625799999973e+02
-3.344573264599999902e+02
-3.344445162000000096e+02
-3.344288463699999738e+02
-3.344105404900000167e+02
-3.343902226100000235e+02
-3.337682471699999951e+02
-3.337650526499999728e+02
-3.337591128500000082e+02
-3.337503525999999852e+02
-3.337391786599999932e+02
-3.337258479700000180e+02
-3.337106259000000250e+02
-3.336938239400000157e+02
-3.336759854499999847e+02
-3.336575172299999963e+02
-3.343279575199999840e+02
-3.343234377499999823e+02
-3.343153881200000228e+02
-3.343031923500000175e+02
-3.342872448200000122e+02
-3.342679218100000185e+02
-3.342458085800000163e+02
-3.342213388999999779e+02
-3.341948421499999995e+02
-3.341670432700000219e+02
-3.337457778500000245e+02
-3.337456035800000222e+02
-3.337436383400000182e+02
-3.337400498499999912e+02
-3.337352436900000043e+02
-3.337297530100000245e+02
-3.337237612600000034e+02
-3.337175753399999962e+02
-3.337116719100000068e+02
-3.337064429000000132e+02
-3.332791412799999762e+02
-3.332801828300000011e+02
-3.332776029400000084e+02
-3.332719395199999894e+02
-3.332631041099999720e+02
-3.332517610500000274e+02
-3.332381688400000144e+02
-3.332227812900000004e+02
-3.332060218400000053e+02
-3.331888491600000179e+02
-3.340036632200000213e+02
-3.340084215100000051e+02
-3.340106886899999949e+02
-3.340104097700000239e+02
-3.340077890000000025e+02
-3.340028947499999958e+02
-3.339959256899999787e+02
-3.339870896900000048e+02
-3.339765782200000217e+02
-3.339646143200000097e+02
-3.334370983599999931e+02
-3.334375242699999831e+02
-3.334341682500000275e+02
-3.334270974799999863e+02
-3.334165631600000097e+02
-3.334028961800000275e+02
-3.333864675500000203e+02
-3.333677994299999909e+02
-3.333474898800000119e+02
-3.333260019300000181e+02
-3.334000579899999934e+02
-3.334072182400000202e+02
-3.334123537500000225e+02
-3.334152235899999823e+02
-3.334157119399999942e+02
-3.334139342700000270e+02
-3.334099854400000140e+02
-3.334041191399999775e+02
-3.333966268600000262e+02
-3.333880930700000249e+02
-3.338760063099999797e+02
-3.338739343699999722e+02
-3.338678600599999982e+02
-3.338579033299999992e+02
-3.338444856699999832e+02
-3.338280179299999872e+02
-3.338089038100000039e+02
-3.337874012199999925e+02
-3.337641765000000191e+02
-3.337396954000000164e+02
-3.328873863100000108e+02
-3.329142927799999825e+02
-3.329472393300000022e+02
-3.329859074099999816e+02
-3.330292795299999966e+02
-3.330770624900000030e+02
-3.331282694000000220e+02
-3.331818200499999989e+02
-3.332368684900000062e+02
-3.332932144700000094e+02
-3.334728974600000129e+02
-3.334732596499999886e+02
-3.334719523800000047e+02
-3.334691206699999952e+02
-3.334652926300000217e+02
-3.334611199099999794e+02
-3.334570731599999931e+02
-3.334536898100000144e+02
-3.334512811800000236e+02
-3.334501685299999849e+02
-3.333595248699999729e+02
-3.333650527899999929e+02
-3.333746783700000265e+02
-3.333883609100000172e+02
-3.334057699300000195e+02
-3.334266541900000220e+02
-3.334507546099999900e+02
-3.334777933400000052e+02
-3.335072296199999755e+02
-3.335387548100000004e+02
-3.343303420799999799e+02
-3.343250555899999767e+02
-3.343154694199999994e+02
-3.343019995000000222e+02
-3.342849287299999901e+02
-3.342648208699999941e+02
-3.342422716799999876e+02
-3.342180126599999994e+02
-3.341928156899999749e+02
-3.341673470399999815e+02
-3.343199245399999882e+02
-3.343168181500000173e+02
-3.343092260399999986e+02
-3.342972606199999746e+02
-3.342812886199999980e+02
-3.342617051299999957e+02
-3.342390714900000148e+02
-3.342138179199999968e+02
-3.341866462200000001e+02
-3.341581444999999917e+02
-3.337976314000000002e+02
-3.338001565299999811e+02
-3.338015525800000205e+02
-3.338016607700000122e+02
-3.338004657500000008e+02
-3.337981452399999966e+02
-3.337946117000000186e+02
-3.337901586799999905e+02
-3.337847116899999946e+02
-3.337785284199999865e+02
-3.337105553399999849e+02
-3.337187045200000171e+02
-3.337261735299999827e+02
-3.337326579100000004e+02
-3.337385705500000199e+02
-3.337437476200000219e+02
-3.337485801500000093e+02
-3.337535297200000173e+02
-3.337590691199999924e+02
-3.337658126300000276e+02
-3.330084602900000164e+02
-3.330179428299999813e+02
-3.330292392399999812e+02
-3.330419504600000096e+02
-3.330558400200000051e+02
-3.330709941499999900e+02
-3.330872915100000000e+02
-3.331047234000000117e+02
-3.331236230499999920e+02
-3.331436830499999928e+02
-3.340004786999999737e+02
-3.339992907600000080e+02
-3.339956830400000172e+02
-3.339894440699999905e+02
-3.339812071200000219e+02
-3.339712847800000191e+02
-3.339606788799999890e+02
-3.339497538800000029e+02
-3.339390739099999905e+02
-3.339292727199999717e+02
-3.335522254499999804e+02
-3.335513497000000029e+02
-3.335476688100000047e+02
-3.335413263799999868e+02
-3.335323048899999776e+02
-3.335213012699999808e+02
-3.335086405600000035e+02
-3.334944646999999804e+02
-3.334792764800000100e+02
-3.334634867899999904e+02
-3.339392283999999904e+02
-3.339374931400000150e+02
-3.339319809099999929e+02
-3.339230687099999955e+02
-3.339106636399999957e+02
-3.338951336800000149e+02
-3.338768933900000206e+02
-3.338564081499999929e+02
-3.338341989699999885e+02
-3.338109296200000244e+02
-3.340162183599999821e+02
-3.340139101299999993e+02
-3.340081263299999819e+02
-3.339989180800000099e+02
-3.339864574800000128e+02
-3.339709803399999828e+02
-3.339527080199999887e+02
-3.339321546599999806e+02
-3.339096778200000131e+02
-3.338856560799999897e+02
-3.337589433800000052e+02
-3.337526654399999870e+02
-3.337462656000000152e+02
-3.337400804900000253e+02
-3.337340599199999929e+02
-3.337284917700000051e+02
-3.337234297100000049e+02
-3.337190488900000105e+02
-3.337157099600000265e+02
-3.337135609100000124e+02
-3.340472808900000246e+02
-3.340491038999999773e+02
-3.340510347800000091e+02
-3.340535805600000003e+02
-3.340565443500000242e+02
-3.340597734599999740e+02
-3.340633122899999989e+02
-3.340673179400000095e+02
-3.340717942300000232e+02
-3.340765368099999932e+02
-3.342700176700000156e+02
-3.342661666199999786e+02
-3.342591267299999913e+02
-3.342489417200000048e+02
-3.342359217499999886e+02
-3.342203234500000235e+02
-3.342024933899999724e+02
-3.341823239199999875e+02
-3.341605753700000037e+02
-3.341377705300000116e+02
-3.335907293500000037e+02
-3.335877309200000127e+02
-3.335824172399999838e+02
-3.335751763299999766e+02
-3.335664601500000117e+02
-3.335562297299999841e+02
-3.335450819499999966e+02
-3.335334411700000032e+02
-3.335220207099999925e+02
-3.335109694099999729e+02
-3.339110632900000155e+02
-3.339092787700000144e+02
-3.339048344299999940e+02
-3.338978876300000138e+02
-3.338886645300000282e+02
-3.338778287299999761e+02
-3.338656021799999962e+02
-3.338527355300000181e+02
-3.338400385499999743e+02
-3.338280734800000005e+02
-3.343309431000000131e+02
-3.343323180300000104e+02
-3.343305474900000149e+02
-3.343257253699999865e+02
-3.343182373099999722e+02
-3.343081559500000139e+02
-3.342956444399999896e+02
-3.342812706600000183e+02
-3.342653836100000149e+02
-3.342482295400000112e+02
-3.341150615700000230e+02
-3.341107264400000076e+02
-3.341019842599999947e+02
-3.340890523300000154e+02
-3.340723034200000257e+02
-3.340525421699999811e+02
-3.340304406399999948e+02
-3.340064717399999950e+02
-3.339810667200000012e+02
-3.339548995200000263e+02
-3.340522126299999854e+02
-3.340548723399999744e+02
-3.340561598200000049e+02
-3.340563308399999869e+02
-3.340549925299999927e+02
-3.340523855999999796e+02
-3.340486918700000274e+02
-3.340440184000000272e+02
-3.340387419900000054e+02
-3.340327595100000053e+02
-3.341090530100000251e+02
-3.341093005399999925e+02
-3.341065574500000253e+02
-3.341008520600000224e+02
-3.340926183999999921e+02
-3.340820394300000089e+02
-3.340694366500000001e+02
-3.340555086900000106e+02
-3.340404713500000184e+02
-3.340251323599999864e+02
-3.339721677200000158e+02
-3.339695198200000164e+02
-3.339626694099999895e+02
-3.339515817600000105e+02
-3.339365954799999940e+02
-3.339183387400000242e+02
-3.338972894199999928e+02
-3.338740894100000105e+02
-3.338491423300000065e+02
-3.338231167399999890e+02
-3.335084350700000186e+02
-3.335055420799999979e+02
-3.335009743100000037e+02
-3.334947049799999945e+02
-3.334872582799999918e+02
-3.334787151200000039e+02
-3.334693816199999787e+02
-3.334594719799999893e+02
-3.334495841899999959e+02
-3.334400510199999985e+02
-3.320428655100000128e+02
-3.320447454700000094e+02
-3.320535102900000197e+02
-3.320691344200000117e+02
-3.320915098199999989e+02
-3.321203257000000235e+02
-3.321555896899999993e+02
-3.321972443999999882e+02
-3.322449123100000179e+02
-3.322977959799999894e+02
-3.342403171000000270e+02
-3.342355570999999941e+02
-3.342273680399999876e+02
-3.342162755800000014e+02
-3.342024033800000211e+02
-3.341864425599999890e+02
-3.341688474300000280e+02
-3.341500067000000058e+02
-3.341306586499999867e+02
-3.341113666599999874e+02
-3.333316244999999753e+02
-3.333316802499999767e+02
-3.333326846200000091e+02
-3.333345668100000125e+02
-3.333374291000000085e+02
-3.333414759300000014e+02
-3.333468822400000136e+02
-3.333538194100000283e+02
-3.333624699499999906e+02
-3.333730357100000106e+02
-3.337948886199999947e+02
-3.337899299000000042e+02
-3.337848013400000013e+02
-3.337794001400000070e+02
-3.337741333299999837e+02
-3.337690967500000170e+02
-3.337649063200000228e+02
-3.337617150500000207e+02
-3.337595521100000155e+02
-3.337588792999999896e+02
-3.315685048700000266e+02
-3.315807992700000000e+02
-3.316044747899999834e+02
-3.316389433400000257e+02
-3.316837479899999721e+02
-3.317380213800000206e+02
-3.318009901600000262e+02
-3.318718499899999870e+02
-3.319494336700000190e+02
-3.320320146099999761e+02
-3.338455178599999726e+02
-3.338451202400000284e+02
-3.338434858599999870e+02
-3.338404737899999759e+02
-3.338362463199999866e+02
-3.338308624499999837e+02
-3.338245588999999995e+02
-3.338176720399999908e+02
-3.338107803400000080e+02
-3.338039519000000155e+02
-3.339295129299999871e+02
-3.339374315000000024e+02
-3.339451874399999838e+02
-3.339528071500000124e+02
-3.339601662000000033e+02
-3.339672639600000252e+02
-3.339740468300000202e+02
-3.339806428900000128e+02
-3.339868842000000200e+02
-3.339928312999999775e+02
-3.338299255499999845e+02
-3.338400700199999847e+02
-3.338502056400000129e+02
-3.338602181599999881e+02
-3.338701049000000012e+02
-3.338796272100000238e+02
-3.338889619099999777e+02
-3.338984380699999974e+02
-3.339078946500000029e+02
-3.339174388600000043e+02
-3.333505806000000007e+02
-3.333655740899999955e+02
-3.333842583699999977e+02
-3.334066668899999968e+02
-3.334323883499999965e+02
-3.334608105500000192e+02
-3.334926262700000166e+02
-3.335272824699999887e+02
-3.335643600000000220e+02
-3.336034864100000163e+02
-3.345392102800000202e+02
-3.345366510599999970e+02
-3.345295845900000131e+02
-3.345181563099999948e+02
-3.345025710099999969e+02
-3.344835612499999797e+02
-3.344615416799999821e+02
-3.344369784200000026e+02
-3.344105536100000222e+02
-3.343829578099999935e+02
-3.342865913599999885e+02
-3.342850943600000164e+02
-3.342787228500000083e+02
-3.342677296499999784e+02
-3.342524686799999927e+02
-3.342332182800000169e+02
-3.342104774499999849e+02
-3.341849305499999900e+02
-3.341572689800000262e+02
-3.341280039600000009e+02
-3.345490290299999856e+02
-3.345485250099999917e+02
-3.345435789499999828e+02
-3.345344435000000090e+02
-3.345212701300000049e+02
-3.345045617200000265e+02
-3.344848080599999776e+02
-3.344622902899999985e+02
-3.344377672699999948e+02
-3.344116835799999876e+02
-3.305475574999999822e+02
-3.305602416500000231e+02
-3.305913994300000240e+02
-3.306407963300000006e+02
-3.307076124399999912e+02
-3.307909317300000112e+02
-3.308889153700000065e+02
-3.309999805900000069e+02
-3.311222128300000236e+02
-3.312526988199999778e+02
-3.334207876400000146e+02
-3.334273678000000132e+02
-3.334325040800000011e+02
-3.334363285800000085e+02
-3.334385091500000158e+02
-3.334394116799999779e+02
-3.334394578000000138e+02
-3.334389674399999990e+02
-3.334383782500000279e+02
-3.334382491800000139e+02
-3.339332046399999854e+02
-3.339345858600000270e+02
-3.339343294199999832e+02
-3.339327245900000207e+02
-3.339303175300000248e+02
-3.339273276499999952e+02
-3.339241958800000134e+02
-3.339212724299999877e+02
-3.339193767799999932e+02
-3.339190085800000247e+02
-3.338670199300000263e+02
-3.338568100699999945e+02
-3.338419521600000053e+02
-3.338230915799999821e+02
-3.338007621500000255e+02
-3.337753398500000230e+02
-3.337474977499999795e+02
-3.337179156799999760e+02
-3.336873370499999965e+02
-3.336564403300000095e+02
-3.344615043499999842e+02
-3.344631789399999775e+02
-3.344597605299999827e+02
-3.344516597900000079e+02
-3.344390029300000151e+02
-3.344226730400000065e+02
-3.344029799300000150e+02
-3.343802948599999922e+02
-3.343554411200000231e+02
-3.343293192500000259e+02
-3.343219156100000191e+02
-3.343185463099999879e+02
-3.343109432300000208e+02
-3.342994316599999820e+02
-3.342843337400000223e+02
-3.342659866700000180e+02
-3.342447387999999933e+02
-3.342211219100000221e+02
-3.341954503100000125e+02
-3.341682271000000242e+02
-3.346456273699999997e+02
-3.346424543900000117e+02
-3.346343543799999907e+02
-3.346214916900000276e+02
-3.346043364899999801e+02
-3.345832758700000227e+02
-3.345586496099999749e+02
-3.345310296000000108e+02
-3.345010365300000217e+02
-3.344692357199999719e+02
