9.799999999999999684e-04 7.269999999999999987e-04 -1.013599999999999918e-02 9.730000000000000151e-04 7.309999999999999875e-04 -1.013900000000000044e-02 9.730000000000000151e-04 7.259999999999999743e-04 -1.013700000000000018e-02 9.629999999999999888e-04 7.249999999999999500e-04 -1.011699999999999926e-02 9.690000000000000262e-04 7.219999999999999855e-04 -1.011899999999999952e-02 9.680000000000000019e-04 7.230000000000000098e-04 -1.012200000000000079e-02 9.460000000000000093e-04 7.110000000000000434e-04 -1.013400000000000065e-02 9.479999999999999495e-04 7.169999999999999724e-04 -1.012900000000000085e-02 9.489999999999999738e-04 7.100000000000000191e-04 -1.012900000000000085e-02 3.188300000000000162e-02 -1.322999999999999957e-03 -1.063599999999999962e-02 3.188300000000000162e-02 -1.322000000000000041e-03 -1.063799999999999989e-02 3.188499999999999668e-02 -1.320999999999999909e-03 -1.063700000000000062e-02 3.188300000000000162e-02 -1.325000000000000006e-03 -1.063899999999999915e-02 3.188400000000000262e-02 -1.320999999999999909e-03 -1.063799999999999989e-02 3.188300000000000162e-02 -1.320999999999999909e-03 -1.063599999999999962e-02 3.188400000000000262e-02 -1.325000000000000006e-03 -1.063599999999999962e-02 3.188300000000000162e-02 -1.322000000000000041e-03 -1.063799999999999989e-02 3.188099999999999962e-02 -1.322999999999999957e-03 -1.063399999999999936e-02 -3.186699999999999949e-02 -1.302999999999999905e-03 1.103099999999999914e-02 -3.187799999999999662e-02 -1.299999999999999940e-03 1.103600000000000067e-02 -3.187700000000000256e-02 -1.302999999999999905e-03 1.103200000000000014e-02 -3.188799999999999968e-02 -1.304999999999999953e-03 1.101199999999999922e-02 -3.187999999999999862e-02 -1.312000000000000015e-03 1.101300000000000022e-02 -3.188300000000000162e-02 -1.307000000000000002e-03 1.101800000000000002e-02 -3.190599999999999686e-02 -1.319999999999999993e-03 1.102799999999999961e-02 -3.190400000000000180e-02 -1.317000000000000028e-03 1.102500000000000008e-02 -3.190099999999999880e-02 -1.320999999999999909e-03 1.102500000000000008e-02 -9.680000000000000019e-04 7.069999999999999462e-04 9.693999999999999492e-03 -9.680000000000000019e-04 7.069999999999999462e-04 9.695999999999999758e-03 -9.659999999999999533e-04 7.060000000000000303e-04 9.693999999999999492e-03 -9.680000000000000019e-04 7.060000000000000303e-04 9.695000000000000492e-03 -9.659999999999999533e-04 7.089999999999999948e-04 9.695000000000000492e-03 -9.659999999999999533e-04 7.069999999999999462e-04 9.693000000000000227e-03 -9.640000000000000131e-04 7.069999999999999462e-04 9.693999999999999492e-03 -9.659999999999999533e-04 7.100000000000000191e-04 9.695999999999999758e-03 -9.669999999999999776e-04 7.069999999999999462e-04 9.690999999999999961e-03 -1.079500000000000078e-02 6.019999999999999961e-04 -2.779999999999999811e-04 -1.079199999999999951e-02 5.990000000000000316e-04 -2.809999999999999998e-04 -1.079800000000000031e-02 6.030000000000000204e-04 -2.849999999999999886e-04 -1.078499999999999945e-02 6.120000000000000223e-04 -2.869999999999999830e-04 -1.078199999999999992e-02 6.040000000000000447e-04 -2.880000000000000073e-04 -1.078100000000000065e-02 6.080000000000000335e-04 -2.880000000000000073e-04 -1.080300000000000010e-02 5.940000000000000184e-04 -2.889999999999999774e-04 -1.080899999999999916e-02 5.950000000000000427e-04 -2.829999999999999942e-04 -1.080399999999999937e-02 5.969999999999999829e-04 -2.889999999999999774e-04 1.074199999999999981e-02 6.030000000000000204e-04 3.420000000000000188e-04 1.074499999999999934e-02 6.019999999999999961e-04 3.429999999999999889e-04 1.074499999999999934e-02 6.070000000000000092e-04 3.429999999999999889e-04 1.074600000000000034e-02 6.040000000000000447e-04 3.400000000000000244e-04 1.074400000000000008e-02 6.030000000000000204e-04 3.420000000000000188e-04 1.074600000000000034e-02 6.080000000000000335e-04 3.420000000000000188e-04 1.074699999999999961e-02 6.019999999999999961e-04 3.409999999999999945e-04 1.074499999999999934e-02 6.019999999999999961e-04 3.409999999999999945e-04 1.074300000000000081e-02 6.109999999999999980e-04 3.420000000000000188e-04
-4.159999999999999744e-04 -4.017999999999999870e-03 -1.985599999999999865e-02 -6.668999999999999581e-03 1.381999999999999982e-03 2.720000000000000195e-03 -1.825299999999999839e-02 1.339800000000000019e-02 -1.411500000000000081e-02 3.634400000000000130e-02 -3.246999999999999886e-03 -2.535899999999999960e-02 -1.719000000000000042e-03 -3.733000000000000207e-03 -3.324599999999999778e-02 -3.017999999999999849e-03 1.905400000000000149e-02 -1.269999999999999948e-02 8.869999999999999413e-03 3.540999999999999877e-03 -1.647999999999999942e-03 3.486299999999999816e-02 2.573100000000000040e-02 1.023300000000000078e-02 1.554600000000000079e-02 2.233999999999999875e-02 -4.032700000000000173e-02 3.500000000000000333e-02 2.288499999999999909e-02 -6.216900000000000204e-02 1.102799999999999961e-02 2.849900000000000003e-02 -1.661699999999999983e-02 4.086900000000000255e-02 1.562000000000000020e-03 -7.625999999999999966e-03 5.996300000000000241e-02 -1.135599999999999977e-02 2.929999999999999879e-03 1.904899999999999996e-02 4.964999999999999795e-03 -7.583399999999999863e-02 3.518000000000000294e-02 -2.327000000000000075e-03 2.534300000000000094e-02 3.343900000000000344e-02 2.064900000000000069e-02 -4.756200000000000011e-02 3.401099999999999957e-02 4.348999999999999568e-03 -3.958999999999999846e-03 1.667899999999999938e-02 -1.215399999999999987e-02 -7.530000000000000235e-03 2.240999999999999936e-03 1.284399999999999951e-02 -9.119999999999999635e-03 -3.744299999999999712e-02 4.291600000000000276e-02 3.222900000000000070e-02 1.654000000000000088e-03 4.198000000000000342e-02 4.023100000000000287e-02 -3.741300000000000181e-02 -8.914000000000000049e-03 4.243999999999999856e-02 -1.604900000000000077e-02 -7.028000000000000393e-03 -1.264799999999999952e-02 -4.813300000000000217e-02 -1.146600000000000050e-02 8.281999999999999432e-03 -2.095500000000000140e-02 1.231200000000000003e-02 1.394199999999999953e-02 -4.195000000000000118e-02 1.157700000000000048e-02 1.125600000000000038e-02 -2.808300000000000032e-02 -1.070300000000000071e-02 2.779799999999999979e-02 -1.218499999999999965e-02 2.757899999999999935e-02 -7.830000000000000154e-03 -1.891899999999999832e-02 2.000100000000000142e-02 3.079999999999999839e-03 8.680000000000000215e-03 -8.049999999999999864e-03 2.270799999999999902e-02 1.903499999999999984e-02 2.148100000000000009e-02 4.010999999999999809e-03 -1.155300000000000077e-02 -2.207200000000000134e-02 7.144000000000000176e-03 -2.198400000000000007e-02 8.840000000000000201e-04 -1.541999999999999968e-03 -5.552999999999999776e-03 3.635800000000000143e-02 4.926900000000000029e-02 3.364999999999999936e-03 -5.198900000000000049e-02 1.451500000000000012e-02 -1.586800000000000016e-02 1.519700000000000044e-02 -2.439799999999999955e-02 -1.499299999999999938e-02 7.302999999999999596e-03 -2.253900000000000001e-02 -1.746199999999999836e-02 -6.184900000000000120e-02 -3.547999999999999765e-02 -1.573400000000000146e-02 -6.805100000000000038e-02 -6.979299999999999393e-02 -3.470700000000000174e-02 -2.380200000000000024e-02 1.609000000000000014e-02 -4.090799999999999992e-02 6.460999999999999729e-03 5.023699999999999694e-02 -2.451300000000000007e-02 4.217000000000000262e-03 3.257000000000000173e-02 -1.160899999999999953e-02 1.574800000000000158e-02 -1.135700000000000078e-02 -3.466199999999999837e-02 -2.069999999999999792e-03 -2.571199999999999875e-02 -2.010999999999999940e-02 -3.622100000000000319e-02 5.176000000000000045e-02 -1.518500000000000058e-02 -3.357399999999999968e-02 3.185299999999999937e-02 3.421899999999999942e-02 -6.696699999999999875e-02 5.624400000000000233e-02 5.041799999999999754e-02 7.625999999999999966e-03 -2.201900000000000038e-02 2.437500000000000083e-02 -2.647300000000000000e-02 -4.214799999999999797e-02 1.497799999999999999e-02 4.995000000000000308e-03 6.838700000000000334e-02 -1.165700000000000069e-02 2.125499999999999959e-02 7.679000000000000062e-03 5.256500000000000061e-02 -5.861100000000000337e-02 -3.582000000000000114e-03 -5.356500000000000150e-02 2.220300000000000051e-02 2.232699999999999962e-02 4.834999999999999715e-02 3.318999999999999728e-02 1.533999999999999990e-03
-1.827000000000000065e-03 -8.710999999999999993e-03 -2.960799999999999890e-02 -1.405700000000000005e-02 1.791000000000000057e-03 1.544599999999999966e-02 -3.732800000000000007e-02 2.598599999999999868e-02 -1.814899999999999847e-02 7.148899999999999699e-02 -7.361999999999999621e-03 -4.072699999999999931e-02 -4.362000000000000426e-03 -8.201999999999999222e-03 -5.600000000000000117e-02 -7.009999999999999738e-03 3.731899999999999801e-02 -1.521100000000000056e-02 1.660400000000000070e-02 6.250999999999999612e-03 6.557999999999999594e-03 6.780200000000000116e-02 5.022700000000000081e-02 2.980199999999999863e-02 3.007200000000000151e-02 4.406999999999999806e-02 -7.065299999999999359e-02 3.817199999999999760e-02 4.732700000000000101e-02 -1.138740000000000030e-01 -9.452999999999999597e-03 5.843399999999999983e-02 -2.306100000000000164e-02 4.956800000000000095e-02 4.466000000000000351e-03 -4.688000000000000327e-03 8.768299999999999705e-02 -2.133099999999999927e-02 1.613300000000000151e-02 5.879999999999999810e-03 1.133100000000000079e-02 -1.415089999999999959e-01 3.856699999999999712e-02 -3.409999999999999837e-03 6.084799999999999931e-02 3.490999999999999659e-02 4.265599999999999947e-02 -8.472200000000000564e-02 3.610900000000000221e-02 9.991999999999999146e-03 2.664999999999999834e-03 1.611000000000000019e-03 -2.293699999999999906e-02 -4.503000000000000058e-03 3.570299999999999863e-02 2.659299999999999858e-02 -2.876099999999999837e-02 -4.297900000000000331e-02 8.755999999999999894e-02 5.397899999999999920e-02 3.486999999999999822e-02 8.569100000000000328e-02 7.028099999999999625e-02 -4.285400000000000320e-02 -1.655999999999999833e-02 7.382099999999999773e-02 -4.290000000000000193e-04 -1.269999999999999948e-02 -3.590800000000000242e-02 -6.432499999999999329e-02 -2.151600000000000040e-02 5.581000000000000023e-03 -1.007800000000000015e-02 2.587300000000000016e-02 1.676899999999999918e-02 -5.180699999999999888e-02 2.433400000000000146e-02 1.148799999999999995e-02 -2.422500000000000001e-02 -2.007199999999999956e-02 4.451600000000000001e-02 -2.290999999999999981e-02 5.395400000000000196e-02 -2.469999999999999973e-02 -3.663899999999999796e-02 3.919000000000000261e-02 -3.370999999999999865e-03 1.825699999999999892e-02 -1.674700000000000147e-02 3.570700000000000263e-02 3.875599999999999878e-02 4.204399999999999804e-02 -1.325000000000000006e-03 -2.214899999999999855e-02 -4.445799999999999752e-02 4.738000000000000024e-03 -4.281999999999999695e-02 1.002000000000000069e-03 -1.261400000000000021e-02 -1.004799999999999964e-02 7.224500000000000366e-02 8.935899999999999399e-02 7.722999999999999830e-03 -1.040470000000000006e-01 1.995200000000000098e-02 -3.039700000000000041e-02 2.940699999999999911e-02 -5.775999999999999884e-02 -1.916199999999999848e-02 1.403899999999999940e-02 -4.458499999999999963e-02 -2.411500000000000102e-02 -1.244549999999999962e-01 -7.092400000000000093e-02 -2.016700000000000090e-02 -1.366110000000000102e-01 -1.387089999999999990e-01 -5.822299999999999698e-02 -4.787799999999999695e-02 3.204100000000000004e-02 -7.061299999999999522e-02 1.249399999999999990e-02 9.995800000000000518e-02 -3.810000000000000192e-02 7.772000000000000262e-03 6.514899999999999858e-02 -1.253899999999999980e-02 3.077900000000000080e-02 -2.237700000000000106e-02 -5.824700000000000016e-02 -4.642000000000000293e-03 -5.087900000000000061e-02 -2.918799999999999867e-02 -7.294599999999999695e-02 1.034650000000000014e-01 -4.083900000000000030e-02 -6.793699999999999739e-02 6.340500000000000302e-02 5.733900000000000108e-02 -1.342089999999999950e-01 1.116029999999999939e-01 8.959399999999999309e-02 1.488100000000000013e-02 -4.426000000000000073e-02 3.788899999999999907e-02 -5.328900000000000303e-02 -8.420800000000000507e-02 1.915000000000000036e-02 8.776000000000000814e-03 1.360979999999999968e-01 -3.393700000000000189e-02 4.169400000000000189e-02 1.508699999999999972e-02 9.381100000000000549e-02 -1.180719999999999964e-01 -8.016000000000000555e-03 -1.174179999999999946e-01 4.374399999999999816e-02 4.378100000000000047e-02 8.615299999999999347e-02 6.580500000000000238e-02 2.998999999999999930e-03
-3.062000000000000052e-03 -1.335399999999999955e-02 -3.943100000000000077e-02 -2.109300000000000064e-02 1.871999999999999966e-03 2.787900000000000100e-02 -5.629900000000000182e-02 3.837200000000000333e-02 -2.236199999999999993e-02 1.061570000000000014e-01 -1.156800000000000016e-02 -5.618000000000000077e-02 -7.106999999999999602e-03 -1.277400000000000063e-02 -7.845100000000000684e-02 -1.099200000000000003e-02 5.545800000000000035e-02 -1.767600000000000074e-02 2.403800000000000034e-02 8.788000000000000672e-03 1.428699999999999935e-02 9.971199999999999508e-02 7.412799999999999945e-02 4.825200000000000322e-02 4.446200000000000152e-02 6.586500000000000687e-02 -1.010479999999999989e-01 4.129499999999999837e-02 7.213400000000000367e-02 -1.654529999999999890e-01 -2.963199999999999862e-02 8.797800000000000065e-02 -2.978000000000000091e-02 5.811700000000000199e-02 7.342999999999999701e-03 -1.944999999999999897e-03 1.149400000000000005e-01 -3.132700000000000068e-02 2.900900000000000006e-02 -7.479000000000000405e-03 1.773699999999999929e-02 -2.074969999999999870e-01 4.206700000000000023e-02 -4.427000000000000379e-03 9.564200000000000479e-02 3.637900000000000161e-02 6.472300000000000275e-02 -1.215600000000000014e-01 3.825400000000000328e-02 1.563900000000000012e-02 9.256000000000000338e-03 -1.335899999999999935e-02 -3.378599999999999659e-02 -1.863999999999999988e-03 6.847599999999999520e-02 3.987099999999999672e-02 -4.779200000000000115e-02 -4.856800000000000006e-02 1.324039999999999939e-01 7.613599999999999535e-02 6.754000000000000281e-02 1.295109999999999872e-01 1.009990000000000054e-01 -4.825600000000000028e-02 -2.418199999999999864e-02 1.051770000000000066e-01 1.479100000000000033e-02 -1.840100000000000069e-02 -5.844099999999999989e-02 -8.033200000000000063e-02 -3.138500000000000317e-02 3.036000000000000070e-03 6.620000000000000450e-04 3.931899999999999978e-02 1.950299999999999950e-02 -6.129199999999999926e-02 3.685999999999999693e-02 1.187799999999999967e-02 -2.034899999999999903e-02 -2.923800000000000010e-02 6.117600000000000121e-02 -3.325999999999999790e-02 7.986899999999999555e-02 -4.055899999999999783e-02 -5.424899999999999861e-02 5.796599999999999669e-02 -9.622999999999999610e-03 2.800800000000000164e-02 -2.546899999999999858e-02 4.876599999999999685e-02 5.817100000000000048e-02 6.207300000000000317e-02 -6.248000000000000081e-03 -3.259299999999999697e-02 -6.627900000000000458e-02 2.745000000000000044e-03 -6.347500000000000364e-02 1.247999999999999977e-03 -2.342800000000000091e-02 -1.442799999999999985e-02 1.082250000000000018e-01 1.296519999999999895e-01 1.219899999999999977e-02 -1.552469999999999961e-01 2.594000000000000125e-02 -4.467700000000000143e-02 4.315299999999999692e-02 -8.989400000000000168e-02 -2.327800000000000008e-02 2.084000000000000088e-02 -6.616400000000000059e-02 -3.059600000000000167e-02 -1.868219999999999881e-01 -1.062059999999999949e-01 -2.405099999999999946e-02 -2.045269999999999866e-01 -2.063599999999999879e-01 -8.125200000000000478e-02 -7.141999999999999738e-02 4.744700000000000306e-02 -9.968699999999999783e-02 1.860699999999999854e-02 1.483540000000000136e-01 -5.146699999999999886e-02 1.125199999999999985e-02 9.711599999999999400e-02 -1.355300000000000081e-02 4.561300000000000077e-02 -3.320499999999999841e-02 -8.139799999999999813e-02 -7.088999999999999815e-03 -7.549000000000000155e-02 -3.800599999999999812e-02 -1.092960000000000043e-01 1.542890000000000095e-01 -6.612300000000000122e-02 -1.021360000000000046e-01 9.460000000000000353e-02 7.983700000000000518e-02 -2.006080000000000085e-01 1.658219999999999972e-01 1.280149999999999899e-01 2.215900000000000161e-02 -6.616900000000000559e-02 5.129399999999999932e-02 -7.960499999999999521e-02 -1.254349999999999909e-01 2.325500000000000136e-02 1.193199999999999990e-02 2.026810000000000000e-01 -5.608599999999999697e-02 6.170599999999999696e-02 2.244099999999999914e-02 1.341529999999999945e-01 -1.771079999999999877e-01 -1.287600000000000029e-02 -1.802209999999999923e-01 6.502700000000000147e-02 6.447700000000000653e-02 1.239419999999999966e-01 9.815000000000000113e-02 4.662000000000000345e-03
-4.181999999999999953e-03 -1.794799999999999868e-02 -4.942699999999999871e-02 -2.763799999999999937e-02 1.469999999999999953e-03 4.009399999999999770e-02 -7.507900000000000684e-02 5.049300000000000316e-02 -2.667900000000000132e-02 1.402349999999999985e-01 -1.597600000000000062e-02 -7.151299999999999324e-02 -9.917999999999999733e-03 -1.728400000000000075e-02 -1.003519999999999968e-01 -1.506900000000000080e-02 7.340299999999999603e-02 -1.989900000000000002e-02 3.108400000000000052e-02 1.117600000000000017e-02 2.150699999999999834e-02 1.303249999999999964e-01 9.737300000000000122e-02 6.570600000000000052e-02 5.865299999999999681e-02 8.739399999999999946e-02 -1.312109999999999943e-01 4.466699999999999837e-02 9.693499999999999339e-02 -2.165499999999999925e-01 -4.924400000000000305e-02 1.171060000000000018e-01 -3.666400000000000214e-02 6.621299999999999408e-02 1.028500000000000074e-02 6.599999999999999964e-04 1.414809999999999957e-01 -4.118000000000000133e-02 4.155799999999999772e-02 -2.108799999999999911e-02 2.420200000000000129e-02 -2.731379999999999919e-01 4.579199999999999937e-02 -5.637999999999999783e-03 1.296650000000000025e-01 3.767500000000000016e-02 8.668199999999999517e-02 -1.579959999999999976e-01 4.043399999999999772e-02 2.137400000000000064e-02 1.579799999999999954e-02 -2.793400000000000050e-02 -4.466200000000000031e-02 3.879999999999999985e-04 1.002989999999999993e-01 5.262599999999999917e-02 -6.609199999999999797e-02 -5.428299999999999792e-02 1.771010000000000084e-01 9.843499999999999472e-02 9.957100000000000672e-02 1.730959999999999999e-01 1.320489999999999997e-01 -5.350300000000000195e-02 -3.187799999999999662e-02 1.364670000000000050e-01 2.957900000000000112e-02 -2.396600000000000119e-02 -8.012099999999999778e-02 -9.616600000000000148e-02 -4.101899999999999991e-02 5.760000000000000146e-04 1.119700000000000036e-02 5.271300000000000291e-02 2.203199999999999950e-02 -7.038200000000000012e-02 4.905999999999999944e-02 1.224599999999999994e-02 -1.642899999999999916e-02 -3.828499999999999959e-02 7.757999999999999619e-02 -4.296400000000000219e-02 1.049490000000000006e-01 -5.534200000000000230e-02 -7.151000000000000412e-02 7.650200000000000056e-02 -1.568100000000000049e-02 3.777200000000000002e-02 -3.416199999999999792e-02 6.164100000000000135e-02 7.712299999999999711e-02 8.146799999999999875e-02 -1.065999999999999934e-02 -4.295899999999999719e-02 -8.730899999999999772e-02 7.940000000000000009e-04 -8.387400000000000411e-02 1.410999999999999928e-03 -3.404100000000000181e-02 -1.894799999999999957e-02 1.440140000000000031e-01 1.701920000000000099e-01 1.683399999999999827e-02 -2.053679999999999950e-01 3.251199999999999923e-02 -5.849399999999999739e-02 5.637099999999999750e-02 -1.207519999999999982e-01 -2.725100000000000092e-02 2.751599999999999879e-02 -8.715299999999999436e-02 -3.689800000000000024e-02 -2.484790000000000054e-01 -1.410669999999999980e-01 -2.750500000000000167e-02 -2.712950000000000084e-01 -2.722780000000000200e-01 -1.036480000000000040e-01 -9.429800000000000681e-02 6.221899999999999653e-02 -1.279039999999999899e-01 2.473399999999999904e-02 1.950020000000000087e-01 -6.453000000000000402e-02 1.467199999999999928e-02 1.282590000000000119e-01 -1.472700000000000051e-02 6.012399999999999689e-02 -4.373200000000000004e-02 -1.039709999999999940e-01 -9.414000000000000493e-03 -9.934400000000000175e-02 -4.646399999999999836e-02 -1.449729999999999908e-01 2.038040000000000129e-01 -9.071500000000000397e-02 -1.360030000000000128e-01 1.251750000000000085e-01 1.017620000000000052e-01 -2.656160000000000188e-01 2.185729999999999895e-01 1.653759999999999952e-01 2.944499999999999895e-02 -8.755899999999999794e-02 6.438099999999999379e-02 -1.052099999999999980e-01 -1.655520000000000047e-01 2.717899999999999830e-02 1.435999999999999950e-02 2.675950000000000273e-01 -7.785699999999999565e-02 8.111100000000000254e-02 2.966999999999999846e-02 1.733669999999999933e-01 -2.355420000000000014e-01 -1.804899999999999907e-02 -2.416780000000000039e-01 8.591000000000000025e-02 8.430100000000000093e-02 1.613829999999999987e-01 1.300939999999999874e-01 6.486999999999999711e-03
-4.990999999999999777e-03 -2.243500000000000008e-02 -5.953599999999999864e-02 -3.358200000000000074e-02 5.019999999999999506e-04 5.192900000000000293e-02 -9.369600000000000151e-02 6.226600000000000190e-02 -3.118800000000000044e-02 1.734100000000000086e-01 -2.047200000000000061e-02 -8.654100000000000681e-02 -1.290299999999999954e-02 -2.186899999999999955e-02 -1.214749999999999996e-01 -1.916800000000000101e-02 9.106400000000000605e-02 -2.189199999999999827e-02 3.765799999999999703e-02 1.334800000000000049e-02 2.806399999999999867e-02 1.595640000000000114e-01 1.198599999999999943e-01 8.195099999999999607e-02 7.255899999999999850e-02 1.085639999999999938e-01 -1.610119999999999885e-01 4.815599999999999742e-02 1.218130000000000046e-01 -2.667470000000000119e-01 -6.833899999999999697e-02 1.452680000000000082e-01 -4.346599999999999769e-02 7.391200000000000547e-02 1.324799999999999936e-02 2.971000000000000116e-03 1.672339999999999938e-01 -5.083300000000000318e-02 5.389200000000000240e-02 -3.478799999999999948e-02 3.065899999999999875e-02 -3.381600000000000161e-01 4.984500000000000042e-02 -6.892999999999999822e-03 1.626470000000000138e-01 3.883600000000000246e-02 1.085450000000000026e-01 -1.932750000000000024e-01 4.269900000000000084e-02 2.712200000000000027e-02 2.234399999999999928e-02 -4.218899999999999734e-02 -5.559599999999999959e-02 2.026000000000000023e-03 1.311450000000000116e-01 6.481599999999999862e-02 -8.368899999999999950e-02 -6.016799999999999926e-02 2.213509999999999922e-01 1.206499999999999934e-01 1.307250000000000079e-01 2.160799999999999943e-01 1.631350000000000022e-01 -5.863199999999999662e-02 -3.953399999999999970e-02 1.675329999999999875e-01 4.376599999999999935e-02 -2.951900000000000010e-02 -1.007239999999999941e-01 -1.116779999999999995e-01 -5.034299999999999886e-02 -1.732000000000000033e-03 2.142799999999999913e-02 6.598400000000000098e-02 2.426100000000000131e-02 -7.890999999999999404e-02 6.080499999999999794e-02 1.267199999999999924e-02 -1.248999999999999937e-02 -4.702599999999999836e-02 9.369199999999999751e-02 -5.217700000000000116e-02 1.292240000000000055e-01 -6.879100000000000492e-02 -8.855499999999999483e-02 9.445199999999999430e-02 -2.156999999999999890e-02 4.772099999999999953e-02 -4.288100000000000245e-02 7.435400000000000342e-02 9.566199999999999704e-02 9.998899999999999455e-02 -1.453400000000000004e-02 -5.308999999999999830e-02 -1.074129999999999946e-01 -9.179999999999999792e-04 -1.039179999999999965e-01 1.717999999999999909e-03 -4.430200000000000110e-02 -2.361600000000000157e-02 1.794389999999999874e-01 2.104489999999999972e-01 2.173999999999999891e-02 -2.542670000000000208e-01 3.953500000000000070e-02 -7.198300000000000531e-02 6.896900000000000253e-02 -1.499060000000000115e-01 -3.105899999999999980e-02 3.414600000000000274e-02 -1.072749999999999954e-01 -4.284700000000000314e-02 -3.090370000000000061e-01 -1.750670000000000004e-01 -3.053399999999999864e-02 -3.363820000000000143e-01 -3.357629999999999781e-01 -1.253239999999999910e-01 -1.162829999999999975e-01 7.624000000000000221e-02 -1.550709999999999866e-01 3.079899999999999999e-02 2.394070000000000087e-01 -7.717999999999999861e-02 1.799100000000000005e-02 1.582389999999999908e-01 -1.601199999999999846e-02 7.426399999999999668e-02 -5.385100000000000303e-02 -1.258390000000000064e-01 -1.157000000000000042e-02 -1.221629999999999938e-01 -5.455800000000000233e-02 -1.797320000000000029e-01 2.514950000000000241e-01 -1.146419999999999939e-01 -1.691350000000000076e-01 1.547389999999999877e-01 1.228349999999999997e-01 -3.287680000000000047e-01 2.692089999999999761e-01 2.014110000000000067e-01 3.641599999999999698e-02 -1.082229999999999998e-01 7.723199999999999510e-02 -1.298219999999999930e-01 -2.041620000000000101e-01 3.093200000000000116e-02 1.613500000000000004e-02 3.300500000000000100e-01 -9.921399999999999664e-02 9.964399999999999646e-02 3.662100000000000077e-02 2.111969999999999958e-01 -2.926480000000000192e-01 -2.347399999999999834e-02 -3.011849999999999805e-01 1.062270000000000020e-01 1.030480000000000007e-01 1.982820000000000138e-01 1.613120000000000109e-01 8.384000000000000827e-03
-5.458000000000000178e-03 -2.689499999999999877e-02 -6.983200000000000518e-02 -3.884599999999999859e-02 -1.204999999999999908e-03 6.333400000000000141e-02 -1.121729999999999949e-01 7.368700000000000250e-02 -3.575799999999999812e-02 2.055180000000000062e-01 -2.518600000000000005e-02 -1.010169999999999957e-01 -1.606000000000000136e-02 -2.648700000000000013e-02 -1.416199999999999959e-01 -2.340700000000000072e-02 1.085040000000000032e-01 -2.350100000000000106e-02 4.371200000000000085e-02 1.526800000000000032e-02 3.378199999999999953e-02 1.873039999999999983e-01 1.416370000000000129e-01 9.698199999999999876e-02 8.618399999999999672e-02 1.291779999999999873e-01 -1.901970000000000049e-01 5.199100000000000249e-02 1.463409999999999989e-01 -3.157469999999999999e-01 -8.671099999999999641e-02 1.724189999999999889e-01 -5.002399999999999902e-02 8.097100000000000131e-02 1.635500000000000148e-02 5.131000000000000144e-03 1.920149999999999912e-01 -6.029600000000000237e-02 6.598700000000000399e-02 -4.864600000000000174e-02 3.722299999999999914e-02 -4.020389999999999797e-01 5.433899999999999841e-02 -8.389000000000000623e-03 1.946559999999999957e-01 3.975200000000000261e-02 1.300929999999999864e-01 -2.272319999999999895e-01 4.506099999999999689e-02 3.304399999999999699e-02 2.883600000000000052e-02 -5.588400000000000312e-02 -6.658000000000000029e-02 3.109999999999999917e-03 1.609990000000000032e-01 7.637099999999999445e-02 -1.006309999999999982e-01 -6.635599999999999832e-02 2.648519999999999763e-01 1.425260000000000138e-01 1.609480000000000077e-01 2.582010000000000138e-01 1.937800000000000078e-01 -6.370699999999999974e-02 -4.729599999999999776e-02 1.983169999999999933e-01 5.735200000000000020e-02 -3.505899999999999989e-02 -1.200900000000000023e-01 -1.269659999999999955e-01 -5.924800000000000205e-02 -3.851999999999999955e-03 3.131599999999999662e-02 7.918899999999999550e-02 2.616500000000000076e-02 -8.685400000000000065e-02 7.206700000000000605e-02 1.311499999999999992e-02 -8.472999999999999629e-03 -5.548399999999999860e-02 1.093950000000000061e-01 -6.074899999999999745e-02 1.523069999999999979e-01 -8.075200000000000433e-02 -1.052329999999999932e-01 1.119939999999999963e-01 -2.720799999999999955e-02 5.776300000000000184e-02 -5.156600000000000072e-02 8.671199999999999741e-02 1.137179999999999996e-01 1.174359999999999987e-01 -1.770800000000000152e-02 -6.304800000000000681e-02 -1.263670000000000071e-01 -2.527999999999999865e-03 -1.235789999999999944e-01 2.024000000000000191e-03 -5.440299999999999997e-02 -2.865900000000000045e-02 2.141599999999999893e-01 2.505200000000000204e-01 2.699000000000000010e-02 -3.017779999999999907e-01 4.700800000000000117e-02 -8.499299999999999911e-02 8.093599999999999406e-02 -1.773889999999999911e-01 -3.452800000000000313e-02 4.059600000000000014e-02 -1.263549999999999951e-01 -4.845800000000000107e-02 -3.678660000000000263e-01 -2.078319999999999890e-01 -3.322100000000000053e-02 -3.990909999999999735e-01 -3.961910000000000154e-01 -1.461339999999999861e-01 -1.372460000000000069e-01 8.944499999999999673e-02 -1.810589999999999977e-01 3.660700000000000065e-02 2.812500000000000000e-01 -8.931899999999999562e-02 2.116900000000000032e-02 1.868029999999999968e-01 -1.744199999999999917e-02 8.786499999999999866e-02 -6.347999999999999476e-02 -1.468150000000000011e-01 -1.363900000000000008e-02 -1.437380000000000047e-01 -6.214000000000000079e-02 -2.132759999999999934e-01 2.969740000000000157e-01 -1.375550000000000106e-01 -2.012970000000000037e-01 1.829409999999999925e-01 1.429950000000000110e-01 -3.893499999999999739e-01 3.171749999999999847e-01 2.358669999999999933e-01 4.316500000000000198e-02 -1.280300000000000049e-01 8.968199999999999783e-02 -1.532640000000000113e-01 -2.409759999999999958e-01 3.442900000000000127e-02 1.719000000000000042e-02 3.894110000000000071e-01 -1.198889999999999956e-01 1.173580000000000040e-01 4.315599999999999992e-02 2.472489999999999966e-01 -3.480800000000000005e-01 -2.914200000000000124e-02 -3.582759999999999834e-01 1.257159999999999944e-01 1.205330000000000013e-01 2.342029999999999945e-01 1.917030000000000123e-01 1.022499999999999971e-02