-3.345883006600000158e+02
-3.345860263299999815e+02
-3.345780532300000232e+02
-3.345647198799999842e+02
-3.345465423800000053e+02
-3.345241621100000202e+02
-3.344978760899999770e+02
-3.344680805699999837e+02
-3.344357365299999856e+02
-3.344015900800000054e+02
-3.260369966100000170e+02
-3.260423529500000086e+02
-3.260552587199999834e+02
-3.260754415100000188e+02
-3.261025552799999900e+02
-3.261363911299999927e+02
-3.261764289999999846e+02
-3.262221155600000202e+02
-3.262729213999999729e+02
-3.263281348400000184e+02
-3.286246320899999773e+02
-3.286383598499999721e+02
-3.286684113300000263e+02
-3.287143545900000277e+02
-3.287756958300000178e+02
-3.288515295999999921e+02
-3.289404826400000275e+02
-3.290408868800000164e+02
-3.291511621000000218e+02
-3.292690205600000013e+02
-3.183879708299999720e+02
-3.184141463199999862e+02
-3.184724685300000147e+02
-3.185614416299999903e+02
-3.186794526699999892e+02
-3.188236584599999901e+02
-3.189908356600000161e+02
-3.191764378400000055e+02
-3.193754768700000000e+02
-3.195827345899999727e+02
-3.278485978900000077e+02
-3.278412979400000040e+02
-3.278408220200000187e+02
-3.278471390199999860e+02
-3.278603987299999858e+02
-3.278806364299999814e+02
-3.279079856299999847e+02
-3.279423226000000113e+02
-3.279834303200000249e+02
-3.280313842499999737e+02
-3.214340703400000052e+02
-3.215142311800000243e+02
-3.216345251199999780e+02
-3.217933638999999744e+02
-3.219880320500000153e+02
-3.222147065699999757e+02
-3.224682283000000211e+02
-3.227425553799999989e+02
-3.230300620699999854e+02
-3.233232102399999803e+02
-3.170403104800000165e+02
-3.171894296099999906e+02
-3.174806931400000281e+02
-3.179019418600000222e+02
-3.184353484700000081e+02
-3.190533529599999838e+02
-3.197213788799999747e+02
-3.204009569799999895e+02
-3.210575755500000241e+02
-3.216666766999999822e+02
-3.001293223700000112e+02
-3.005589393299999870e+02
-3.012849725899999953e+02
-3.022610157400000048e+02
-3.034136011900000085e+02
-3.046474724099999776e+02
-3.058648933399999805e+02
-3.069890690700000278e+02
-3.079779943799999842e+02
-3.088229754600000092e+02
-3.262209941400000162e+02
-3.262204465300000038e+02
-3.262468655900000272e+02
-3.263001611999999909e+02
-3.263794219000000112e+02
-3.264836758899999722e+02
-3.266114190600000029e+02
-3.267603248099999860e+02
-3.269272703400000069e+02
-3.271087199199999986e+02
-3.217031232599999839e+02
-3.217258882099999937e+02
-3.217583045000000084e+02
-3.217997906499999772e+02
-3.218492763599999762e+02
-3.219056191700000227e+02
-3.219677385499999787e+02
-3.220337918500000001e+02
-3.221028133099999877e+02
-3.221732259899999917e+02
-3.163584630500000117e+02
-3.164797529400000258e+02
-3.167158724399999983e+02
-3.170577616599999828e+02
-3.174903333600000224e+02
-3.179915684900000201e+02
-3.185360083300000156e+02
-3.190952737399999819e+02
-3.196429358199999911e+02
-3.201584939300000201e+02
-3.124034710700000232e+02
-3.126233825400000228e+02
-3.130608272200000215e+02
-3.136907728599999814e+02
-3.144717743699999914e+02
-3.153458359800000039e+02
-3.162474823800000081e+02
-3.171162326499999722e+02
-3.179086342900000091e+02
-3.186033327499999928e+02
-3.285229780399999981e+02
-3.285381872400000134e+02
-3.285615558800000144e+02
-3.285928030399999784e+02
-3.286315022399999748e+02
-3.286771949600000085e+02
-3.287289952200000016e+02
-3.287865132499999845e+02
-3.288486056899999994e+02
-3.289144110400000045e+02
-3.232887907699999914e+02
-3.233211852599999929e+02
-3.233874675700000125e+02
-3.234870103200000244e+02
-3.236184568699999886e+02
-3.237797253499999783e+02
-3.239679232899999874e+02
-3.241789795899999831e+02
-3.244083152499999869e+02
-3.246501571900000158e+02
-3.284759131100000218e+02
-3.285291289400000210e+02
-3.286209836599999790e+02
-3.287489677500000198e+02
-3.289088076699999874e+02
-3.290952073000000269e+02
-3.293023507300000006e+02
-3.295235189300000229e+02
-3.297518040200000087e+02
-3.299802439599999957e+02
-3.290638458199999832e+02
-3.290757824600000276e+02
-3.291112599300000170e+02
-3.291692195399999719e+02
-3.292478472799999736e+02
-3.293448792099999878e+02
-3.294573241300000177e+02
-3.295819357199999899e+02
-3.297149819699999966e+02
-3.298527251500000261e+02
-3.308675189599999840e+02
-3.308631615499999725e+02
-3.308676647799999841e+02
-3.308810046799999895e+02
-3.309033088400000224e+02
-3.309345691999999985e+02
-3.309747203700000000e+02
-3.310235977199999979e+02
-3.310808947699999862e+02
-3.311461662799999885e+02
-3.141882006800000227e+02
-3.143370714399999883e+02
-3.146296161299999881e+02
-3.150542126299999950e+02
-3.155913878900000213e+02
-3.162136303600000247e+02
-3.168847782400000028e+02
-3.175668392700000027e+02
-3.182253251999999861e+02
-3.188353890199999796e+02
-3.303456666499999983e+02
-3.303588862899999867e+02
-3.303777282799999853e+02
-3.304021193599999719e+02
-3.304318840500000078e+02
-3.304665713800000049e+02
-3.305060587699999815e+02
-3.305499831700000186e+02
-3.305978344299999776e+02
-3.306492377399999896e+02
-3.202539605499999880e+02
-3.203386064599999941e+02
-3.205097049600000219e+02
-3.207617919300000153e+02
-3.210865732299999991e+02
-3.214714299799999822e+02
-3.219000992300000235e+02
-3.223543039900000053e+02
-3.228140291999999931e+02
-3.232620082299999922e+02
-3.101275453299999754e+02
-3.103334044800000129e+02
-3.107630063700000278e+02
-3.113978756600000111e+02
-3.122041595200000188e+02
-3.131303030500000091e+02
-3.141121904699999732e+02
-3.150830853699999921e+02
-3.159900101599999971e+02
-3.168024135200000160e+02
-3.230405023299999812e+02
-3.232055358800000135e+02
-3.234756399199999919e+02
-3.238419845999999893e+02
-3.242894545199999925e+02
-3.247975832199999786e+02
-3.253413668499999858e+02
-3.258946680799999740e+02
-3.264338217800000166e+02
-3.269407257400000049e+02
-3.279988275700000031e+02
-3.280054683600000089e+02
-3.280364212900000211e+02
-3.280910501600000089e+02
-3.281687426699999719e+02
-3.282688732400000049e+02
-3.283895724999999857e+02
-3.285289442399999871e+02
-3.286842545800000153e+02
-3.288521561200000178e+02
-3.270819869599999947e+02
-3.271420251299999791e+02
-3.272487352900000133e+02
-3.273995665499999745e+02
-3.275905176300000221e+02
-3.278161552600000164e+02
-3.280695414499999742e+02
-3.283419695299999717e+02
-3.286246943400000191e+02
-3.289088775000000169e+02
-3.273276933399999962e+02
-3.274027022399999964e+02
-3.275224410800000214e+02
-3.276826227099999755e+02
-3.278774534899999935e+02
-3.280992523499999720e+02
-3.283399442599999816e+02
-3.285904978400000118e+02
-3.288421213799999805e+02
-3.290876299299999914e+02
-3.308989445799999771e+02
-3.309066929100000038e+02
-3.309186428799999931e+02
-3.309346221100000207e+02
-3.309543540099999746e+02
-3.309778454199999942e+02
-3.310044818499999906e+02
-3.310340771400000222e+02
-3.310661318900000083e+02
-3.311005859200000145e+02
-3.241401826000000028e+02
-3.241654912800000261e+02
-3.242096205799999780e+02
-3.242712406599999895e+02
-3.243482658799999854e+02
-3.244386393500000167e+02
-3.245387470300000246e+02
-3.246452573000000257e+02
-3.247553338299999837e+02
-3.248662727600000153e+02
-3.261764772700000208e+02
-3.261769384300000070e+02
-3.261991071099999999e+02
-3.262423921500000006e+02
-3.263059316700000068e+02
-3.263877170999999748e+02
-3.264855735799999934e+02
-3.265967186500000139e+02
-3.267177501200000052e+02
-3.268453360999999973e+02
-3.291048829200000228e+02
-3.291483531900000230e+02
-3.292099491000000171e+02
-3.292887596200000075e+02
-3.293837258500000189e+02
-3.294930560700000228e+02
-3.296148940300000163e+02
-3.297469028099999946e+02
-3.298862915199999861e+02
-3.300304310500000042e+02
-3.302539780899999755e+02
-3.302794888299999911e+02
-3.303241370200000233e+02
-3.303867416400000252e+02
-3.304652842899999996e+02
-3.305575479799999812e+02
-3.306608246999999778e+02
-3.307716316300000017e+02
-3.308868952700000250e+02
-3.310031902200000218e+02
-3.288821420500000272e+02
-3.288770013100000256e+02
-3.288994055699999990e+02
-3.289485177099999760e+02
-3.290229259600000091e+02
-3.291204149299999813e+02
-3.292382552600000167e+02
-3.293729488999999830e+02
-3.295205834099999720e+02
-3.296768542400000115e+02
-3.255507390800000280e+02
-3.255451870499999814e+02
-3.255625563699999816e+02
-3.256023841900000093e+02
-3.256633384500000261e+02
-3.257435332800000083e+02
-3.258402287299999784e+02
-3.259508426799999938e+02
-3.260719375200000059e+02
-3.262003526699999725e+02
-3.257206311300000152e+02
-3.257476250700000264e+02
-3.257866820200000006e+02
-3.258374334999999746e+02
-3.258991884800000207e+02
-3.259712046099999725e+02
-3.260523565099999814e+02
-3.261413911299999882e+02
-3.262366563200000087e+02
-3.263367311000000086e+02
-3.234496641900000213e+02
-3.234882132399999932e+02
-3.236001248599999940e+02
-3.237819170399999962e+02
-3.240281003599999963e+02
-3.243305353100000161e+02
-3.246781745000000114e+02
-3.250577225900000258e+02
-3.254538555500000143e+02
-3.258518359899999837e+02
-3.303298219299999801e+02
-3.303275598299999842e+02
-3.303305725199999756e+02
-3.303387672200000225e+02
-3.303515357399999743e+02
-3.303684194599999842e+02
-3.303887775700000020e+02
-3.304115088300000025e+02
-3.304359645700000101e+02
-3.304611247400000025e+02
-3.249108776699999908e+02
-3.249389374200000020e+02
-3.250016132800000150e+02
-3.250981476499999872e+02
-3.252271954799999776e+02
-3.253869151100000181e+02
-3.255743364599999836e+02
-3.257854057900000271e+02
-3.260156834100000083e+02
-3.262589404999999942e+02
-3.295928371100000049e+02
-3.296166559399999869e+02
-3.296499329100000182e+02
-3.296921971599999779e+02
-3.297425138400000151e+02
-3.297999684900000261e+02
-3.298636353399999734e+02
-3.299321259700000155e+02
-3.300042454499999849e+02
-3.300788665200000196e+02
-3.287046184899999730e+02
-3.287192750699999806e+02
-3.287510122599999818e+02
-3.287993936699999722e+02
-3.288636695299999815e+02
-3.289432680900000037e+02
-3.290367465799999991e+02
-3.291426521500000035e+02
-3.292590647000000104e+02
-3.293838624599999889e+02
-3.275359298800000261e+02
-3.275374416099999735e+02
-3.275627605099999755e+02
-3.276116454500000259e+02
-3.276835298400000056e+02
-3.277777972200000249e+02
-3.278927907099999857e+02
-3.280272759700000051e+02
-3.281786472399999752e+02
-3.283443428100000006e+02
-3.277996490300000119e+02
-3.278030479700000228e+02
-3.278141144499999768e+02
-3.278326106700000082e+02
-3.278582494500000166e+02
-3.278907121799999800e+02
-3.279295115200000055e+02
-3.279740598299999874e+02
-3.280235491700000239e+02
-3.280772121300000208e+02
-3.250497665199999915e+02
-3.251653893800000219e+02
-3.253588453699999832e+02
-3.256228845900000124e+02
-3.259468985400000065e+02
-3.263170248700000116e+02
-3.267166140400000245e+02
-3.271286349200000245e+02
-3.275366916300000071e+02
-3.279262474899999802e+02
-3.231111380099999906e+02
-3.231682685999999762e+02
-3.232514080999999919e+02
-3.233596325299999990e+02
-3.234915928199999939e+02
-3.236452399300000025e+02
-3.238179053700000054e+02
-3.240064716200000134e+02
-3.242069198500000198e+02
-3.244152374500000064e+02
-3.267594262100000151e+02
-3.267777703099999940e+02
-3.268164583700000208e+02
-3.268747858599999745e+02
-3.269515372800000250e+02
-3.270450047100000006e+02
-3.271533607999999731e+02
-3.272745226900000262e+02
-3.274057737200000133e+02
-3.275442295299999955e+02
-3.269844945199999984e+02
-3.269847441599999911e+02
-3.270079864200000088e+02
-3.270538342300000068e+02
-3.271216603799999803e+02
-3.272105364000000236e+02
-3.273189734499999872e+02
-3.274451953000000231e+02
-3.275868271499999764e+02
-3.277407959000000233e+02
-3.257872168399999850e+02
-3.258183452800000168e+02
-3.258682249500000125e+02
-3.259358640699999796e+02
-3.260197856999999999e+02
-3.261181129700000270e+02
-3.262284236200000009e+02
-3.263481435699999906e+02
-3.264743376800000192e+02
-3.266043312499999729e+02
-3.299138107200000150e+02
-3.299451673699999787e+02
-3.299955321200000071e+02
-3.300626614700000232e+02
-3.301439311500000144e+02
-3.302360275600000250e+02
-3.303357388000000014e+02
-3.304394372099999941e+02
-3.305441771900000276e+02
-3.306470385000000078e+02
-3.271295463100000234e+02
-3.271696998200000053e+02
-3.272465596499999947e+02
-3.273584695700000111e+02
-3.275021843700000090e+02
-3.276736013600000206e+02
-3.278673253900000191e+02
-3.280771612799999843e+02
-3.282965545399999883e+02
-3.285186548199999947e+02
-3.267942250799999897e+02
-3.268396603300000152e+02
-3.269076296399999819e+02
-3.269961986499999966e+02
-3.271032279600000265e+02
-3.272259254400000259e+02
-3.273611369299999865e+02
-3.275059127100000183e+02
-3.276571331299999770e+02
-3.278118340699999749e+02
-3.272882525499999815e+02
-3.273292927300000201e+02
-3.273980488799999762e+02
-3.274933195699999828e+02
-3.276139396099999885e+02
-3.277579934199999911e+02
-3.279228757899999778e+02
-3.281052329400000076e+02
-3.283008421100000191e+02
-3.285056352400000037e+02
-3.259375219899999934e+02
-3.259629544499999838e+02
-3.259994603600000005e+02
-3.260462665100000095e+02
-3.261023779899999795e+02
-3.261665717199999790e+02
-3.262376015699999812e+02
-3.263141658000000120e+02
-3.263948512100000130e+02
-3.264784899399999745e+02
-3.237448435000000018e+02
-3.238146869500000093e+02
-3.239128322799999751e+02
-3.240360830800000258e+02
-3.241803024800000230e+02
-3.243409234200000242e+02
-3.245125534399999765e+02
-3.246894114400000149e+02
-3.248664251299999819e+02
-3.250388017500000046e+02
-3.274512328100000218e+02
-3.274994477000000188e+02
-3.275851496199999815e+02
-3.277056939799999782e+02
-3.278569460800000002e+02
-3.280341630699999769e+02
-3.282310384099999965e+02
-3.284406159700000103e+02
-3.286556737899999803e+02
-3.288699664800000164e+02
-3.201546133300000179e+02
-3.202053165099999887e+02
-3.202999409299999911e+02
-3.204374667100000238e+02
-3.206162166199999888e+02
-3.208333787299999926e+02
-3.210844651500000282e+02
-3.213636387099999752e+02
-3.216637427699999989e+02
-3.219765739200000212e+02
-3.277193532000000005e+02
-3.277842255799999975e+02
-3.278931723700000020e+02
-3.280418080100000111e+02
-3.282243141399999899e+02
-3.284330652400000190e+02
-3.286596345199999973e+02
-3.288951433999999949e+02
-3.291307437500000219e+02
-3.293590824799999837e+02
-3.253623749500000031e+02
-3.254591915899999890e+02
-3.256187059599999998e+02
-3.258359914600000025e+02
-3.261032477800000038e+02
-3.264097647699999811e+02
-3.267425712400000180e+02
-3.270883462200000054e+02
-3.274335950899999830e+02
-3.277666386500000044e+02
-3.245035905999999954e+02
-3.245609506700000111e+02
-3.246588764399999718e+02
-3.247930339200000276e+02
-3.249573024499999860e+02
-3.251440550899999948e+02
-3.253446088700000018e+02
-3.255502162999999882e+02
-3.257529534600000147e+02
-3.259463192299999719e+02
-3.303017422099999862e+02
-3.303356471999999826e+02
-3.303871678900000006e+02
-3.304552226800000199e+02
-3.305384023500000126e+02
-3.306351797400000123e+02
-3.307437483599999837e+02
-3.308615813499999945e+02
-3.309858475899999917e+02
-3.311140505899999766e+02
-3.294767474999999877e+02
-3.295009766300000251e+02
-3.295345029599999975e+02
-3.295767939500000239e+02
-3.296273081800000000e+02
-3.296856642600000100e+02
-3.297511207499999841e+02
-3.298228300999999760e+02
-3.298999422800000048e+02
-3.299816081899999745e+02
-3.250468837899999812e+02
-3.251351580400000216e+02
-3.252971695100000034e+02
-3.255278028399999926e+02
-3.258185474800000065e+02
-3.261574970199999939e+02
-3.265306646199999818e+02
-3.269218075200000158e+02
-3.273147761600000081e+02
-3.276953561600000171e+02
-3.305498455900000181e+02
-3.305729733100000090e+02
-3.306002665899999897e+02
-3.306315387299999884e+02
-3.306663781500000141e+02
-3.307041388600000005e+02
-3.307445991600000070e+02
-3.307872329100000002e+02
-3.308313908900000229e+02
-3.308768232499999726e+02
-3.306865039900000056e+02
-3.306897871300000133e+02
-3.307020878600000060e+02
-3.307232092099999932e+02
-3.307531220299999859e+02
-3.307914231400000062e+02
-3.308377340100000197e+02
-3.308914522000000034e+02
-3.309517232200000194e+02
-3.310178491300000019e+02
-3.203711394100000120e+02
-3.204786765900000205e+02
-3.206792513299999996e+02
-3.209654123500000082e+02
-3.213254380100000276e+02
-3.217429006599999752e+02
-3.221977900599999884e+02
-3.226678444500000182e+02
-3.231320023999999762e+02
-3.235734389599999759e+02
-3.316280530999999883e+02
-3.316382592200000090e+02
-3.316531128799999806e+02
-3.316722124099999860e+02
-3.316950844899999993e+02
-3.317210026999999855e+02
-3.317491294700000140e+02
-3.317788270300000022e+02
-3.318092074799999978e+02
-3.318396358800000030e+02
-3.165312538599999925e+02
-3.166975426299999867e+02
-3.170226354700000115e+02
-3.174946141300000022e+02
-3.180934209399999872e+02
-3.187888773500000070e+02
-3.195417852100000005e+02
-3.203085106199999927e+02
-3.210501092100000164e+02
-3.217380609699999923e+02
-3.307500654899999972e+02
-3.307774555899999882e+02
-3.308140152199999875e+02
-3.308588227299999858e+02
-3.309114475399999833e+02
-3.309707269900000028e+02
-3.310356516599999850e+02
-3.311053040499999724e+02
-3.311785865100000024e+02
-3.312542910000000234e+02
-3.239655041500000152e+02
-3.239800515300000257e+02
-3.240187397299999930e+02
-3.240804152800000111e+02
-3.241633960199999933e+02
-3.242656001999999944e+02
-3.243840165600000205e+02
-3.245156784399999879e+02
-3.246572279200000253e+02
-3.248052063000000089e+02
-3.298319462800000110e+02
-3.298306950300000153e+02
-3.298466158200000109e+02
-3.298798999399999730e+02
-3.299301564099999950e+02
-3.299967147599999748e+02
-3.300787642199999823e+02
-3.301751741499999753e+02
-3.302844430600000010e+02
-3.304046125500000244e+02
-3.278103442899999891e+02
-3.278599967499999934e+02
-3.279397761199999763e+02
-3.280471916399999941e+02
-3.281788840699999810e+02
-3.283304031900000268e+02
-3.284969945700000267e+02
-3.286733422099999871e+02
-3.288536440799999809e+02
-3.290329285799999752e+02
-3.298309709800000178e+02
-3.298708106199999861e+02
-3.299291206199999920e+02
-3.300035047800000143e+02
-3.300914163599999824e+02
-3.301893864900000040e+02
-3.302942538199999944e+02
-3.304022503200000074e+02
-3.305104531499999894e+02
-3.306165583499999912e+02
-3.228631489399999737e+02
-3.229153834699999948e+02
-3.230207571899999834e+02
-3.231759941400000002e+02
-3.233757141099999899e+02
-3.236124546199999941e+02
-3.238770064400000024e+02
-3.241587096499999916e+02
-3.244469884100000172e+02
-3.247314475200000174e+02
-3.253730511900000124e+02
-3.255004593900000032e+02
-3.256846414299999992e+02
-3.259196623199999863e+02
-3.261970619800000009e+02
-3.265066613700000175e+02
-3.268362894399999732e+02
-3.271733105700000124e+02
-3.275060134500000117e+02
-3.278241996200000017e+02
-3.287628092400000241e+02
-3.287641719599999988e+02
-3.287723178200000120e+02
-3.287874849500000209e+02
-3.288096402799999964e+02
-3.288391941799999927e+02
-3.288760590800000045e+02
-3.289204069699999877e+02
-3.289723945599999979e+02
-3.290318123999999784e+02
-3.213487965200000076e+02
-3.214137299000000212e+02
-3.215696788899999774e+02
-3.218119306599999732e+02
-3.221327142200000253e+02
-3.225199397100000169e+02
-3.229569235100000242e+02
-3.234240105499999913e+02
-3.239012022699999989e+02
-3.243691119499999900e+02
-3.300225528700000268e+02
-3.300509533599999941e+02
-3.300893616000000179e+02
-3.301369962800000053e+02
-3.301927146300000118e+02
-3.302554198400000018e+02
-3.303237680700000283e+02
-3.303962254099999996e+02
-3.304715912300000014e+02
-3.305481895799999847e+02
-3.223546346900000117e+02
-3.223548712099999989e+02
-3.223703004999999848e+02
-3.224008009500000185e+02
-3.224459201000000235e+02
-3.225050921900000276e+02
-3.225779643800000258e+02
-3.226635296499999868e+02
-3.227609332900000254e+02
-3.228685941900000103e+02
-3.272954515100000208e+02
-3.273030321300000196e+02
-3.273255352400000220e+02
-3.273627284400000121e+02
-3.274141391100000078e+02
-3.274791109500000061e+02
-3.275562597499999811e+02
-3.276441496099999995e+02
-3.277406369400000017e+02
-3.278435777299999927e+02
-3.223870409300000119e+02
-3.224114758900000197e+02
-3.224755675499999938e+02
-3.225786357399999815e+02
-3.227194875499999966e+02
-3.228958145700000273e+02
-3.231045878099999982e+02
-3.233413714800000207e+02
-3.236006513199999972e+02
-3.238757582100000150e+02
-3.133064300699999762e+02
-3.134486936600000035e+02
-3.137172306900000081e+02
-3.141014926500000115e+02
-3.145844030999999745e+02
-3.151426688199999830e+02
-3.157462458900000115e+02
-3.163640432700000247e+02
-3.169678616099999999e+02
-3.175355311000000142e+02
-3.121331363400000214e+02
-3.122876376699999810e+02
-3.126125544899999795e+02
-3.130949645200000191e+02
-3.137119453399999998e+02
-3.144298134499999833e+02
-3.152057233200000042e+02
-3.159921970899999906e+02
-3.167485386600000083e+02
-3.174456586399999765e+02
-3.224823234200000002e+02
-3.225201385799999798e+02
-3.225741065700000263e+02
-3.226430763199999774e+02
-3.227258458399999768e+02
-3.228205438900000104e+02
-3.229252031999999986e+02
-3.230377284699999905e+02
-3.231559014200000206e+02
-3.232775094200000012e+02
-3.232008163799999920e+02
-3.232197493400000212e+02
-3.232555090600000085e+02
-3.233072555699999953e+02
-3.233743830299999900e+02
-3.234559631800000261e+02
-3.235506009100000142e+02
-3.236567251199999760e+02
-3.237726512599999751e+02
-3.238962723999999866e+02
-3.182627519999999777e+02
-3.183252662400000190e+02
-3.184357600600000069e+02
-3.185909368200000245e+02
-3.187856043900000031e+02
-3.190133039899999972e+02
-3.192660541000000194e+02
-3.195349091799999997e+02
-3.198111251000000266e+02
-3.200858119299999771e+02
-3.280652110600000242e+02
-3.280926634400000239e+02
-3.281390656699999795e+02
-3.282037457900000277e+02
-3.282857212900000263e+02
-3.283838193099999785e+02
-3.284966278100000068e+02
-3.286221844500000202e+02
-3.287582084499999837e+02
-3.289024658700000145e+02
-3.217474260100000265e+02
-3.218294169399999873e+02
-3.220342942400000084e+02
-3.223544362399999841e+02
-3.227761656299999800e+02
-3.232790956700000038e+02
-3.238366371100000265e+02
-3.244180008899999734e+02
-3.249934105599999725e+02
-3.255385825999999838e+02
-3.055526859700000273e+02
-3.058015813900000239e+02
-3.063324699600000258e+02
-3.071201272000000131e+02
-3.081173269600000140e+02
-3.092529062300000078e+02
-3.104393215100000134e+02
-3.115922505500000170e+02
-3.126488826899999935e+02
-3.135773066900000003e+02
-3.174040155899999718e+02
-3.175234549799999968e+02
-3.177575857400000245e+02
-3.180989164299999743e+02
-3.185342391400000110e+02
-3.190445790599999896e+02
-3.196056747399999836e+02
-3.201885012399999937e+02
-3.207672320799999852e+02
-3.213191294499999913e+02
-3.292197478699999920e+02
-3.292434973499999842e+02
-3.292756945599999767e+02
-3.293162143100000208e+02
-3.293645656300000155e+02
-3.294204032499999926e+02
-3.294832081999999787e+02
-3.295526193800000101e+02
-3.296279859100000067e+02
-3.297086905400000205e+02
-3.297186648399999740e+02
-3.297302812600000266e+02
-3.297431989300000055e+02
-3.297572654800000009e+02
-3.297725353800000221e+02
-3.297886150400000247e+02
-3.298054425899999842e+02
-3.298229352000000176e+02
-3.298411487399999942e+02
-3.298599760299999843e+02
-3.324287870599999906e+02
-3.324337614600000279e+02
-3.324413309700000241e+02
-3.324516304200000150e+02
-3.324643482999999833e+02
-3.324793950700000096e+02
-3.324964156500000172e+02
-3.325153021899999999e+02
-3.325357131999999751e+02
-3.325574813200000222e+02
-3.218886499800000252e+02
-3.219967697700000144e+02
-3.222190884999999980e+02
-3.225486413599999764e+02
-3.229730964299999982e+02
-3.234745012399999951e+02
-3.240296223700000269e+02
-3.246110687500000154e+02
-3.251909340400000019e+02
-3.257463275700000054e+02
-3.271417673099999774e+02
-3.271508738300000232e+02
-3.271707234900000003e+02
-3.272009561200000007e+02
-3.272404899000000000e+02
-3.272880504099999825e+02
-3.273422038900000075e+02
-3.274013284499999941e+02
-3.274639648799999918e+02
-3.275285776200000214e+02
-3.271957555600000092e+02
-3.272266492100000050e+02
-3.272854493799999887e+02
-3.273714641600000164e+02
-3.274836880600000200e+02
-3.276204799999999864e+02
-3.277793953299999998e+02
-3.279576084099999775e+02
-3.281513110700000198e+02
-3.283561979799999904e+02
-3.261334234500000093e+02
-3.262075452299999938e+02
-3.263498727200000076e+02
-3.265540779799999882e+02
-3.268109383999999977e+02
-3.271077988100000198e+02
-3.274302246299999979e+02
-3.277626420600000188e+02
-3.280904296400000248e+02
-3.284015122900000279e+02
-3.331372182299999736e+02
-3.331281682599999954e+02
-3.331189532199999803e+02
-3.331098091399999817e+02
-3.331010856400000080e+02
-3.330927014000000099e+02
-3.330850314599999820e+02
-3.330781431099999850e+02
-3.330723792399999752e+02
-3.330676908899999944e+02
-3.295336687399999960e+02
-3.295500636900000018e+02
-3.295813865499999906e+02
-3.296274084799999855e+02
-3.296879901699999778e+02
-3.297624584299999810e+02
-3.298502373000000034e+02
-3.299502873900000282e+02
-3.300612678699999947e+02
-3.301815429399999857e+02
-3.243560253200000147e+02
-3.243862999500000228e+02
-3.244362571600000251e+02
-3.245049538999999754e+02
-3.245908003299999791e+02
-3.246919641599999977e+02
-3.248061441300000070e+02
-3.249305089599999974e+02
-3.250621744000000035e+02
-3.251983237599999939e+02
-3.249215012099999740e+02
-3.249369696399999725e+02
-3.249661428800000067e+02
-3.250086797600000068e+02
-3.250641364499999781e+02
-3.251314259499999935e+02
-3.252100444700000139e+02
-3.252983704700000089e+02
-3.253955651300000227e+02
-3.254999802199999976e+02
-3.211487160600000266e+02
-3.212564575999999761e+02
-3.214607979400000204e+02
-3.217521583800000258e+02
-3.221162821699999768e+02
-3.225342994399999839e+02
-3.229841042300000140e+02
-3.234425205900000151e+02
-3.238886124499999823e+02
-3.243064243599999941e+02
-3.223214720299999954e+02
-3.224163795000000050e+02
-3.225663669200000072e+02
-3.227643157900000119e+02
-3.230000890300000265e+02
-3.232622882800000070e+02
-3.235385801599999809e+02
-3.238167960800000174e+02
-3.240867312899999888e+02
-3.243400328100000252e+02
-3.193365252199999986e+02
-3.193702815999999984e+02
-3.194240980100000229e+02
-3.194968847700000083e+02
-3.195869986299999823e+02
-3.196922845999999936e+02
-3.198102092500000140e+02
-3.199377084700000182e+02
-3.200715121999999724e+02
-3.202085450600000058e+02
-3.283785901699999954e+02
-3.283968757200000255e+02
-3.284305331499999738e+02
-3.284791226699999811e+02
-3.285420855500000243e+02
-3.286185783500000070e+02
-3.287075718799999891e+02
-3.288077818200000024e+02
-3.289173978499999862e+02
-3.290342499899999780e+02
-3.240527815899999950e+02
-3.240717965200000208e+02
-3.241099530700000173e+02
-3.241660947699999724e+02
-3.242393921500000147e+02
-3.243283690499999921e+02
-3.244313986799999725e+02
-3.245462744800000223e+02
-3.246709358100000031e+02
-3.248030195100000128e+02
-3.209156103199999848e+02
-3.209222927399999890e+02
-3.209354548599999930e+02
-3.209546932800000150e+02
-3.209803888100000222e+02
-3.210122845099999722e+02
-3.210500560300000075e+02
-3.210935016600000154e+02
-3.211419687100000147e+02
-3.211951480299999844e+02
-3.295595313700000020e+02
-3.295823381999999810e+02
-3.296195266899999865e+02
-3.296707039300000019e+02
-3.297352186300000199e+02
-3.298122622500000034e+02
-3.299005794500000093e+02
-3.299987708300000122e+02
-3.301053156300000069e+02
-3.302183472099999904e+02
-3.166400607799999989e+02
-3.168465150299999777e+02
-3.172212365999999975e+02
-3.177458464900000195e+02
-3.183906210299999771e+02
-3.191159440600000039e+02
-3.198742539300000089e+02
-3.206207344599999942e+02
-3.213188050200000134e+02
-3.219472888799999737e+02
-3.281320339700000090e+02
-3.281421465299999909e+02
-3.281579629999999952e+02
-3.281793533000000025e+02
-3.282059843999999771e+02
-3.282375857200000269e+02
-3.282738006199999745e+02
-3.283144055099999719e+02
-3.283589183700000262e+02
-3.284067539600000032e+02
-3.284617549899999744e+02
-3.284483275399999798e+02
-3.284631817200000228e+02
-3.285055444199999783e+02
-3.285737117599999806e+02
-3.286644735099999934e+02
-3.287743178700000044e+02
-3.288985327199999915e+02
-3.290325949599999831e+02
-3.291710040599999729e+02
-3.330408836099999803e+02
-3.330480775300000005e+02
-3.330547287599999891e+02
-3.330607453399999827e+02
-3.330663289299999974e+02
-3.330714834300000007e+02
-3.330766993799999796e+02
-3.330817606300000193e+02
-3.330867535900000007e+02
-3.330917765099999883e+02
-3.313046158000000219e+02
-3.313078831899999841e+02
-3.313128634299999931e+02
-3.313196081099999901e+02
-3.313278348900000196e+02
-3.313374438800000235e+02
-3.313482694900000070e+02
-3.313600320400000214e+02
-3.313723512500000083e+02
-3.313850225799999976e+02
-3.288093725200000108e+02
-3.288197620600000164e+02
-3.288360987699999782e+02
-3.288583520700000236e+02
-3.288859335399999964e+02
-3.289187456799999723e+02
-3.289562680199999818e+02
-3.289980761900000061e+02
-3.290434899200000132e+02
-3.290919731600000091e+02
-3.184098356100000160e+02
-3.184589490199999773e+02
-3.185271781700000133e+02
-3.186124968999999965e+02
-3.187131794499999842e+02
-3.188266665500000272e+02
-3.189504765899999938e+02
-3.190818148800000245e+02
-3.192177626899999723e+02
-3.193556679899999722e+02
-3.254267066900000032e+02
-3.254547733499999822e+02
-3.255204641199999855e+02
-3.256218348900000024e+02
-3.257561032400000158e+02
-3.259190306799999917e+02
-3.261052209399999811e+02
-3.263082481999999800e+02
-3.265211404699999775e+02
-3.267371355899999799e+02
-3.251195522500000266e+02
-3.252402211899999998e+02
-3.254288176499999850e+02
-3.256786657600000012e+02
-3.259804791999999907e+02
-3.263211963699999956e+02
-3.266861716899999806e+02
-3.270592563100000234e+02
-3.274257531100000165e+02
-3.277739076400000044e+02
-3.274678758599999924e+02
-3.274860932899999852e+02
-3.275265732299999968e+02
-3.275887130599999750e+02
-3.276720052200000168e+02
-3.277751952799999913e+02
-3.278968695199999956e+02
-3.280351455499999815e+02
-3.281874132099999883e+02
-3.283507453700000269e+02
-3.265737901800000031e+02
-3.266037392700000055e+02
-3.266710299800000143e+02
-3.267740464999999972e+02
-3.269100758399999904e+02
-3.270752170100000171e+02
-3.272650490899999909e+02
-3.274738374199999953e+02
-3.276949483700000201e+02
-3.279220180400000118e+02
-3.251997461899999848e+02
-3.251834297699999752e+02
-3.251806054799999970e+02