-6.130120769178001167e-02 -5.446585178986471792e-02 4.554372321313189254e-01 -5.446585178986471792e-02 -6.871521806158231976e-04 -7.890857817245440220e-01 4.554372321313189254e-01 -7.890857817245440220e-01 3.537387094001771537e-01
-1.180455114489498275e-01 -5.743145593778563318e-02 5.660687332104664682e-01 -5.743145593778563318e-02 1.066894175166672662e-02 -8.126659512909395477e-01 5.660687332104664682e-01 -8.126659512909395477e-01 2.877721000610581337e-01
-1.642836200235461286e-01 -6.036089418146362018e-02 6.757056719229331820e-01 -6.036089418146362018e-02 3.356195913744652176e-02 -8.354504709639906102e-01 6.757056719229331820e-01 -8.354504709639906102e-01 2.368143409827583867e-01
-1.992922153307101762e-01 -6.316375176029132010e-02 7.845831266462982567e-01 -6.316375176029132010e-02 6.833547606703145594e-02 -8.576020873127901956e-01 7.845831266462982567e-01 -8.576020873127901956e-01 1.998889527507186348e-01
-2.237584495510577809e-01 -6.585811162639020055e-02 8.924841019551039700e-01 -6.585811162639020055e-02 1.136875199876757753e-01 -8.791931321458242854e-01 8.924841019551039700e-01 -8.791931321458242854e-01 1.759471241418936460e-01
-2.388034657161200169e-01 -6.842589082763880781e-02 9.993362660408644516e-01 -6.842589082763880781e-02 1.678821274957184861e-01 -9.003863520321858660e-01 9.993362660408644516e-01 -9.003863520321858660e-01 1.630358963271647810e-01
-2.453133284798488523e-01 -7.083092345979419280e-02 1.105121535951458345e+00 -7.083092345979419280e-02 2.294364965171990234e-01 -9.214349083015759279e-01 1.105121535951458345e+00 -9.214349083015759279e-01 1.592565593337777197e-01
-2.444995956343827270e-01 -7.309129247497780923e-02 1.209857994639006895e+00 -7.309129247497780923e-02 2.965061659357277057e-01 -9.425919622836944622e-01 1.209857994639006895e+00 -9.425919622836944622e-01 1.623487441465489289e-01
-2.383333089609618038e-01 -7.515274901682528208e-02 1.313599890959874728e+00 -7.515274901682528208e-02 3.666499372149060187e-01 -9.642191730209715983e-01 1.313599890959874728e+00 -9.642191730209715983e-01 1.690936852878568708e-01
-2.283515193899109119e-01 -7.710570784594393545e-02 1.416491888531033361e+00 -7.710570784594393545e-02 4.374989436268216791e-01 -9.866239506994717301e-01 1.416491888531033361e+00 -9.866239506994717301e-01 1.767608569873597713e-01
-2.342022440516508652e+01 -3.467486938678135999e+01 -2.674221976472076534e+01 -3.467486938678135999e+01 8.127605940410782637e+01 -1.626512953197401190e+00 -2.674221976472076534e+01 -1.626512953197401190e+00 -6.545413626063141521e+01
-2.336057318468041188e+01 -3.473786281937601217e+01 -2.680790149836040470e+01 -3.473786281937601217e+01 8.098750298248189949e+01 -1.631471778773624148e+00 -2.680790149836040470e+01 -1.631471778773624148e+00 -6.580038216954703501e+01
-2.320848436947998650e+01 -3.480051113224192960e+01 -2.686128607113886702e+01 -3.480051113224192960e+01 8.076181284407688565e+01 -1.637066351218593674e+00 -2.686128607113886702e+01 -1.637066351218593674e+00 -6.596291539759113220e+01
-2.296472085580631273e+01 -3.486303229573407947e+01 -2.690179222877614507e+01 -3.486303229573407947e+01 8.059917063085525513e+01 -1.643587297672308489e+00 -2.690179222877614507e+01 -1.643587297672308489e+00 -6.593875701657876220e+01
-2.262862873259439311e+01 -3.492511751851624524e+01 -2.692842094047849955e+01 -3.492511751851624524e+01 8.050059353780704896e+01 -1.652669395797259133e+00 -2.692842094047849955e+01 -1.652669395797259133e+00 -6.572572732295994058e+01
-2.220200625527296623e+01 -3.498694844255090430e+01 -2.693993704090093999e+01 -3.498694844255090430e+01 8.046619055010974364e+01 -1.664330809789695609e+00 -2.693993704090093999e+01 -1.664330809789695609e+00 -6.532571539314460551e+01
-2.168209246601204043e+01 -3.504872487399682512e+01 -2.693523251407221153e+01 -3.504872487399682512e+01 8.049917673049957045e+01 -1.679715884013361915e+00 -2.693523251407221153e+01 -1.679715884013361915e+00 -6.473427099905157434e+01
-2.107384619038785090e+01 -3.511097357454523404e+01 -2.691289055268483565e+01 -3.511097357454523404e+01 8.059631885204403545e+01 -1.698897275253257400e+00 -2.691289055268483565e+01 -1.698897275253257400e+00 -6.396292840529952173e+01
-2.037425217182290993e+01 -3.517382169356989863e+01 -2.687193029014131085e+01 -3.517382169356989863e+01 8.076410153280436077e+01 -1.722565222966878640e+00 -2.687193029014131085e+01 -1.722565222966878640e+00 -6.300305961866973803e+01
-1.958975869998592501e+01 -3.523874053096704273e+01 -2.681051714262039098e+01 -3.523874053096704273e+01 8.099500479553312005e+01 -1.750592577780476056e+00 -2.681051714262039098e+01 -1.750592577780476056e+00 -6.188211073969583964e+01
-9.912512926472773245e+01 -1.577949230756148680e+00 1.583861111198550198e+01 -1.577949230756148680e+00 -7.450432918357043377e+01 -1.742646150741015632e+01 1.583861111198550198e+01 -1.742646150741015632e+01 -9.209301746593381210e+01
-9.903177836707352810e+01 -1.549233794763286598e+00 1.593266188406534845e+01 -1.549233794763286598e+00 -7.442637552328012873e+01 -1.745332433462928634e+01 1.593266188406534845e+01 -1.745332433462928634e+01 -9.179268899916975499e+01
-9.884915231106730005e+01 -1.521527001325012618e+00 1.602090781532083241e+01 -1.521527001325012618e+00 -7.426867734755158779e+01 -1.746417238822659002e+01 1.602090781532083241e+01 -1.746417238822659002e+01 -9.121230783944305642e+01
-9.857669531407697150e+01 -1.494005468764111777e+00 1.610423404105495848e+01 -1.494005468764111777e+00 -7.403187277718464543e+01 -1.745919092907944048e+01 1.610423404105495848e+01 -1.745919092907944048e+01 -9.035288262930829717e+01
-9.821529251140550798e+01 -1.466669197080584297e+00 1.618253763855807392e+01 -1.466669197080584297e+00 -7.371633233393404794e+01 -1.743825644993625446e+01 1.618253763855807392e+01 -1.743825644993625446e+01 -8.921877729165471749e+01
-9.776930782594217817e+01 -1.438777142764936956e+00 1.625571568512053133e+01 -1.438777142764936956e+00 -7.332784027408223437e+01 -1.740120427446159823e+01 1.625571568512053133e+01 -1.740120427446159823e+01 -8.782347470144671320e+01
-9.722667871611577084e+01 -1.410740996655776902e+00 1.632255369276843027e+01 -1.410740996655776902e+00 -7.285464282418695348e+01 -1.734797264902966774e+01 1.632255369276843027e+01 -1.734797264902966774e+01 -8.614243808470330066e+01
-9.660838083015333666e+01 -1.381860884327471783e+00 1.638309283058563892e+01 -1.381860884327471783e+00 -7.231816849239771727e+01 -1.727841748184695447e+01 1.638309283058563892e+01 -1.727841748184695447e+01 -8.423414812504860549e+01
-9.590243396465139369e+01 -1.352033883070369980e+00 1.643626270239177956e+01 -1.352033883070369980e+00 -7.170616947626598403e+01 -1.719354741546805343e+01 1.643626270239177956e+01 -1.719354741546805343e+01 -8.207114504354757401e+01
-9.513197514473968397e+01 -1.321918698226243194e+00 1.648128109559349141e+01 -1.321918698226243194e+00 -7.104250325988900272e+01 -1.709342420351874736e+01 1.648128109559349141e+01 -1.709342420351874736e+01 -7.972162542761546433e+01
1.561607964583815829e+02 4.266630037327832525e+01 -5.640089009719617508e+01 4.266630037327832525e+01 1.590235505839004588e+02 3.303417000711170459e+01 -5.640089009719617508e+01 3.303417000711170459e+01 9.412317640265356999e+01
1.561143796209577488e+02 4.262881166442092962e+01 -5.643867745824153559e+01 4.262881166442092962e+01 1.585834630071333891e+02 3.283058352613853259e+01 -5.643867745824153559e+01 3.283058352613853259e+01 9.364116748981830085e+01
1.558412700543341316e+02 4.251243162233280515e+01 -5.627514180752774564e+01 4.251243162233280515e+01 1.579075816687018232e+02 3.255870000533919040e+01 -5.627514180752774564e+01 3.255870000533919040e+01 9.264036828941974022e+01
1.553486982851667051e+02 4.231689303189840246e+01 -5.591121053869112245e+01 4.231689303189840246e+01 1.570064379878655245e+02 3.221924249737929102e+01 -5.591121053869112245e+01 3.221924249737929102e+01 9.113896514785119507e+01
1.546292608829012352e+02 4.204837327784770196e+01 -5.535362690376513939e+01 4.204837327784770196e+01 1.558799533719433725e+02 3.181511893145739833e+01 -5.535362690376513939e+01 3.181511893145739833e+01 8.913717812461959511e+01
1.537062212811264033e+02 4.170797265771528117e+01 -5.460958999233329081e+01 4.170797265771528117e+01 1.545544406505485426e+02 3.134714667145636113e+01 -5.460958999233329081e+01 3.134714667145636113e+01 8.668200564298848576e+01
1.525851438416599990e+02 4.130529519712457898e+01 -5.369425247330063655e+01 4.130529519712457898e+01 1.530419716594891497e+02 3.081928678850074732e+01 -5.369425247330063655e+01 3.081928678850074732e+01 8.380183537935053550e+01
1.512890719385837883e+02 4.084980345487313258e+01 -5.262691670913128661e+01 4.084980345487313258e+01 1.513712956014907434e+02 3.023639631027898034e+01 -5.262691670913128661e+01 3.023639631027898034e+01 8.055058191290106606e+01
1.498456701956248196e+02 4.035444950479680415e+01 -5.143263804654164773e+01 4.035444950479680415e+01 1.495769932562120346e+02 2.960550142247630134e+01 -5.143263804654164773e+01 2.960550142247630134e+01 7.699270696063135233e+01
1.482869258339674730e+02 3.983510906846621680e+01 -5.014121883018316339e+01 3.983510906846621680e+01 1.476989582685503422e+02 2.893581318731090946e+01 -5.014121883018316339e+01 2.893581318731090946e+01 7.320177327199743900e+01
-8.004227505863484282e+01 2.626586652103204855e+01 -8.504748294299796285e+00 2.626586652103204855e+01 -6.781017183133604931e+01 -4.745644379267835689e+01 -8.504748294299796285e+00 -4.745644379267835689e+01 -3.346601554541276613e+01
-7.980678724717809303e+01 2.639018180689976489e+01 -8.717156136486662987e+00 2.639018180689976489e+01 -6.791104652341404346e+01 -4.741509218106982360e+01 -8.717156136486662987e+00 -4.741509218106982360e+01 -3.330181118071143231e+01
-7.954775866845389487e+01 2.649814878120131212e+01 -8.893180971560591175e+00 2.649814878120131212e+01 -6.798232997016944523e+01 -4.730738565781037863e+01 -8.893180971560591175e+00 -4.730738565781037863e+01 -3.305271981097843081e+01
-7.926651161236831911e+01 2.658968730515450929e+01 -9.031780995353152264e+00 2.658968730515450929e+01 -6.802378175525572601e+01 -4.713390522907089775e+01 -9.031780995353152264e+00 -4.713390522907089775e+01 -3.271952278934008262e+01
-7.896494937499832645e+01 2.666399599093747952e+01 -9.131173119960683593e+00 2.666399599093747952e+01 -6.803476076841535303e+01 -4.689533207449994734e+01 -9.131173119960683593e+00 -4.689533207449994734e+01 -3.230394309961341293e+01
-7.864529580754960136e+01 2.672049383237937192e+01 -9.189694465652802791e+00 2.672049383237937192e+01 -6.801534714843052143e+01 -4.659232733905058410e+01 -9.189694465652802791e+00 -4.659232733905058410e+01 -3.180836487056848938e+01
-7.831065628783187549e+01 2.675769826200972901e+01 -9.206042777218964801e+00 2.675769826200972901e+01 -6.796473950747939341e+01 -4.622547202889366247e+01 -9.206042777218964801e+00 -4.622547202889366247e+01 -3.123589348001505428e+01
-7.796363532626627091e+01 2.677544900226416758e+01 -9.179316493359573670e+00 2.677544900226416758e+01 -6.788510159268096800e+01 -4.579540725428667258e+01 -9.179316493359573670e+00 -4.579540725428667258e+01 -3.059213864270621386e+01
-7.760545503928108246e+01 2.677206313871676358e+01 -9.108774330339393543e+00 2.677206313871676358e+01 -6.777306757518341840e+01 -4.530315478470251378e+01 -9.108774330339393543e+00 -4.530315478470251378e+01 -2.987251241336174701e+01
-7.723910059651284143e+01 2.674784119180071684e+01 -8.994937190242641378e+00 2.674784119180071684e+01 -6.763056078575924346e+01 -4.475059788152257312e+01 -8.994937190242641378e+00 -4.475059788152257312e+01 -2.908440759463842440e+01
-1.124971090647372165e+02 -1.709634150192142599e+01 6.495968100307828230e+00 -1.709634150192142599e+01 -1.168467994774768641e+02 -1.858273148018588827e+01 6.495968100307828230e+00 -1.858273148018588827e+01 -1.445489641845986739e+02
-1.123178588717640736e+02 -1.712413989521688151e+01 6.474674311293365569e+00 -1.712413989521688151e+01 -1.166924030258611680e+02 -1.860206949291315937e+01 6.474674311293365569e+00 -1.860206949291315937e+01 -1.438653654346895792e+02
-1.120509063960698484e+02 -1.715428961505985583e+01 6.448589969126010679e+00 -1.715428961505985583e+01 -1.164471838394706822e+02 -1.862514325809910787e+01 6.448589969126010679e+00 -1.862514325809910787e+01 -1.428150696184395940e+02
-1.117018113163136661e+02 -1.718749386191316475e+01 6.416704223140473395e+00 -1.718749386191316475e+01 -1.161157786463570432e+02 -1.865177697562803161e+01 6.416704223140473395e+00 -1.865177697562803161e+01 -1.414117451948445705e+02
-1.112691672315698668e+02 -1.722318128540076643e+01 6.378709423134274914e+00 -1.722318128540076643e+01 -1.156977699212454667e+02 -1.868078399471894357e+01 6.378709423134274914e+00 -1.868078399471894357e+01 -1.396592597664499351e+02
-1.107580503701793617e+02 -1.726148373560944549e+01 6.334473719020638605e+00 -1.726148373560944549e+01 -1.151968274915512467e+02 -1.871170284006811357e+01 6.334473719020638605e+00 -1.871170284006811357e+01 -1.375798300728776269e+02
-1.101706802086029313e+02 -1.730101678662803977e+01 6.284326736016507375e+00 -1.730101678662803977e+01 -1.146163355095016669e+02 -1.874310513573547254e+01 6.284326736016507375e+00 -1.874310513573547254e+01 -1.351955190286482775e+02
-1.095192528798673806e+02 -1.734164858836977530e+01 6.228268474121879450e+00 -1.734164858836977530e+01 -1.139676330825595159e+02 -1.877380423094001927e+01 6.228268474121879450e+00 -1.877380423094001927e+01 -1.325569131170553305e+02
-1.088196782944438468e+02 -1.738126953944621889e+01 6.167155958900804258e+00 -1.738126953944621889e+01 -1.132665861711669493e+02 -1.880219594962596830e+01 6.167155958900804258e+00 -1.880219594962596830e+01 -1.297288166557495401e+02
-1.080914922401897087e+02 -1.741937421452473345e+01 6.102043991047499283e+00 -1.741937421452473345e+01 -1.125333458635863764e+02 -1.882715956605571961e+01 6.102043991047499283e+00 -1.882715956605571961e+01 -1.267841647177330344e+02
1.770073029350083118e+02 4.540605547814356413e+01 -4.050050523182711260e+01 4.540605547814356413e+01 1.257028889603661668e+02 3.177774467001289693e+01 -4.050050523182711260e+01 3.177774467001289693e+01 2.037846340578708464e+02
1.764405479497543752e+02 4.543955218686009800e+01 -4.048651588711950922e+01 4.543955218686009800e+01 1.247925712128098752e+02 3.138944709207891393e+01 -4.048651588711950922e+01 3.138944709207891393e+01 2.022760231246031708e+02
1.751590462559563832e+02 4.523350468303347327e+01 -4.024252617170260748e+01 4.523350468303347327e+01 1.233709895473397893e+02 3.095021275569292385e+01 -4.024252617170260748e+01 3.095021275569292385e+01 1.994078965852181113e+02
1.731962479311818868e+02 4.480235307914520604e+01 -3.977609033171849973e+01 4.480235307914520604e+01 1.214717183912541429e+02 3.046105200241713717e+01 -3.977609033171849973e+01 3.046105200241713717e+01 1.952419629935924945e+02
1.706145609965431049e+02 4.417357866568755753e+01 -3.910435308629217843e+01 4.417357866568755753e+01 1.191471556123410949e+02 2.992306843611182288e+01 -3.910435308629217843e+01 2.992306843611182288e+01 1.898950022906022070e+02
1.675196516357314920e+02 4.338858990299503660e+01 -3.825698738992009140e+01 4.338858990299503660e+01 1.164812372788462227e+02 2.933979048038656146e+01 -3.825698738992009140e+01 2.933979048038656146e+01 1.835664403569122385e+02
1.640601954955561155e+02 4.250140120535530741e+01 -3.727715814288336560e+01 4.250140120535530741e+01 1.135873548014828174e+02 2.871990707267640985e+01 -3.727715814288336560e+01 2.871990707267640985e+01 1.765411935130673555e+02
1.604150696636781959e+02 4.157226001730912657e+01 -3.621814920480161248e+01 4.157226001730912657e+01 1.105991375096411531e+02 2.807765625715044067e+01 -3.621814920480161248e+01 2.807765625715044067e+01 1.691644099804368295e+02
1.567650786485852734e+02 4.065796307836933465e+01 -3.513510968125547151e+01 4.065796307836933465e+01 1.076486292736446444e+02 2.743080450158730699e+01 -3.513510968125547151e+01 2.743080450158730699e+01 1.617868803494218923e+02
1.532613229168358089e+02 3.980305867957148536e+01 -3.407600748087566700e+01 3.980305867957148536e+01 1.048435014165928010e+02 2.679736697322712402e+01 -3.407600748087566700e+01 2.679736697322712402e+01 1.547049766595112317e+02
2.214635598281132047e+02 5.958323827939271666e+01 -9.563809298443993612e+01 5.958323827939271666e+01 2.482105163304771906e+02 -8.591585305701958930e+01 -9.563809298443993612e+01 -8.591585305701958930e+01 2.823575001696007121e+02
2.199567323101246075e+02 5.927664412907438418e+01 -9.459166141580084286e+01 5.927664412907438418e+01 2.469766347046720512e+02 -8.485315328705617333e+01 -9.459166141580084286e+01 -8.485315328705617333e+01 2.792672880315279258e+02
2.174093397241543073e+02 5.857127423082567930e+01 -9.269912245184464439e+01 5.857127423082567930e+01 2.448695222615576483e+02 -8.309858681113033185e+01 -9.269912245184464439e+01 -8.309858681113033185e+01 2.739134259016263968e+02
2.139436130252965995e+02 5.753291824413894062e+01 -9.007518739345628944e+01 5.753291824413894062e+01 2.419680475922665437e+02 -8.073666927587034081e+01 -9.007518739345628944e+01 -8.073666927587034081e+01 2.665364110474956760e+02
2.097763932927143458e+02 5.626335483503341806e+01 -8.690893019199876335e+01 5.626335483503341806e+01 2.384277534274464756e+02 -7.791539449835980236e+01 -8.690893019199876335e+01 -7.791539449835980236e+01 2.575732319345653423e+02
2.052114365193007188e+02 5.489227609410276898e+01 -8.345663353704009069e+01 5.489227609410276898e+01 2.344805933030662288e+02 -7.484370353193865810e+01 -8.345663353704009069e+01 -7.484370353193865810e+01 2.476666580712758048e+02
2.005893801147999795e+02 5.355054448613669393e+01 -7.999501777754578313e+01 5.355054448613669393e+01 2.303991034803406421e+02 -7.175486658354621738e+01 -7.999501777754578313e+01 -7.175486658354621738e+01 2.375595259598250664e+02
1.962040611507941037e+02 5.233919256360446326e+01 -7.675518792819254088e+01 5.233919256360446326e+01 2.264303353223668296e+02 -6.884976375424751893e+01 -7.675518792819254088e+01 -6.884976375424751893e+01 2.279192561151566849e+02
1.922504932276907823e+02 5.130923401177399512e+01 -7.387355110152354598e+01 5.130923401177399512e+01 2.227510592217723513e+02 -6.625129896429950804e+01 -7.387355110152354598e+01 -6.625129896429950804e+01 2.191753904968783502e+02
1.887958119353077677e+02 5.047127534679650296e+01 -7.139361595827492124e+01 5.047127534679650296e+01 2.194373348716194982e+02 -6.400284920734124228e+01 -7.139361595827492124e+01 -6.400284920734124228e+01 2.115066452447184133e+02
-9.577029151720533662e+01 2.593036250486336769e+01 -1.207809229338962176e+00 2.593036250486336769e+01 -1.676768154189450399e+01 1.728137885071360813e+01 -1.207809229338962176e+00 1.728137885071360813e+01 -1.191042577007939798e+02
-9.576090753572424319e+01 2.591964660343013449e+01 -1.235234671990117494e+00 2.591964660343013449e+01 -1.677399807136456644e+01 1.732593762729473497e+01 -1.235234671990117494e+00 1.732593762729473497e+01 -1.191011700681776091e+02
-9.564779524281789236e+01 2.591657915141911417e+01 -1.264234201857453943e+00 2.591657915141911417e+01 -1.669281149609922466e+01 1.735626907711422362e+01 -1.264234201857453943e+00 1.735626907711422362e+01 -1.187815496408715035e+02
-9.543531364923879323e+01 2.592116014883030672e+01 -1.295231611653020254e+00 2.592116014883030672e+01 -1.652739107416286046e+01 1.737328132741218312e+01 -1.295231611653020254e+00 1.737328132741218312e+01 -1.181501590417348666e+02
-9.511347335534576075e+01 2.593280435810898155e+01 -1.328085637139466924e+00 2.593280435810898155e+01 -1.627093594155735090e+01 1.737691383637259790e+01 -1.328085637139466924e+00 1.737691383637259790e+01 -1.171917820943445889e+02
-9.467793553099164683e+01 2.595108798654308302e+01 -1.362594472263437329e+00 2.595108798654308302e+01 -1.592215453954122495e+01 1.736690425612611577e+01 -1.362594472263437329e+00 1.736690425612611577e+01 -1.159040374872711112e+02
-9.414310912838611500e+01 2.597588995050060490e+01 -1.398879200656945265e+00 2.597588995050060490e+01 -1.549222692347042596e+01 1.734407999149148694e+01 -1.398879200656945265e+00 1.734407999149148694e+01 -1.143137048837948129e+02
-9.350443333072330176e+01 2.600638284516277920e+01 -1.436778377477305746e+00 2.600638284516277920e+01 -1.498032568852619661e+01 1.730829977823137256e+01 -1.436778377477305746e+00 1.730829977823137256e+01 -1.124231252341346163e+02
-9.276679184449443483e+01 2.604163836268416787e+01 -1.475948932433812200e+00 2.604163836268416787e+01 -1.439242429388789191e+01 1.725988650603113328e+01 -1.475948932433812200e+00 1.725988650603113328e+01 -1.102526607690742395e+02
-9.193605722585219553e+01 2.608056675037664718e+01 -1.516108337051766064e+00 2.608056675037664718e+01 -1.373590884110835830e+01 1.719946577365618268e+01 -1.516108337051766064e+00 1.719946577365618268e+01 -1.078289700682620520e+02
1.090666706453924917e+02 5.197755086277246761e+01 -3.514758302993831762e+01 5.197755086277246761e+01 7.238580898171406375e+01 -4.813249184784858414e+01 -3.514758302993831762e+01 -4.813249184784858414e+01 -1.657220639370827797e+01
1.088380044514557454e+02 5.188339919317680682e+01 -3.482420433516102776e+01 5.188339919317680682e+01 7.236118339159780533e+01 -4.791840726627881963e+01 -3.482420433516102776e+01 -4.791840726627881963e+01 -1.698934587569842591e+01
1.086022174001976026e+02 5.173804193143462982e+01 -3.438203138578561635e+01 5.173804193143462982e+01 7.237054757389874737e+01 -4.760920230659950647e+01 -3.438203138578561635e+01 -4.760920230659950647e+01 -1.743563158753632436e+01
1.083629973819253109e+02 5.154428323377035781e+01 -3.382910276298873242e+01 5.154428323377035781e+01 7.241296680987541379e+01 -4.720895574150070928e+01 -3.382910276298873242e+01 -4.720895574150070928e+01 -1.790011882250363939e+01
1.081244571591013681e+02 5.130349968596687660e+01 -3.317131569228477161e+01 5.130349968596687660e+01 7.249219696937991841e+01 -4.671831337665835804e+01 -3.317131569228477161e+01 -4.671831337665835804e+01 -1.837305251591662625e+01
1.078890270004535950e+02 5.101966809139700842e+01 -3.241954690084724433e+01 5.101966809139700842e+01 7.260427824392564844e+01 -4.614242466259366182e+01 -3.241954690084724433e+01 -4.614242466259366182e+01 -1.884737978999871899e+01
1.076604797707203147e+02 5.069702017672668859e+01 -3.158567581413595704e+01 5.069702017672668859e+01 7.274776606818488744e+01 -4.548650702937264612e+01 -3.158567581413595704e+01 -4.548650702937264612e+01 -1.931230889200745438e+01
1.074429622221364014e+02 5.033977067373565717e+01 -3.068249958146598999e+01 5.033977067373565717e+01 7.292209961091272419e+01 -4.475603283035449920e+01 -3.068249958146598999e+01 -4.475603283035449920e+01 -1.975748993624179661e+01
1.072398903268298227e+02 4.995493847042806834e+01 -2.972550054417337506e+01 4.995493847042806834e+01 7.312160258011550695e+01 -4.395960147796076001e+01 -2.972550054417337506e+01 -4.395960147796076001e+01 -2.017461242334573512e+01
1.070569573716804257e+02 4.954894763379076039e+01 -2.873087482881492249e+01 4.954894763379076039e+01 7.334476243092066738e+01 -4.310662813915100600e+01 -2.873087482881492249e+01 -4.310662813915100600e+01 -2.055118511195594877e+01
1.169801135894527135e+02 3.307710537216883040e+01 -3.226413560565349314e+01 3.307710537216883040e+01 1.896977980286596335e+02 -9.393631730948578706e+01 -3.226413560565349314e+01 -9.393631730948578706e+01 1.705676618469941559e+02
1.166375973805067616e+02 3.307760573823530592e+01 -3.225405010212598711e+01 3.307760573823530592e+01 1.889257175516395648e+02 -9.343518505746529001e+01 -3.225405010212598711e+01 -9.343518505746529001e+01 1.692651620666248675e+02
1.159817581953060994e+02 3.301953200164432900e+01 -3.207213576408091171e+01 3.301953200164432900e+01 1.875405635516634106e+02 -9.238088248251023060e+01 -3.207213576408091171e+01 -9.238088248251023060e+01 1.668018442848983227e+02
1.150195698859023423e+02 3.290488562666183014e+01 -3.171945586940955053e+01 3.290488562666183014e+01 1.855831471360285150e+02 -9.080573010522741129e+01 -3.171945586940955053e+01 -9.080573010522741129e+01 1.632314509446425461e+02
1.137623688709891496e+02 3.273885791122753375e+01 -3.120296863372391272e+01 3.273885791122753375e+01 1.831163893375949385e+02 -8.876603474453553133e+01 -3.120296863372391272e+01 -8.876603474453553133e+01 1.586537268939226806e+02
1.122411622102488451e+02 3.252945471240514763e+01 -3.053829486016194394e+01 3.252945471240514763e+01 1.802383149960742230e+02 -8.634610808263667536e+01 -3.053829486016194394e+01 -8.634610808263667536e+01 1.532281794528691137e+02
1.105027966766556915e+02 3.228784044805303921e+01 -2.975142231130151771e+01 3.228784044805303921e+01 1.770744534483948485e+02 -8.365750047947697965e+01 -2.975142231130151771e+01 -8.365750047947697965e+01 1.471758766042291313e+02
1.086124293139292831e+02 3.202710281809760318e+01 -2.887817407021477933e+01 3.202710281809760318e+01 1.737709115859693441e+02 -8.083007256574789778e+01 -2.887817407021477933e+01 -8.083007256574789778e+01 1.407651552875928189e+02
1.066441768456671753e+02 3.176045461398185665e+01 -2.795972088230938013e+01 3.176045461398185665e+01 1.704738275730893520e+02 -7.799456061275725460e+01 -2.795972088230938013e+01 -7.799456061275725460e+01 1.342770805043664382e+02
1.046704672599924919e+02 3.149915407220162678e+01 -2.703604512358508671e+01 3.149915407220162678e+01 1.673076831052316606e+02 -7.526298407363847787e+01 -2.703604512358508671e+01 -7.526298407363847787e+01 1.279630236571984767e+02
7.917920986838501562e+01 4.755114661075693760e+01 2.542571781834903621e+00 4.755114661075693760e+01 1.981428540673746852e+02 -8.457591625319143702e+01 2.542571781834903621e+00 -8.457591625319143702e+01 2.249155931846880776e+02
7.866868074331860328e+01 4.757350485902013304e+01 2.494460494788315330e+00 4.757350485902013304e+01 1.969314507022610314e+02 -8.414386205317312317e+01 2.494460494788315330e+00 -8.414386205317312317e+01 2.230563374705355670e+02
7.783855182793058702e+01 4.755326243368579497e+01 2.461459972987406264e+00 4.755326243368579497e+01 1.945047123309196593e+02 -8.298428056009325360e+01 2.461459972987406264e+00 -8.298428056009325360e+01 2.194700965547310432e+02
7.670211806928139708e+01 4.749321411578682017e+01 2.444801814853454491e+00 4.749321411578682017e+01 1.909671985013723656e+02 -8.115500953058182176e+01 2.444801814853454491e+00 -8.115500953058182176e+01 2.142842145560900065e+02
7.528262194014182285e+01 4.739964421521640503e+01 2.446633422762021670e+00 4.739964421521640503e+01 1.865007594574378800e+02 -7.876450857432804753e+01 2.446633422762021670e+00 -7.876450857432804753e+01 2.077361057548988867e+02
7.363235900424612623e+01 4.728109497230672531e+01 2.470318007786597825e+00 4.728109497230672531e+01 1.813846522462793018e+02 -7.597492236041016156e+01 2.470318007786597825e+00 -7.597492236041016156e+01 2.001888390498610022e+02
7.182549359216794471e+01 4.714820866059550752e+01 2.518129290089540895e+00 4.714820866059550752e+01 1.759638665333645520e+02 -7.298768038960052706e+01 2.518129290089540895e+00 -7.298768038960052706e+01 1.921171166837622479e+02
6.995016393964539247e+01 4.701230651172448916e+01 2.589830423820606686e+00 4.701230651172448916e+01 1.705910657897095746e+02 -7.000793853738200312e+01 2.589830423820606686e+00 -7.000793853738200312e+01 1.840207149800678792e+02
6.809079769742939447e+01 4.688194655574922365e+01 2.682342412926599362e+00 4.688194655574922365e+01 1.655547598403604468e+02 -6.720232575426416588e+01 2.682342412926599362e+00 -6.720232575426416588e+01 1.763218195617026254e+02
6.631030112334524063e+01 4.676295520058575761e+01 2.790407279532063800e+00 4.676295520058575761e+01 1.610319672737908263e+02 -6.467312786810647651e+01 2.790407279532063800e+00 -6.467312786810647651e+01 1.692957084655454878e+02
4.950063542495566082e+01 -8.503149734037251051e+00 -2.573430478922831455e+01 -8.503149734037251051e+00 -6.282258105339111154e+01 -4.700401558486133524e+01 -2.573430478922831455e+01 -4.700401558486133524e+01 -1.408724619954385027e+01
4.944816106928115573e+01 -8.609659297325585214e+00 -2.540810531547975870e+01 -8.609659297325585214e+00 -6.285439270244024357e+01 -4.689395694156809924e+01 -2.540810531547975870e+01 -4.689395694156809924e+01 -1.421965847239672520e+01
4.936092059481522654e+01 -8.721669005542976194e+00 -2.502918992563752099e+01 -8.721669005542976194e+00 -6.284984021761719930e+01 -4.671358563472234948e+01 -2.502918992563752099e+01 -4.671358563472234948e+01 -1.436143585688556001e+01
4.924001031422952934e+01 -8.837710914603627899e+00 -2.460001138703481871e+01 -8.837710914603627899e+00 -6.281001991159367748e+01 -4.646368209029373730e+01 -2.460001138703481871e+01 -4.646368209029373730e+01 -1.451222530316693415e+01
4.908860767611484732e+01 -8.955425165027842027e+00 -2.412417452438867826e+01 -8.955425165027842027e+00 -6.273504327379387036e+01 -4.614502673425192825e+01 -2.412417452438867826e+01 -4.614502673425192825e+01 -1.466801319196829390e+01
4.890916544780440489e+01 -9.072842110320758380e+00 -2.360593451739083193e+01 -9.072842110320758380e+00 -6.262643399301573055e+01 -4.576010949707155362e+01 -2.360593451739083193e+01 -4.576010949707155362e+01 -1.482638391909782527e+01
4.870599455370206243e+01 -9.187230259588551107e+00 -2.305032697170267753e+01 -9.187230259588551107e+00 -6.248543703449656306e+01 -4.531132740137374526e+01 -2.305032697170267753e+01 -4.531132740137374526e+01 -1.498310088643450122e+01
4.848318293936318213e+01 -9.296396987487883123e+00 -2.246190437214724867e+01 -9.296396987487883123e+00 -6.231314871090803109e+01 -4.480178356946642992e+01 -2.246190437214724867e+01 -4.480178356946642992e+01 -1.513307274360480115e+01
4.824591486301483911e+01 -9.397387824276453472e+00 -2.184668714763338571e+01 -9.397387824276453472e+00 -6.211226335000256427e+01 -4.423593757831911688e+01 -2.184668714763338571e+01 -4.423593757831911688e+01 -1.527245310547252366e+01
4.799937458288405878e+01 -9.487657094767509847e+00 -2.121134608204462779e+01 -9.487657094767509847e+00 -6.188614421607797311e+01 -4.361938248071440682e+01 -2.121134608204462779e+01 -4.361938248071440682e+01 -1.539706111862876448e+01