-3.430637590300000284e+02
-3.430602037200000041e+02
-3.430517821999999910e+02
-3.430387104600000043e+02
-3.430213051599999972e+02
-3.429999723600000152e+02
-3.429751896399999964e+02
-3.429474858899999958e+02
-3.429174213300000247e+02
-3.428855689299999767e+02
-3.423905960299999833e+02
-3.423901025299999787e+02
-3.423852472400000124e+02
-3.423761858199999892e+02
-3.423631760600000007e+02
-3.423465683200000171e+02
-3.423267832700000213e+02
-3.423043013999999857e+02
-3.422796349600000099e+02
-3.422533154199999785e+02
-3.425629223299999921e+02
-3.425653742800000146e+02
-3.425642486799999915e+02
-3.425598287299999924e+02
-3.425525319600000103e+02
-3.425428845000000138e+02
-3.425315006199999743e+02
-3.425190457599999831e+02
-3.425062065399999938e+02
-3.424936602700000208e+02
-3.419171485200000120e+02
-3.419148886799999900e+02
-3.419137547299999937e+02
-3.419137573900000007e+02
-3.419149064800000133e+02
-3.419172147799999948e+02
-3.419206871700000079e+02
-3.419253309800000125e+02
-3.419311432299999751e+02
-3.419381192299999839e+02
-3.420165987899999891e+02
-3.420133385500000145e+02
-3.420088802899999791e+02
-3.420033756700000254e+02
-3.419970722300000148e+02
-3.419902981000000182e+02
-3.419834393799999930e+02
-3.419769295300000067e+02
-3.419712276199999792e+02
-3.419667941299999825e+02
-3.423069220400000177e+02
-3.423047287300000221e+02
-3.422988337400000205e+02
-3.422894343699999808e+02
-3.422768346999999949e+02
-3.422614392199999998e+02
-3.422437258400000246e+02
-3.422242331300000160e+02
-3.422035382099999765e+02
-3.421822405199999935e+02
-3.425352175200000033e+02
-3.425337380199999870e+02
-3.425292767099999764e+02
-3.425219158900000025e+02
-3.425118159500000274e+02
-3.424992096400000037e+02
-3.424843904699999939e+02
-3.424677039700000023e+02
-3.424495326399999726e+02
-3.424302828200000022e+02
-3.417754782800000157e+02
-3.417766872500000090e+02
-3.417783775500000161e+02
-3.417804816699999719e+02
-3.417829388100000187e+02
-3.417856957299999863e+02
-3.417887090899999976e+02
-3.417919384699999910e+02
-3.417953507799999784e+02
-3.417989027300000089e+02
-3.424861602199999879e+02
-3.424869853100000228e+02
-3.424828004999999962e+02
-3.424737680200000227e+02
-3.424601968599999964e+02
-3.424425299200000268e+02
-3.424213202799999749e+02
-3.423971998000000099e+02
-3.423708563999999797e+02
-3.423430079099999830e+02
-3.422250325599999883e+02
-3.422243250500000045e+02
-3.422208329100000128e+02
-3.422146425000000249e+02
-3.422059322900000211e+02
-3.421949583499999790e+02
-3.421820574999999849e+02
-3.421676227099999892e+02
-3.421521054400000139e+02
-3.421359887099999924e+02
-3.428468186599999967e+02
-3.428457053800000267e+02
-3.428400961400000142e+02
-3.428301213299999972e+02
-3.428160208099999977e+02
-3.427981375800000023e+02
-3.427769030200000202e+02
-3.427528078999999934e+02
-3.427263866600000028e+02
-3.426982010199999991e+02
-3.419618205900000021e+02
-3.419671730100000104e+02
-3.419716495900000268e+02
-3.419753479999999968e+02
-3.419785286499999870e+02
-3.419815934999999740e+02
-3.419850410399999987e+02
-3.419894440400000235e+02
-3.419953969100000108e+02
-3.420034739000000172e+02
-3.423969310900000096e+02
-3.423982103600000073e+02
-3.423986619799999858e+02
-3.423984473400000184e+02
-3.423978213899999901e+02
-3.423970969599999989e+02
-3.423966452299999901e+02
-3.423968503300000066e+02
-3.423980911699999865e+02
-3.424007156000000123e+02
-3.414049770400000057e+02
-3.414005078299999809e+02
-3.413971017599999982e+02
-3.413949127700000190e+02
-3.413941127100000017e+02
-3.413948873300000173e+02
-3.413974250399999733e+02
-3.414019201799999905e+02
-3.414085606799999937e+02
-3.414175272599999857e+02
-3.424007318399999917e+02
-3.423952929499999982e+02
-3.423848947299999850e+02
-3.423698122999999782e+02
-3.423504635400000211e+02
-3.423273861999999781e+02
-3.423012173899999766e+02
-3.422726557299999968e+02
-3.422424436499999842e+02
-3.422113333899999930e+02
-3.422678468099999805e+02
-3.422686970099999826e+02
-3.422672269000000256e+02
-3.422634991200000059e+02
-3.422576240399999961e+02
-3.422497671599999762e+02
-3.422401470300000028e+02
-3.422290216600000008e+02
-3.422166795900000125e+02
-3.422034326500000248e+02
-3.426470680799999968e+02
-3.426429096300000197e+02
-3.426341412500000274e+02
-3.426210167799999908e+02
-3.426039059299999963e+02
-3.425832912100000271e+02
-3.425597302499999728e+02
-3.425338466700000026e+02
-3.425062886000000049e+02
-3.424777194299999792e+02
-3.413461332499999799e+02
-3.413512941800000249e+02
-3.413604253799999810e+02
-3.413734658700000182e+02
-3.413903825400000187e+02
-3.414111383900000192e+02
-3.414356861499999809e+02
-3.414639366299999779e+02
-3.414957302199999845e+02
-3.415308195000000069e+02
-3.425171206399999733e+02
-3.425213571599999796e+02
-3.425239726300000029e+02
-3.425250285600000097e+02
-3.425246731700000282e+02
-3.425231362000000104e+02
-3.425207152599999745e+02
-3.425177562200000239e+02
-3.425146371100000238e+02
-3.425117433899999924e+02
-3.416576735699999858e+02
-3.416622103999999922e+02
-3.416680296999999769e+02
-3.416752108100000100e+02
-3.416838468500000090e+02
-3.416940416599999821e+02
-3.417058966299999838e+02
-3.417195045400000026e+02
-3.417349434800000267e+02
-3.417522690700000112e+02
-3.411854160899999897e+02
-3.411844926900000132e+02
-3.411802084500000092e+02
-3.411729404499999987e+02
-3.411632020800000191e+02
-3.411516145100000017e+02
-3.411388669300000061e+02
-3.411256734199999983e+02
-3.411127345599999785e+02
-3.411006976799999961e+02
-3.426766867000000047e+02
-3.426772561799999721e+02
-3.426735752600000069e+02
-3.426658645200000137e+02
-3.426544772600000215e+02
-3.426398887600000194e+02
-3.426226566999999932e+02
-3.426034094099999834e+02
-3.425828139000000192e+02
-3.425615415400000074e+02
-3.422998941399999921e+02
-3.422961453500000175e+02
-3.422868338399999857e+02
-3.422721946199999934e+02
-3.422526007000000163e+02
-3.422285450699999956e+02
-3.422006177999999750e+02
-3.421694779300000278e+02
-3.421358317199999988e+02
-3.421004078099999788e+02
-3.423677560400000175e+02
-3.423753886000000080e+02
-3.423806453400000009e+02
-3.423834871500000077e+02
-3.423839526699999851e+02
-3.423821677099999761e+02
-3.423783306299999936e+02
-3.423727058700000043e+02
-3.423656126399999948e+02
-3.423574100299999827e+02
-3.425543975400000249e+02
-3.425511445299999878e+02
-3.425436756500000115e+02
-3.425322013399999719e+02
-3.425170394699999861e+02
-3.424986172000000124e+02
-3.424774323400000071e+02
-3.424540543100000036e+02
-3.424290788399999883e+02
-3.424031227300000069e+02
-3.429176800399999934e+02
-3.429132465900000284e+02
-3.429039372199999889e+02
-3.428899616799999990e+02
-3.428716362000000117e+02
-3.428493686400000229e+02
-3.428236399400000209e+02
-3.427949821000000270e+02
-3.427639609899999869e+02
-3.427311602699999753e+02
-3.420946694799999932e+02
-3.420888736499999823e+02
-3.420803409399999850e+02
-3.420692846399999780e+02
-3.420559800999999993e+02
-3.420407531999999833e+02
-3.420239657999999849e+02
-3.420060045700000160e+02
-3.419872662999999875e+02
-3.419681445200000098e+02
-3.422258425699999975e+02
-3.422179474999999798e+02
-3.422056436799999801e+02
-3.421891873499999974e+02
-3.421689318800000024e+02
-3.421453203400000120e+02
-3.421188579600000139e+02
-3.420901019500000189e+02
-3.420596360800000184e+02
-3.420280558499999870e+02
-3.425088012699999922e+02
-3.425067444399999772e+02
-3.425013240399999859e+02
-3.424927612600000089e+02
-3.424813815300000215e+02
-3.424676113699999860e+02
-3.424519460099999719e+02
-3.424349454300000275e+02
-3.424172039399999790e+02
-3.423993356099999801e+02
-3.407453792499999849e+02
-3.407671577400000160e+02
-3.407929075999999782e+02
-3.408224066899999798e+02
-3.408554464700000040e+02
-3.408918228599999907e+02
-3.409313077099999987e+02
-3.409736385599999835e+02
-3.410184984300000224e+02
-3.410654992799999832e+02
-3.428811538599999835e+02
-3.428790858200000002e+02
-3.428725615600000083e+02
-3.428617935299999999e+02
-3.428470978500000115e+02
-3.428288795500000106e+02
-3.428076230500000179e+02
-3.427838592699999936e+02
-3.427581535400000234e+02
-3.427310764000000063e+02
-3.420497971300000017e+02
-3.420477767300000096e+02
-3.420416466500000183e+02
-3.420316453400000114e+02
-3.420181280499999730e+02
-3.420015541999999868e+02
-3.419824692799999752e+02
-3.419614737499999819e+02
-3.419392092900000080e+02
-3.419163310600000045e+02
-3.422361693099999798e+02
-3.422366443500000059e+02
-3.422333689100000242e+02
-3.422265421399999923e+02
-3.422164619499999958e+02
-3.422035258099999737e+02
-3.421882046599999967e+02
-3.421710256999999729e+02
-3.421525514799999996e+02
-3.421333624299999769e+02
-3.422121733100000256e+02
-3.422128193500000179e+02
-3.422146417499999984e+02
-3.422177093899999818e+02
-3.422221211199999971e+02
-3.422280006299999968e+02
-3.422354873300000122e+02
-3.422447116700000151e+02
-3.422557895499999745e+02
-3.422688001399999962e+02
-3.423475918099999831e+02
-3.423454958899999951e+02
-3.423392544100000237e+02
-3.423290360099999816e+02
-3.423151198300000146e+02
-3.422978853700000172e+02
-3.422777982200000224e+02
-3.422553892899999823e+02
-3.422312403899999822e+02
-3.422059598600000072e+02
-3.415710525200000234e+02
-3.415705774599999813e+02
-3.415665319400000044e+02
-3.415590482299999735e+02
-3.415483509700000013e+02
-3.415347473799999989e+02
-3.415186052700000232e+02
-3.415003532200000222e+02
-3.414804547200000115e+02
-3.414593902999999955e+02
-3.417106904999999983e+02
-3.417183629599999790e+02
-3.417238940099999809e+02
-3.417272307299999738e+02
-3.417284049799999934e+02
-3.417275364199999785e+02
-3.417248279899999943e+02
-3.417205588599999828e+02
-3.417150679499999910e+02
-3.417087441699999886e+02
-3.420123227799999768e+02
-3.420099526299999866e+02
-3.420047059099999842e+02
-3.419967477399999893e+02
-3.419863273799999774e+02
-3.419737708000000111e+02
-3.419594715200000223e+02
-3.419438729600000215e+02
-3.419274625099999980e+02
-3.419107516999999916e+02
-3.426277000900000189e+02
-3.426213882999999782e+02
-3.426112665300000231e+02
-3.425976137299999777e+02
-3.425808104899999762e+02
-3.425613271199999872e+02
-3.425397038300000077e+02
-3.425165324199999759e+02
-3.424924348499999951e+02
-3.424680460899999730e+02
-3.424838426399999776e+02
-3.424883519200000137e+02
-3.424890610799999990e+02
-3.424861049500000263e+02
-3.424797483500000226e+02
-3.424703788400000235e+02
-3.424584752999999751e+02
-3.424446004000000130e+02
-3.424293581100000097e+02
-3.424133848700000158e+02
-3.423921462800000199e+02
-3.423888674699999797e+02
-3.423828281400000151e+02
-3.423742337099999986e+02
-3.423633707100000265e+02
-3.423505973300000278e+02
-3.423363374499999736e+02
-3.423210506500000179e+02
-3.423052313499999855e+02
-3.422893901099999994e+02
-3.425978676999999948e+02
-3.425937172000000146e+02
-3.425841702100000248e+02
-3.425694529300000113e+02
-3.425499267700000132e+02
-3.425260758399999759e+02
-3.424984873199999811e+02
-3.424678206300000056e+02
-3.424347854200000256e+02
-3.424001150899999857e+02
-3.420031988299999739e+02
-3.420030139699999836e+02
-3.420015377500000113e+02
-3.419989022600000226e+02
-3.419952808699999878e+02
-3.419908997599999907e+02
-3.419860213800000110e+02
-3.419809381599999938e+02
-3.419759673600000269e+02
-3.419714433600000234e+02
-3.423348761600000216e+02
-3.423310015199999725e+02
-3.423238193500000079e+02
-3.423135954399999719e+02
-3.423007246500000065e+02
-3.422857148800000004e+02
-3.422691527299999734e+02
-3.422516841099999851e+02
-3.422339834699999983e+02
-3.422167195200000265e+02
-3.418466015500000026e+02
-3.418692033300000048e+02
-3.418919586800000161e+02
-3.419145202500000096e+02
-3.419366202300000168e+02
-3.419580707700000062e+02
-3.419787595600000145e+02
-3.419986443999999892e+02
-3.420177392499999769e+02
-3.420361021900000082e+02
-3.421926028299999984e+02
-3.421935967200000164e+02
-3.421911647900000162e+02
-3.421854140699999789e+02
-3.421765714200000161e+02
-3.421649674899999809e+02
-3.421510280800000032e+02
-3.421352523499999734e+02
-3.421181918500000165e+02
-3.421004322699999989e+02
-3.424040743499999735e+02
-3.424019879499999774e+02
-3.423974995199999967e+02
-3.423907864999999902e+02
-3.423821205699999837e+02
-3.423718409900000097e+02
-3.423603471800000193e+02
-3.423480771100000197e+02
-3.423354847800000016e+02
-3.423230192500000157e+02
-3.415390904800000271e+02
-3.415397545499999978e+02
-3.415404750100000228e+02
-3.415414386300000160e+02
-3.415428809699999988e+02
-3.415450761499999999e+02
-3.415483155800000077e+02
-3.415528950799999848e+02
-3.415590827899999908e+02
-3.415671213200000125e+02
-3.419313879300000281e+02
-3.419285682400000042e+02
-3.419221470200000113e+02
-3.419122830000000022e+02
-3.418992481799999723e+02
-3.418834087899999759e+02
-3.418652131399999803e+02
-3.418451660900000206e+02
-3.418238217800000029e+02
-3.418017427400000088e+02
-3.421436491700000033e+02
-3.421373325299999806e+02
-3.421305258799999933e+02
-3.421235385599999859e+02
-3.421167476800000031e+02
-3.421105886899999859e+02
-3.421055299899999795e+02
-3.421020560499999874e+02
-3.421006404600000224e+02
-3.421017287199999828e+02
-3.419680989600000203e+02
-3.419648451300000147e+02
-3.419570277500000088e+02
-3.419448981099999969e+02
-3.419288314600000263e+02
-3.419092985999999996e+02
-3.418868510400000105e+02
-3.418620966500000122e+02
-3.418356745899999964e+02
-3.418082403899999804e+02
-3.421343307099999720e+02
-3.421359168600000089e+02
-3.421369624899999735e+02
-3.421375010900000007e+02
-3.421376253700000234e+02
-3.421374863500000174e+02
-3.421372825799999760e+02
-3.421372393600000237e+02
-3.421376022300000272e+02
-3.421386249099999759e+02
-3.423766908599999965e+02
-3.423799676799999929e+02
-3.423779518200000211e+02
-3.423707681099999718e+02
-3.423587029199999847e+02
-3.423421918000000232e+02
-3.423217922900000190e+02
-3.422981589099999837e+02
-3.422720087000000149e+02
-3.422440846299999748e+02
-3.426154701400000135e+02
-3.426094904500000098e+02
-3.426015240599999743e+02
-3.425918344199999979e+02
-3.425807670099999882e+02
-3.425687341600000195e+02
-3.425561902399999781e+02
-3.425436182099999769e+02
-3.425314971000000241e+02
-3.425202878499999883e+02
-3.421795840600000247e+02
-3.421782396199999994e+02
-3.421725056399999971e+02
-3.421625167899999838e+02
-3.421485155500000133e+02
-3.421308415999999966e+02
-3.421099149699999771e+02
-3.420862195899999847e+02
-3.420602893799999720e+02
-3.420326805099999774e+02
-3.425688392900000281e+02
-3.425641910800000005e+02
-3.425543369800000164e+02
-3.425395318199999792e+02
-3.425201998900000149e+02
-3.424969037600000092e+02
-3.424703254099999867e+02
-3.424412272800000210e+02
-3.424104275500000085e+02
-3.423787600100000077e+02
-3.426860118999999827e+02
-3.426905545000000188e+02
-3.426907636000000252e+02
-3.426867643400000247e+02
-3.426788218500000198e+02
-3.426673325300000101e+02
-3.426528066800000261e+02
-3.426358438400000068e+02
-3.426171108099999856e+02
-3.425973173500000257e+02
-3.411673773599999890e+02
-3.411762985699999717e+02
-3.411873025099999950e+02
-3.412002718900000104e+02
-3.412150806299999886e+02
-3.412316093399999772e+02
-3.412497448500000132e+02
-3.412693765999999869e+02
-3.412904041900000038e+02
-3.413127387299999782e+02
-3.422803432300000281e+02
-3.422864618899999982e+02
-3.422885630800000172e+02
-3.422867141199999992e+02
-3.422810953900000186e+02
-3.422719973000000095e+02
-3.422598015199999963e+02
-3.422449720999999840e+02
-3.422280320699999834e+02
-3.422095471100000168e+02
-3.426340749799999799e+02
-3.426354633600000170e+02
-3.426322520300000178e+02
-3.426246193000000062e+02
-3.426128814300000158e+02
-3.425974810999999818e+02
-3.425789710500000069e+02
-3.425579844499999922e+02
-3.425352081400000088e+02
-3.425113637300000278e+02
-3.422688077700000235e+02
-3.422689610599999810e+02
-3.422654206099999783e+02
-3.422583487699999978e+02
-3.422480168399999911e+02
-3.422347887099999753e+02
-3.422191046500000198e+02
-3.422014717700000119e+02
-3.421824387199999933e+02
-3.421625763200000279e+02
-3.418446023700000183e+02
-3.418513562800000045e+02
-3.418576387599999862e+02
-3.418634245000000078e+02
-3.418687638399999855e+02
-3.418737624799999821e+02
-3.418785912000000167e+02
-3.418834799200000134e+02
-3.418887018600000260e+02
-3.418945676299999832e+02
-3.420284473300000059e+02
-3.420354982100000143e+02
-3.420381274999999732e+02
-3.420364339500000028e+02
-3.420306546599999820e+02
-3.420211528099999896e+02
-3.420084118799999828e+02
-3.419930003700000043e+02
-3.419755571499999860e+02
-3.419567640399999959e+02
-3.427948252099999991e+02
-3.427898209200000110e+02
-3.427802454800000191e+02
-3.427663266499999963e+02
-3.427484031899999763e+02
-3.427269036899999719e+02
-3.427023297700000057e+02
-3.426752315900000099e+02
-3.426461989800000083e+02
-3.426158317200000170e+02
-3.423803022600000077e+02
-3.423849768300000278e+02
-3.423861708599999929e+02
-3.423839643399999773e+02
-3.423785522900000160e+02
-3.423702532300000030e+02
-3.423594639400000119e+02
-3.423466637299999888e+02
-3.423323700600000166e+02
-3.423171213699999953e+02
-3.424017479799999819e+02
-3.424066902499999969e+02
-3.424090793799999801e+02
-3.424089768299999719e+02
-3.424065492099999801e+02
-3.424020562100000120e+02
-3.423958362299999862e+02
-3.423882851199999777e+02
-3.423798368199999800e+02
-3.423709443999999849e+02
-3.424543346699999802e+02
-3.424545465200000081e+02
-3.424503069799999935e+02
-3.424417896699999915e+02
-3.424292757900000197e+02
-3.424131390000000010e+02
-3.423938265099999967e+02
-3.423718347999999878e+02
-3.423476906000000213e+02
-3.423219318999999814e+02
-3.418117290999999796e+02
-3.418152895900000203e+02
-3.418154573400000231e+02
-3.418123141500000202e+02
-3.418060535199999777e+02
-3.417969657099999949e+02
-3.417854332499999828e+02
-3.417719027699999970e+02
-3.417568718399999739e+02
-3.417408698400000162e+02
-3.420915647499999750e+02
-3.420969693600000028e+02
-3.421007322500000214e+02
-3.421029073700000254e+02
-3.421036790399999745e+02
-3.421033448100000101e+02
-3.421022976200000016e+02
-3.421009940700000129e+02
-3.420999347299999727e+02
-3.420996184399999720e+02
-3.423472413200000233e+02
-3.423475990700000011e+02
-3.423457706099999882e+02
-3.423418580399999769e+02
-3.423360432499999888e+02
-3.423285779299999945e+02
-3.423197798499999749e+02
-3.423100203899999769e+02
-3.422997048799999789e+02
-3.422892683300000272e+02
-3.426349375899999927e+02
-3.426338225800000146e+02
-3.426298249499999997e+02
-3.426231043099999738e+02
-3.426138943600000175e+02
-3.426025012700000048e+02
-3.425892936800000257e+02
-3.425746863100000041e+02
-3.425591250800000012e+02
-3.425430743499999835e+02
-3.421218386900000041e+02
-3.421234105799999838e+02
-3.421225040300000160e+02
-3.421191553599999793e+02
-3.421134760900000060e+02
-3.421056555700000104e+02
-3.420959522599999900e+02
-3.420846802799999864e+02
-3.420722012499999778e+02
-3.420589000100000021e+02
-3.424403840100000025e+02
-3.424409291700000040e+02
-3.424386988599999881e+02
-3.424338655299999914e+02
-3.424267073099999834e+02
-3.424175992500000234e+02
-3.424069878700000231e+02
-3.423953658500000188e+02
-3.423832518799999889e+02
-3.423711583200000064e+02
-3.420932741999999962e+02
-3.420979903200000081e+02
-3.420995292399999812e+02
-3.420980885499999999e+02
-3.420940188800000215e+02
-3.420878071899999782e+02
-3.420800430699999879e+02
-3.420713929799999846e+02
-3.420625573699999791e+02
-3.420542349400000148e+02
-3.423267573599999878e+02
-3.423241193800000133e+02
-3.423183263099999749e+02
-3.423096042700000226e+02
-3.422982577899999797e+02
-3.422846565599999735e+02
-3.422692245100000150e+02
-3.422524255000000153e+02
-3.422347479200000180e+02
-3.422166891400000281e+02
-3.419961944799999856e+02
-3.419930924299999901e+02
-3.419893779999999879e+02
-3.419851677600000244e+02
-3.419806517600000006e+02
-3.419760854599999789e+02
-3.419717828700000268e+02
-3.419680996399999913e+02
-3.419654207799999881e+02
-3.419641337900000053e+02
-3.419335085499999991e+02
-3.419308300299999814e+02
-3.419257739700000229e+02
-3.419184865600000194e+02
-3.419092072500000086e+02
-3.418982602899999961e+02
-3.418860343299999727e+02
-3.418729568399999721e+02
-3.418594867099999988e+02
-3.418460829100000069e+02
-3.421362602599999718e+02
-3.421479502500000081e+02
-3.421602189100000260e+02
-3.421729595400000221e+02
-3.421860817900000029e+02
-3.421995127299999808e+02
-3.422131972199999836e+02
-3.422271083399999725e+02
-3.422412314499999866e+02
-3.422555711499999802e+02
-3.426415284000000270e+02
-3.426359335999999871e+02
-3.426262484000000086e+02
-3.426127509799999871e+02
-3.425958578099999841e+02
-3.425761089999999740e+02
-3.425541412000000037e+02
-3.425306571200000008e+02
-3.425064010899999971e+02
-3.424821256500000004e+02
-3.421403162999999950e+02
-3.421389777599999888e+02
-3.421344011300000147e+02
-3.421267344999999978e+02
-3.421162182699999903e+02
-3.421031767900000204e+02
-3.420879957500000046e+02
-3.420711138500000175e+02
-3.420530065599999716e+02
-3.420341649900000220e+02
-3.416972215600000027e+02
-3.416987098600000081e+02
-3.417033448099999760e+02
-3.417112357299999985e+02
-3.417225023400000055e+02
-3.417372441300000219e+02
-3.417555398700000069e+02
-3.417774261000000138e+02
-3.418028778600000237e+02
-3.418317937799999982e+02
-3.423521605700000237e+02
-3.423619965600000228e+02
-3.423687409600000251e+02
-3.423722382799999764e+02
-3.423724092100000007e+02
-3.423692651900000214e+02
-3.423628977199999781e+02
-3.423534736999999950e+02
-3.423412231500000189e+02
-3.423264339599999744e+02
-3.416196378700000196e+02
-3.416269645699999842e+02
-3.416376263000000222e+02
-3.416514607199999887e+02
-3.416683398100000204e+02
-3.416881724500000246e+02
-3.417108878299999901e+02
-3.417364145299999905e+02
-3.417646653699999888e+02
-3.417955049199999848e+02
-3.410033574600000179e+02
-3.410189948899999877e+02
-3.410389679500000284e+02
-3.410629910399999858e+02
-3.410907959099999971e+02
-3.411221090899999808e+02
-3.411566548399999874e+02
-3.411941299000000072e+02
-3.412341979799999763e+02
-3.412764704699999925e+02
-3.416936772299999916e+02
-3.417128063700000098e+02
-3.417299952600000097e+02
-3.417449066600000265e+02
-3.417573162400000228e+02
-3.417671219499999893e+02
-3.417743409500000098e+02
-3.417790939800000274e+02
-3.417816030299999852e+02
-3.417821650700000191e+02
-3.409404098699999963e+02
-3.409350630499999966e+02
-3.409351338499999997e+02
-3.409408787899999993e+02
-3.409525001399999837e+02
-3.409701255900000092e+02
-3.409937870200000134e+02
-3.410233933600000000e+02
-3.410587213599999927e+02
-3.410993917900000270e+02
-3.412864269500000205e+02
-3.412891508499999986e+02
-3.412949309300000209e+02
-3.413037193800000182e+02
-3.413154454900000019e+02
-3.413300217500000144e+02
-3.413473412800000233e+02
-3.413672773000000120e+02
-3.413896928899999921e+02
-3.414144317600000136e+02
-3.424307782700000189e+02
-3.424344715899999869e+02
-3.424357443000000103e+02
-3.424345970699999953e+02
-3.424310904899999741e+02
-3.424253482699999722e+02
-3.424175466500000198e+02
-3.424079140599999960e+02
-3.423967155700000262e+02
-3.423842480399999886e+02
-3.412412959200000273e+02
-3.412346307700000239e+02
-3.412314567899999815e+02
-3.412316926799999806e+02
-3.412352334999999925e+02
-3.412419527800000196e+02
-3.412517118399999845e+02
-3.412643634899999938e+02
-3.412797446100000229e+02
-3.412976844300000039e+02
-3.425287212800000134e+02
-3.425391942699999959e+02
-3.425460129800000004e+02
-3.425492072100000200e+02
-3.425489329000000112e+02
-3.425454634700000156e+02
-3.425391760699999963e+02
-3.425305351900000232e+02
-3.425200646900000265e+02
-3.425083197199999745e+02
-3.423015239100000144e+02
-3.423010314800000060e+02
-3.422966779800000268e+02
-3.422886350499999821e+02
-3.422772119399999724e+02
-3.422628291500000159e+02
-3.422460135900000182e+02
-3.422273553200000151e+02
-3.422074934400000075e+02
-3.421870821699999965e+02
-3.422799919700000260e+02
-3.422738658700000087e+02
-3.422637182999999936e+02
-3.422498344699999961e+02
-3.422326076599999851e+02
-3.422125295000000165e+02
-3.421901527399999736e+02
-3.421660778799999889e+02
-3.421409185399999728e+02
-3.421152940800000124e+02
-3.426735396899999841e+02
-3.426715901100000110e+02
-3.426647766099999899e+02
-3.426532851900000196e+02
-3.426374426900000003e+02
-3.426176885900000002e+02
-3.425945589899999959e+02
-3.425686615999999844e+02
-3.425406494499999894e+02
-3.425111959800000250e+02
-3.422190466399999877e+02
-3.422164338200000202e+02
-3.422089682999999809e+02
-3.421969160900000020e+02
-3.421806935600000088e+02
-3.421608438399999841e+02
-3.421380133399999863e+02
-3.421129134000000249e+02
-3.420862978299999781e+02
-3.420589276200000199e+02
-3.417651158599999803e+02
-3.417686856700000249e+02
-3.417733466000000249e+02
-3.417791628900000092e+02
-3.417862638400000037e+02
-3.417948266399999966e+02
-3.418050642000000039e+02
-3.418171894399999928e+02
-3.418313941200000272e+02
-3.418478237300000160e+02
-3.419104448100000013e+02
-3.419181448799999998e+02
-3.419238976299999990e+02
-3.419276053799999886e+02
-3.419292663900000093e+02
-3.419289693900000202e+02
-3.419268904699999894e+02
-3.419232911899999863e+02
-3.419185032799999817e+02
-3.419129176700000130e+02
-3.426802632600000038e+02
-3.426887532200000237e+02
-3.426941003700000010e+02
-3.426963519500000075e+02
-3.426956723800000191e+02
-3.426923329599999875e+02
-3.426867020500000081e+02
-3.426792139699999780e+02
-3.426703524199999720e+02
-3.426606292199999757e+02
-3.426341287899999770e+02
-3.426341696599999977e+02
-3.426295831200000066e+02
-3.426205981800000018e+02
-3.426076347299999725e+02
-3.425912695100000178e+02
-3.425722159000000033e+02
-3.425512891399999944e+02
-3.425293610400000262e+02
-3.425073361400000067e+02
-3.414568680500000255e+02
-3.414769975099999897e+02
-3.415023251000000073e+02
-3.415324767600000087e+02
-3.415670999199999756e+02
-3.416058562700000039e+02
-3.416484207699999729e+02
-3.416944710999999870e+02
-3.417436737200000039e+02
-3.417956668100000002e+02
-3.413649933899999951e+02
-3.413693663600000150e+02
-3.413760785000000055e+02
-3.413852752899999814e+02
-3.413971059599999762e+02
-3.414117124800000056e+02
-3.414292046599999821e+02
-3.414496458799999914e+02
-3.414730263499999978e+02
-3.414992661699999985e+02
-3.426443532800000185e+02
-3.426379943599999933e+02
-3.426267848599999866e+02
-3.426110509100000172e+02
-3.425912602799999718e+02
-3.425680086200000005e+02
-3.425419812499999921e+02
-3.425139222600000153e+02
-3.424846071900000197e+02
-3.424548181100000193e+02
-3.427400075099999981e+02
-3.427340098999999896e+02
-3.427225346800000239e+02
-3.427058920499999886e+02
-3.426845300100000031e+02
-3.426590107700000090e+02
-3.426299839900000279e+02
-3.425981625699999995e+02
-3.425642878799999949e+02
-3.425291088999999829e+02
-3.421833331199999861e+02
-3.421727094400000055e+02
-3.421601516900000206e+02
-3.421459199199999830e+02
-3.421303180599999791e+02
-3.421136836800000083e+02
-3.420963787100000104e+02
-3.420787768000000142e+02
-3.420612534200000141e+02
-3.420441745599999877e+02
-3.426207654099999900e+02
-3.426220265700000027e+02
-3.426191882900000110e+02
-3.426123477099999945e+02
-3.426016956999999934e+02
-3.425875098000000207e+02
-3.425701420600000233e+02
-3.425500026199999866e+02
-3.425275437399999987e+02
-3.425032432400000175e+02
-3.422496033300000136e+02
-3.422487555100000236e+02
-3.422446501100000091e+02
-3.422374892899999850e+02
-3.422275816999999734e+02
-3.422153270200000179e+02
-3.422011970199999951e+02
-3.421857116599999813e+02
-3.421694137200000227e+02
-3.421528504899999916e+02
-3.418218124499999817e+02
-3.418251474400000234e+02
-3.418275120199999719e+02
-3.418289762200000155e+02
-3.418296625400000153e+02
-3.418297425700000076e+02
-3.418294256300000029e+02
-3.418289617600000270e+02
-3.418286284900000283e+02
-3.418287217700000156e+02
-3.418865579499999967e+02
-3.418810783499999957e+02
-3.418739117000000078e+02
-3.418652294400000073e+02
-3.418552430999999956e+02
-3.418441912299999785e+02
-3.418323335000000043e+02
-3.418199359899999763e+02
-3.418072685700000193e+02
-3.417945870500000183e+02
-3.409601253499999984e+02
-3.409618563799999720e+02
-3.409676493100000130e+02
-3.409774492500000065e+02
-3.409911624599999982e+02
-3.410086631300000022e+02
-3.410297937099999785e+02
-3.410543562500000121e+02
-3.410821230099999752e+02
-3.411128342900000234e+02
-3.418453227100000049e+02
-3.418455513700000097e+02
-3.418413537999999789e+02
-3.418328670099999727e+02
-3.418203412199999889e+02
-3.418041270900000086e+02
-3.417846631300000126e+02
-3.417624555200000032e+02
-3.417380658299999823e+02
-3.417120911100000171e+02
-3.419897374999999897e+02
-3.419838495800000260e+02
-3.419781960600000161e+02
-3.419728532699999732e+02
-3.419679306699999870e+02
-3.419635664200000065e+02
-3.419599235000000022e+02
-3.419571846499999879e+02
-3.419555446599999868e+02
-3.419552127700000028e+02
-3.416745922299999734e+02
-3.416624078400000144e+02
-3.416521265399999834e+02
-3.416439469800000097e+02
-3.416380436399999780e+02
-3.416345742999999970e+02
-3.416336761900000170e+02
-3.416354586400000244e+02
-3.416400091200000020e+02
-3.416473738199999843e+02
-3.422122879699999771e+02
-3.422186895500000219e+02
-3.422242640100000131e+02
-3.422289666400000101e+02
-3.422327892000000134e+02
-3.422357670999999755e+02
-3.422379711699999802e+02
-3.422395096899999771e+02
-3.422405193800000234e+02
-3.422411602299999913e+02
-3.411371640500000240e+02
-3.411216633399999978e+02
-3.411093210099999737e+02
-3.411004046099999982e+02
-3.410951530699999807e+02
-3.410937783800000034e+02
-3.410964609700000096e+02
-3.411033421700000190e+02
-3.411145235800000250e+02
-3.411300574100000063e+02
-3.425946605099999829e+02
-3.425884092100000089e+02
-3.425779222200000049e+02
-3.425635002600000121e+02
-3.425455499600000167e+02
-3.425245599300000094e+02
-3.425010793899999726e+02
-3.424757015199999728e+02
-3.424490280800000050e+02
-3.424216608099999917e+02
-3.420511754799999835e+02
-3.420475010900000257e+02
-3.420446083100000010e+02
-3.420426975799999809e+02
-3.420420242999999800e+02
-3.420428832499999885e+02
-3.420455857700000024e+02
-3.420504395500000214e+02
-3.420577192100000161e+02
-3.420676417500000071e+02
-3.418683146700000179e+02
-3.418740214399999786e+02
-3.418792082300000175e+02