 vasp.6.1.1 19Jun20 (build Dec 21 2021 08:45:49) complex                        
  
 executed on             LinuxIFC date 2023.10.04  18:14:11
 running on   40 total cores
 distrk:  each k-point on   40 cores,    1 groups
 distr:  one band on NCORE=   1 cores,   40 groups


--------------------------------------------------------------------------------------------------------


 INCAR:
 POTCAR:   PAW_PBE Te 08Apr2002                   
 POTCAR:   PAW_PBE Mo 08Apr2002                   
 -----------------------------------------------------------------------------
|                                                                             |
|           W    W    AA    RRRRR   N    N  II  N    N   GGGG   !!!           |
|           W    W   A  A   R    R  NN   N  II  NN   N  G    G  !!!           |
|           W    W  A    A  R    R  N N  N  II  N N  N  G       !!!           |
|           W WW W  AAAAAA  RRRRR   N  N N  II  N  N N  G  GGG   !            |
|           WW  WW  A    A  R   R   N   NN  II  N   NN  G    G                |
|           W    W  A    A  R    R  N    N  II  N    N   GGGG   !!!           |
|                                                                             |
|     For optimal performance we recommend to set                             |
|       NCORE = 4 - approx SQRT(number of cores).                             |
|     NCORE specifies how many cores store one orbital (NPAR=cpu/NCORE).      |
|     This setting can greatly improve the performance of VASP for DFT.       |
|     The default, NCORE=1 might be grossly inefficient on modern             |
|     multi-core architectures or massively parallel machines. Do your        |
|     own testing!!!!                                                         |
|     Unfortunately you need to use the default for GW and RPA                |
|     calculations (for HF NCORE is supported but not extensively tested      |
|     yet).                                                                   |
|                                                                             |
 -----------------------------------------------------------------------------

 POTCAR:   PAW_PBE Te 08Apr2002                   
   VRHFIN =Te: s2p4                                                                                 
   LEXCH  = PE                                                                                      
   EATOM  =   223.2721 eV,   16.4100 Ry                                                             
                                                                                                    
   TITEL  = PAW_PBE Te 08Apr2002                                                                    
   LULTRA =        F    use ultrasoft PP ?                                                          
   IUNSCR =        1    unscreen: 0-lin 1-nonlin 2-no                                               
   RPACOR =    2.200    partial core radius                                                         
   POMASS =  127.600; ZVAL   =    6.000    mass and valenz                                          
   RCORE  =    2.300    outmost cutoff radius                                                       
   RWIGS  =    2.900; RWIGS  =    1.535    wigner-seitz radius (au A)                               
   ENMAX  =  174.982; ENMIN  =  131.236 eV                                                          
   ICORE  =        3    local potential                                                             
   LCOR   =        T    correct aug charges                                                         
   LPAW   =        T    paw PP                                                                      
   EAUG   =  368.792                                                                                
   DEXC   =    -.169                                                                                
   RMAX   =    3.486    core radius for proj-oper                                                   
   RAUG   =    1.300    factor for augmentation sphere                                              
   RDEP   =    2.397    radius for radial grids                                                     
   QCUT   =   -3.586; QGAM   =    7.172    optimization parameters                                  
                                                                                                    
   Description                                                                                      
     l     E      TYP  RCUT    TYP  RCUT                                                            
     0   .000     23  2.300                                                                         
     0   .000     23  2.300                                                                         
     1   .000     23  2.300                                                                         
     1   .000     23  2.300                                                                         
     2   .000     23  2.300                                                                         
     3  -.100     23  2.300                                                                         
  local pseudopotential read in
  partial core-charges read in
  atomic valenz-charges read in
  non local Contribution for L=           0  read in
    real space projection operators read in
  non local Contribution for L=           0  read in
    real space projection operators read in
  non local Contribution for L=           1  read in
    real space projection operators read in
  non local Contribution for L=           1  read in
    real space projection operators read in
  non local Contribution for L=           2  read in
    real space projection operators read in
    PAW grid and wavefunctions read in
 
   number of l-projection  operators is LMAX  =           5
   number of lm-projection operators is LMMAX =          13
 
 POTCAR:   PAW_PBE Mo 08Apr2002                   
   VRHFIN =Mo: 4p5s4d                                                                               
   LEXCH  = PE                                                                                      
   EATOM  =   217.5180 eV,   15.9871 Ry                                                             
                                                                                                    
   TITEL  = PAW_PBE Mo 08Apr2002                                                                    
   LULTRA =        F    use ultrasoft PP ?                                                          
   IUNSCR =        1    unscreen: 0-lin 1-nonlin 2-no                                               
   RPACOR =    2.200    partial core radius                                                         
   POMASS =   95.940; ZVAL   =    6.000    mass and valenz                                          
   RCORE  =    2.750    outmost cutoff radius                                                       
   RWIGS  =    2.750; RWIGS  =    1.455    wigner-seitz radius (au A)                               
   ENMAX  =  224.584; ENMIN  =  168.438 eV                                                          
   RCLOC  =    2.111    cutoff for local pot                                                        
   LCOR   =        T    correct aug charges                                                         
   LPAW   =        T    paw PP                                                                      
   EAUG   =  345.278                                                                                
   DEXC   =    -.088                                                                                
   RMAX   =    3.077    core radius for proj-oper                                                   
   RAUG   =    1.300    factor for augmentation sphere                                              
   RDEP   =    2.815    radius for radial grids                                                     
   QCUT   =   -4.063; QGAM   =    8.126    optimization parameters                                  
                                                                                                    
   Description                                                                                      
     l     E      TYP  RCUT    TYP  RCUT                                                            
     2   .000     23  2.500                                                                         
     2   .000     23  2.500                                                                         
     0   .000     23  2.600                                                                         
     0  1.000     23  2.600                                                                         
     1   .400     23  2.750                                                                         
     1  2.000     23  2.750                                                                         
     3   .000      7   .000                                                                         
  local pseudopotential read in
  partial core-charges read in
  atomic valenz-charges read in
  non local Contribution for L=           2  read in
    real space projection operators read in
  non local Contribution for L=           2  read in
    real space projection operators read in
  non local Contribution for L=           0  read in
    real space projection operators read in
  non local Contribution for L=           0  read in
    real space projection operators read in
  non local Contribution for L=           1  read in
    real space projection operators read in
  non local Contribution for L=           1  read in
    real space projection operators read in
    PAW grid and wavefunctions read in
 
   number of l-projection  operators is LMAX  =           6
   number of lm-projection operators is LMMAX =          18
 
 -----------------------------------------------------------------------------
|                                                                             |
|               ----> ADVICE to this user running VASP <----                  |
|                                                                             |
|     You have a (more or less) 'large supercell' and for larger cells it     |
|     might be more efficient to use real-space projection operators.         |
|     Therefore, try LREAL= Auto in the INCAR file.                           |
|     Mind: If you want to do very accurate calculations, keep the            |
|     reciprocal projection scheme (i.e. LREAL=.FALSE.).                      |
|                                                                             |
 -----------------------------------------------------------------------------

 PAW_PBE Te 08Apr2002                   :
 energy of atom  1       EATOM= -223.2721
 kinetic energy error for atom=    0.0006 (will be added to EATOM!!)
 PAW_PBE Mo 08Apr2002                   :
 energy of atom  2       EATOM= -217.5180
 kinetic energy error for atom=    0.0009 (will be added to EATOM!!)
 
 
 POSCAR: Te Mo
  positions in cartesian coordinates
  No initial velocities read in
 exchange correlation table for  LEXCH =        8
   RHO(1)=    0.500       N(1)  =     2000
   RHO(2)=  100.500       N(2)  =     4000
 


--------------------------------------------------------------------------------------------------------


 ion  position               nearest neighbor table
   1  0.222  0.111  0.677-  41 2.62  40 2.66  37 2.71   2 3.41   3 3.42   7 3.46   4 3.48   9 3.49
                             5 3.50  19 3.53
   2  0.222  0.444  0.677-  42 2.62  41 2.65  38 2.72   1 3.41   3 3.41   8 3.47   5 3.47   7 3.49
                             6 3.51  20 3.53
   3  0.222  0.778  0.677-  40 2.63  42 2.66  39 2.71   2 3.41   1 3.42   9 3.46   6 3.48   4 3.50
                             8 3.51  21 3.53
   4  0.556  0.111  0.678-  44 2.64  43 2.66  40 2.72   6 3.41   5 3.41   7 3.47   1 3.48   8 3.49
                             3 3.50  22 3.54
   5  0.555  0.444  0.678-  45 2.63  44 2.67  41 2.72   6 3.41   4 3.41   8 3.47   2 3.47   1 3.50
                             9 3.51  23 3.54
   6  0.556  0.778  0.678-  43 2.63  45 2.66  42 2.73   4 3.41   5 3.41   9 3.48   3 3.48   7 3.50
                             2 3.51  24 3.54
   7  0.889  0.111  0.677-  38 2.63  37 2.65  43 2.71   8 3.41   9 3.41   1 3.46   4 3.47   2 3.49
                             6 3.50  25 3.53
   8  0.888  0.444  0.677-  39 2.63  38 2.66  44 2.71   9 3.41   7 3.41   5 3.47   2 3.47   4 3.49
                             3 3.51  26 3.53
   9  0.890  0.778  0.677-  37 2.63  39 2.66  45 2.72   8 3.41   7 3.41   3 3.46   6 3.48   1 3.49
                             5 3.51  27 3.54
  10  0.111  0.222  0.443-  47 2.62  46 2.67  52 2.71  11 3.41  12 3.41  16 3.48  13 3.48  18 3.49
                            14 3.50  28 3.53
  11  0.112  0.556  0.443-  48 2.62  47 2.65  53 2.71  12 3.40  10 3.41  14 3.47  17 3.48  15 3.49
                            16 3.51  29 3.52
  12  0.111  0.888  0.444-  46 2.64  48 2.67  54 2.72  11 3.40  10 3.41  18 3.46  15 3.47  17 3.49
                            13 3.51  30 3.54
  13  0.445  0.223  0.443-  50 2.62  49 2.66  46 2.72  14 3.41  15 3.41  16 3.46  10 3.48  17 3.49
                            12 3.51  31 3.54
  14  0.445  0.555  0.443-  51 2.63  50 2.66  47 2.72  13 3.41  15 3.41  17 3.47  11 3.47  10 3.50
                            18 3.50  32 3.54
  15  0.445  0.889  0.443-  49 2.63  51 2.67  48 2.72  13 3.41  14 3.41  12 3.47  18 3.47  11 3.49
                            16 3.49  33 3.54
  16  0.777  0.222  0.443-  53 2.62  52 2.66  49 2.70  17 3.41  18 3.41  13 3.46  10 3.48  15 3.49
                            11 3.51  34 3.53
  17  0.778  0.556  0.443-  54 2.63  53 2.66  50 2.71  18 3.41  16 3.41  14 3.47  11 3.48  12 3.49
                            13 3.49  35 3.53
  18  0.778  0.889  0.443-  52 2.61  54 2.66  51 2.71  17 3.41  16 3.41  12 3.46  15 3.47  10 3.49
                            14 3.50  36 3.54
  19  0.222  0.111  0.557-  40 2.64  37 2.66  41 2.70  21 3.40  20 3.41  22 3.47  25 3.47  23 3.49
                            27 3.50   1 3.53
  20  0.222  0.444  0.557-  41 2.64  38 2.67  42 2.69  19 3.41  21 3.42  23 3.47  26 3.47  25 3.50
                            24 3.50   2 3.53
  21  0.222  0.778  0.557-  42 2.64  39 2.66  40 2.69  19 3.40  20 3.42  27 3.47  24 3.48  26 3.50
                            22 3.51   3 3.53
  22  0.556  0.112  0.556-  43 2.65  40 2.67  44 2.69  23 3.40  24 3.41  25 3.47  19 3.47  26 3.49
                            21 3.51   4 3.54
  23  0.555  0.444  0.557-  44 2.63  41 2.67  45 2.70  22 3.40  24 3.42  20 3.47  26 3.48  19 3.49
                            27 3.50   5 3.54
  24  0.556  0.778  0.557-  45 2.64  42 2.67  43 2.69  22 3.41  23 3.42  27 3.47  21 3.48  25 3.50
                            20 3.50   6 3.54
  25  0.889  0.111  0.557-  37 2.64  43 2.66  38 2.69  26 3.40  27 3.41  22 3.47  19 3.47  24 3.50
                            20 3.50   7 3.53
  26  0.889  0.444  0.557-  38 2.62  44 2.65  39 2.70  25 3.40  27 3.42  20 3.47  23 3.48  22 3.49
                            21 3.50   8 3.53
  27  0.889  0.778  0.557-  39 2.64  45 2.66  37 2.70  25 3.41  26 3.42  21 3.47  24 3.47  19 3.50
                            23 3.50   9 3.54
  28  0.111  0.223  0.323-  46 2.65  52 2.67  47 2.69  29 3.40  30 3.42  34 3.46  31 3.48  32 3.50
                            36 3.51  10 3.53
  29  0.112  0.556  0.323-  47 2.63  53 2.67  48 2.69  28 3.40  30 3.41  32 3.47  35 3.48  33 3.49
                            34 3.50  11 3.52
  30  0.111  0.889  0.323-  48 2.64  54 2.66  46 2.69  29 3.41  28 3.42  33 3.47  36 3.47  35 3.50
                            31 3.50  12 3.54
  31  0.445  0.222  0.323-  49 2.64  46 2.66  50 2.70  33 3.41  32 3.41  34 3.47  28 3.48  35 3.49
                            30 3.50  13 3.54
  32  0.445  0.556  0.322-  50 2.64  47 2.68  51 2.69  33 3.41  31 3.41  35 3.47  29 3.47  36 3.49
                            28 3.50  14 3.54
  33  0.444  0.888  0.323-  51 2.65  48 2.66  49 2.70  32 3.41  31 3.41  30 3.47  36 3.47  29 3.49
                            34 3.51  15 3.54
  34  0.779  0.222  0.323-  52 2.64  49 2.67  53 2.70  35 3.41  36 3.41  28 3.46  31 3.47  29 3.50
                            33 3.51  16 3.53
  35  0.778  0.555  0.323-  53 2.64  50 2.66  54 2.70  36 3.40  34 3.41  32 3.47  29 3.48  31 3.49
                            30 3.50  17 3.53
  36  0.778  0.888  0.322-  54 2.64  51 2.67  52 2.70  35 3.40  34 3.41  30 3.47  33 3.47  32 3.49
                            28 3.51  18 3.54
  37  1.000  0.000  0.617-   9 2.63  25 2.64   7 2.65  19 2.66  27 2.70   1 2.71  38 3.41  39 3.41
                            40 3.47  43 3.47
  38  0.999  0.333  0.617-  26 2.62   7 2.63   8 2.66  20 2.67  25 2.69   2 2.72  37 3.41  39 3.41
                            44 3.46  41 3.47
  39  0.000  0.667  0.617-   8 2.63  27 2.64   9 2.66  21 2.66  26 2.70   3 2.71  38 3.41  37 3.41
                            42 3.47  45 3.47
  40  0.333  0.000  0.617-   3 2.63  19 2.64   1 2.66  22 2.67  21 2.69   4 2.72  41 3.41  42 3.42
                            37 3.47  43 3.48
  41  0.333  0.333  0.617-   1 2.62  20 2.64   2 2.65  23 2.67  19 2.70   5 2.72  42 3.40  40 3.41
                            38 3.47  44 3.48
  42  0.333  0.666  0.617-   2 2.62  21 2.64   3 2.66  24 2.67  20 2.69   6 2.73  41 3.40  40 3.42
                            39 3.47  45 3.48
  43  0.667  1.000  0.617-   6 2.63  22 2.65   4 2.66  25 2.66  24 2.69   7 2.71  45 3.41  44 3.41
                            37 3.47  40 3.48
  44  0.667  0.334  0.617-  23 2.63   4 2.64  26 2.65   5 2.67  22 2.69   8 2.71  45 3.41  43 3.41
                            38 3.46  41 3.48
  45  0.667  0.667  0.617-   5 2.63  24 2.64   6 2.66  27 2.66  23 2.70   9 2.72  44 3.41  43 3.41
                            39 3.47  42 3.48
  46  0.223  0.111  0.383-  12 2.64  28 2.65  31 2.66  10 2.67  30 2.69  13 2.72  48 3.40  47 3.42
                            49 3.47  52 3.47
  47  0.222  0.444  0.383-  10 2.62  29 2.63  11 2.65  32 2.68  28 2.69  14 2.72  48 3.41  46 3.42
                            53 3.47  50 3.48
  48  0.222  0.778  0.383-  11 2.62  30 2.64  33 2.66  12 2.67  29 2.69  15 2.72  46 3.40  47 3.41
                            54 3.47  51 3.48
  49  0.556  0.111  0.383-  15 2.63  31 2.64  13 2.66  34 2.67  33 2.70  16 2.70  50 3.41  51 3.41
                            46 3.47  52 3.47
  50  0.556  0.444  0.383-  13 2.62  32 2.64  14 2.66  35 2.66  31 2.70  17 2.71  51 3.40  49 3.41
                            53 3.47  47 3.48
  51  0.556  0.777  0.383-  14 2.63  33 2.65  36 2.67  15 2.67  32 2.69  18 2.71  50 3.40  49 3.41
                            54 3.47  48 3.48
  52  0.889  0.110  0.383-  18 2.61  34 2.64  16 2.66  28 2.67  36 2.70  10 2.71  54 3.40  53 3.42
                            49 3.47  46 3.47
  53  0.888  0.444  0.383-  16 2.62  35 2.64  17 2.66  29 2.67  34 2.70  11 2.71  54 3.41  52 3.42
                            50 3.47  47 3.47
  54  0.889  0.778  0.383-  17 2.63  36 2.64  18 2.66  30 2.66  35 2.70  12 2.72  52 3.40  53 3.41
                            51 3.47  48 3.47
 

IMPORTANT INFORMATION: All symmetrisations will be switched off!
NOSYMM: (Re-)initialisation of all symmetry stuff for point group C_1.


----------------------------------------------------------------------------------------

                                     Primitive cell                                     

  volume of cell :    2728.1641

  direct lattice vectors                    reciprocal lattice vectors
    10.413457967  0.000000000  0.000000000     0.096029580  0.052948196 -0.001957781
    -4.939333945  8.958230942  0.000000000     0.000000000  0.111629183 -0.002878674
     0.180399576  0.754167833 29.245110955     0.000000000  0.000000000  0.034193750

  length of vectors
    10.413457967 10.229707788 29.255389724     0.109676910  0.111666294  0.034193750

  position of ions in fractional coordinates (direct lattice)
     0.221878381  0.111390329  0.677225749
     0.221799258  0.444340770  0.677211540
     0.222201180  0.777597455  0.677388116
     0.555733778  0.111029029  0.677578601
     0.555440667  0.444234504  0.677633207
     0.556043747  0.777886696  0.677533884
     0.889346432  0.111115549  0.677281260
     0.887988795  0.443727259  0.677475168
     0.889705161  0.777788230  0.677476514
     0.110861456  0.222259785  0.443382222
     0.111661720  0.556281497  0.443158506
     0.110580147  0.888418609  0.443598300
     0.445400842  0.222822492  0.443387138
     0.444666749  0.555498532  0.443489698
     0.444539100  0.889026471  0.443499084
     0.777126757  0.222290437  0.443214090
     0.777777124  0.556003643  0.443306244
     0.778424112  0.889435974  0.443189778
     0.222288844  0.111108599  0.556644593
     0.222346941  0.444022059  0.556535750
     0.221971493  0.778255733  0.556830279
     0.556114378  0.112051018  0.556472615
     0.555258591  0.443653377  0.556632025
     0.555756385  0.778220776  0.556653006
     0.888822749  0.111071356  0.556658442
     0.889190820  0.443956069  0.556871821
     0.888658594  0.777760477  0.556565519
     0.111208999  0.222928092  0.322556823
     0.111694850  0.555765766  0.322712850
     0.111111134  0.888888851  0.322553411
     0.445025281  0.222245762  0.322502561
     0.444741865  0.555745861  0.322444999
     0.444099066  0.888392137  0.322516879
     0.778679852  0.222434576  0.322510233
     0.777617997  0.555471940  0.322522384
     0.777570678  0.888288609  0.322357764
     0.999901874  0.000080641  0.616966369
     0.999175158  0.332961011  0.616804680
     0.000200725  0.666768524  0.617087374
     0.332911913  0.000066393  0.617051099
     0.332938482  0.333217276  0.617184567
     0.332608872  0.665818705  0.616923157
     0.666589287  0.999849235  0.617002523
     0.667338929  0.333963261  0.616866526
     0.666808382  0.666784830  0.617066738
     0.222640737  0.110864061  0.382864262
     0.221558086  0.444321009  0.383085740
     0.222249015  0.777907289  0.382910872
     0.555927304  0.111064714  0.382894931
     0.555537244  0.444421152  0.382934773
     0.555736205  0.777189016  0.382967612
     0.888944784  0.110323897  0.383112128
     0.888482926  0.444475714  0.382996762
     0.889109445  0.778362391  0.382756449

  ion indices of the primitive-cell ions
   primitive index   ion index
                 1           1
                 2           2
                 3           3
                 4           4
                 5           5
                 6           6
                 7           7
                 8           8
                 9           9
                10          10
                11          11
                12          12
                13          13
                14          14
                15          15
                16          16
                17          17
                18          18
                19          19
                20          20
                21          21
                22          22
                23          23
                24          24
                25          25
                26          26
                27          27
                28          28
                29          29
                30          30
                31          31
                32          32
                33          33
                34          34
                35          35
                36          36
                37          37
                38          38
                39          39
                40          40
                41          41
                42          42
                43          43
                44          44
                45          45
                46          46
                47          47
                48          48
                49          49
                50          50
                51          51
                52          52
                53          53
                54          54

----------------------------------------------------------------------------------------

 
 

Automatic generation of k-mesh.
 generate k-points for:    3    3    1
Space group operators:
 irot       det(A)        alpha          n_x          n_y          n_z        tau_x        tau_y        tau_z
    1     1.000000     0.000000     1.000000     0.000000     0.000000     0.000000     0.000000     0.000000
 
 Subroutine IBZKPT returns following result:
 ===========================================
 
 Found      5 irreducible k-points:
 
 Following reciprocal coordinates:
            Coordinates               Weight
  0.000000  0.000000  0.000000      1.000000
  0.333333  0.000000  0.000000      2.000000
  0.000000  0.333333  0.000000      2.000000
  0.333333  0.333333  0.000000      2.000000
 -0.333333  0.333333 -0.000000      2.000000
 
 Following cartesian coordinates:
            Coordinates               Weight
  0.000000  0.000000  0.000000      1.000000
  0.032010  0.017649 -0.000653      2.000000
  0.000000  0.037210 -0.000960      2.000000
  0.032010  0.054859 -0.001612      2.000000
 -0.032010  0.019560 -0.000307      2.000000
 


--------------------------------------------------------------------------------------------------------




 Dimension of arrays:
   k-points           NKPTS =      5   k-points in BZ     NKDIM =      5   number of bands    NBANDS=    200
   number of dos      NEDOS =    301   number of ions     NIONS =     54
   non local maximal  LDIM  =      6   non local SUM 2l+1 LMDIM =     18
   total plane-waves  NPLWV = ******
   max r-space proj   IRMAX =      1   max aug-charges    IRDMAX=  33934
   dimension x,y,z NGX =    80 NGY =   80 NGZ =  224
   dimension x,y,z NGXF=   160 NGYF=  160 NGZF=  448
   support grid    NGXF=   160 NGYF=  160 NGZF=  448
   ions per type =              36  18
   NGX,Y,Z   is equivalent  to a cutoff of  12.77, 13.00, 12.73 a.u.
   NGXF,Y,Z  is equivalent  to a cutoff of  25.54, 26.00, 25.46 a.u.

 SYSTEM =  dpgen_md                                
 POSCAR =  Te Mo                                   

 Startparameter for this run:
   NWRITE =      2    write-flag & timer
   PREC   = a         normal or accurate (medium, high low for compatibility)
   ISTART =      0    job   : 0-new  1-cont  2-samecut
   ICHARG =      2    charge: 1-file 2-atom 10-const
   ISPIN  =      1    spin polarized calculation?
   LNONCOLLINEAR =      F non collinear calculations
   LSORBIT =      F    spin-orbit coupling
   INIWAV =      1    electr: 0-lowe 1-rand  2-diag
   LASPH  =      F    aspherical Exc in radial PAW
   METAGGA=      F    non-selfconsistent MetaGGA calc.

 Electronic Relaxation 1
   ENCUT  =  550.0 eV  40.42 Ry    6.36 a.u.  19.91 19.56 55.94*2*pi/ulx,y,z
   ENINI  =  550.0     initial cutoff
   ENAUG  =  368.8 eV  augmentation charge cutoff
   NELM   =    100;   NELMIN=  6; NELMDL= -5     # of ELM steps 
   EDIFF  = 0.1E-05   stopping-criterion for ELM
   LREAL  =      F    real-space projection
   NLSPLINE    = F    spline interpolate recip. space projectors
   LCOMPAT=      F    compatible to vasp.4.4
   GGA_COMPAT  = T    GGA compatible to vasp.4.4-vasp.4.6
   LMAXPAW     = -100 max onsite density
   LMAXMIX     =    2 max onsite mixed and CHGCAR
   VOSKOWN=      0    Vosko Wilk Nusair interpolation
   ROPT   =    0.00000   0.00000
 Ionic relaxation
   EDIFFG = 0.1E-04   stopping-criterion for IOM
   NSW    =     10    number of steps for IOM
   NBLOCK =      1;   KBLOCK =      1    inner block; outer block 
   IBRION =      0    ionic relax: 0-MD 1-quasi-New 2-CG
   NFREE  =      0    steps in history (QN), initial steepest desc. (CG)
   ISIF   =      2    stress and relaxation
   IWAVPR =     11    prediction:  0-non 1-charg 2-wave 3-comb
   ISYM   =      0    0-nonsym 1-usesym 2-fastsym
   LCORR  =      T    Harris-Foulkes like correction to forces

   POTIM  = 2.0000    time-step for ionic-motion
   TEIN   =  100.0    initial temperature
   TEBEG  =  100.0;   TEEND  = 100.0 temperature during run
   SMASS  =   0.04    Nose mass-parameter (am)
   estimated Nose-frequenzy (Omega)   =  0.79E+14 period in steps = 0.40E+02 mass=   0.327E-28a.u.
   SCALEE = 1.0000    scale energy and forces
   NPACO  =    256;   APACO  = 16.0  distance and # of slots for P.C.
   PSTRESS=    0.0 pullay stress

  Mass of Ions in am
   POMASS = 127.60 95.94
  Ionic Valenz
   ZVAL   =   6.00  6.00
  Atomic Wigner-Seitz radii
   RWIGS  =  -1.00 -1.00
  virtual crystal weights 
   VCA    =   1.00  1.00
   NELECT =     324.0000    total number of electrons
   NUPDOWN=      -1.0000    fix difference up-down

 DOS related values:
   EMIN   =  10.00;   EMAX   =-10.00  energy-range for DOS
   EFERMI =   0.00
   ISMEAR =     0;   SIGMA  =   0.10  broadening in eV -4-tet -1-fermi 0-gaus

 Electronic relaxation 2 (details)
   IALGO  =     68    algorithm
   LDIAG  =      T    sub-space diagonalisation (order eigenvalues)
   LSUBROT=      F    optimize rotation matrix (better conditioning)
   TURBO    =      0    0=normal 1=particle mesh
   IRESTART =      0    0=no restart 2=restart with 2 vectors
   NREBOOT  =      0    no. of reboots
   NMIN     =      0    reboot dimension
   EREF     =   0.00    reference energy to select bands
   IMIX   =      4    mixing-type and parameters
     AMIX     =   0.40;   BMIX     =  1.00
     AMIX_MAG =   1.60;   BMIX_MAG =  1.00
     AMIN     =   0.10
     WC   =   100.;   INIMIX=   1;  MIXPRE=   1;  MAXMIX= -45

 Intra band minimization:
   WEIMIN = 0.0010     energy-eigenvalue tresh-hold
   EBREAK =  0.13E-08  absolut break condition
   DEPER  =   0.30     relativ break condition  

   TIME   =   0.40     timestep for ELM

  volume/ion in A,a.u.               =      50.52       340.94
  Fermi-wavevector in a.u.,A,eV,Ry     =   0.804698  1.520659  8.810304  0.647539
  Thomas-Fermi vector in A             =   1.912804
 
 Write flags
   LWAVE        =      F    write WAVECAR
   LDOWNSAMPLE  =      F    k-point downsampling of WAVECAR
   LCHARG       =      F    write CHGCAR
   LVTOT        =      F    write LOCPOT, total local potential
   LVHAR        =      F    write LOCPOT, Hartree potential only
   LELF         =      F    write electronic localiz. function (ELF)
   LORBIT       =      0    0 simple, 1 ext, 2 COOP (PROOUT), +10 PAW based schemes


 Dipole corrections
   LMONO  =      F    monopole corrections only (constant potential shift)
   LDIPOL =      F    correct potential (dipole corrections)
   IDIPOL =      0    1-x, 2-y, 3-z, 4-all directions 
   EPSILON=  1.0000000 bulk dielectric constant

 Exchange correlation treatment:
   GGA     =    --    GGA type
   LEXCH   =     8    internal setting for exchange type
   VOSKOWN=      0    Vosko Wilk Nusair interpolation
   LHFCALC =     F    Hartree Fock is set to
   LHFONE  =     F    Hartree Fock one center treatment
   AEXX    =    0.0000 exact exchange contribution

 Linear response parameters
   LEPSILON=     F    determine dielectric tensor
   LRPA    =     F    only Hartree local field effects (RPA)
   LNABLA  =     F    use nabla operator in PAW spheres
   LVEL    =     F    velocity operator in full k-point grid
   LINTERFAST=   F  fast interpolation
   KINTER  =     0    interpolate to denser k-point grid
   CSHIFT  =0.1000    complex shift for real part using Kramers Kronig
   OMEGAMAX=  -1.0    maximum frequency
   DEG_THRESHOLD= 0.2000000E-02 threshold for treating states as degnerate
   RTIME   =   -0.100 relaxation time in fs
  (WPLASMAI=    0.000 imaginary part of plasma frequency in eV, 0.658/RTIME)
   DFIELD  = 0.0000000 0.0000000 0.0000000 field for delta impulse in time
 
 Orbital magnetization related:
   ORBITALMAG=     F  switch on orbital magnetization
   LCHIMAG   =     F  perturbation theory with respect to B field
   DQ        =  0.001000  dq finite difference perturbation B field
   LLRAUG    =     F  two centre corrections for induced B field



--------------------------------------------------------------------------------------------------------


 molecular dynamics for ions
   using nose mass (canonical ensemble)
 charge density and potential will be updated during run
 non-spin polarized calculation
 RMM-DIIS sequential band-by-band and
  variant of blocked Davidson during initial phase
 perform sub-space diagonalisation
    before iterative eigenvector-optimisation
 modified Broyden-mixing scheme, WC =      100.0
 initial mixing is a Kerker type mixing with AMIX =  0.4000 and BMIX =      1.0000
 Hartree-type preconditioning will be used
 using additional bands           38
 reciprocal scheme for non local part
 use partial core corrections
 calculate Harris-corrections to forces 
   (improved forces if not selfconsistent)
 use gradient corrections 
 use of overlap-Matrix (Vanderbilt PP)
 Gauss-broadening in eV      SIGMA  =   0.10


--------------------------------------------------------------------------------------------------------


  energy-cutoff  :      550.00
  volume of cell :     2728.16
      direct lattice vectors                 reciprocal lattice vectors
    10.413457967  0.000000000  0.000000000     0.096029580  0.052948196 -0.001957781
    -4.939333945  8.958230942  0.000000000     0.000000000  0.111629183 -0.002878674
     0.180399576  0.754167833 29.245110955     0.000000000  0.000000000  0.034193750

  length of vectors
    10.413457967 10.229707788 29.255389724     0.109676910  0.111666294  0.034193750


 
 k-points in units of 2pi/SCALE and weight: read from INCAR                         
   0.00000000  0.00000000  0.00000000       0.111
   0.03200986  0.01764940 -0.00065259       0.222
   0.00000000  0.03720973 -0.00095956       0.222
   0.03200986  0.05485913 -0.00161215       0.222
  -0.03200986  0.01956033 -0.00030696       0.222
 
 k-points in reciprocal lattice and weights: read from INCAR                         
   0.00000000  0.00000000  0.00000000       0.111
   0.33333333  0.00000000  0.00000000       0.222
   0.00000000  0.33333333  0.00000000       0.222
   0.33333333  0.33333333  0.00000000       0.222
  -0.33333333  0.33333333 -0.00000000       0.222
 
 position of ions in fractional coordinates (direct lattice) 
   0.22187838  0.11139033  0.67722575
   0.22179926  0.44434077  0.67721154
   0.22220118  0.77759746  0.67738812
   0.55573378  0.11102903  0.67757860
   0.55544067  0.44423450  0.67763321
   0.55604375  0.77788670  0.67753388
   0.88934643  0.11111555  0.67728126
   0.88798880  0.44372726  0.67747517
   0.88970516  0.77778823  0.67747651
   0.11086146  0.22225978  0.44338222
   0.11166172  0.55628150  0.44315851
   0.11058015  0.88841861  0.44359830
   0.44540084  0.22282249  0.44338714
   0.44466675  0.55549853  0.44348970
   0.44453910  0.88902647  0.44349908
   0.77712676  0.22229044  0.44321409
   0.77777712  0.55600364  0.44330624
   0.77842411  0.88943597  0.44318978
   0.22228884  0.11110860  0.55664459
   0.22234694  0.44402206  0.55653575
   0.22197149  0.77825573  0.55683028
   0.55611438  0.11205102  0.55647261
   0.55525859  0.44365338  0.55663202
   0.55575638  0.77822078  0.55665301
   0.88882275  0.11107136  0.55665844
   0.88919082  0.44395607  0.55687182
   0.88865859  0.77776048  0.55656552
   0.11120900  0.22292809  0.32255682
   0.11169485  0.55576577  0.32271285
   0.11111113  0.88888885  0.32255341
   0.44502528  0.22224576  0.32250256
   0.44474186  0.55574586  0.32244500
   0.44409907  0.88839214  0.32251688
   0.77867985  0.22243458  0.32251023
   0.77761800  0.55547194  0.32252238
   0.77757068  0.88828861  0.32235776
   0.99990187  0.00008064  0.61696637
   0.99917516  0.33296101  0.61680468
   0.00020073  0.66676852  0.61708737
   0.33291191  0.00006639  0.61705110
   0.33293848  0.33321728  0.61718457
   0.33260887  0.66581871  0.61692316
   0.66658929  0.99984923  0.61700252
   0.66733893  0.33396326  0.61686653
   0.66680838  0.66678483  0.61706674
   0.22264074  0.11086406  0.38286426
   0.22155809  0.44432101  0.38308574
   0.22224901  0.77790729  0.38291087
   0.55592730  0.11106471  0.38289493
   0.55553724  0.44442115  0.38293477
   0.55573621  0.77718902  0.38296761
   0.88894478  0.11032390  0.38311213
   0.88848293  0.44447571  0.38299676
   0.88910944  0.77836239  0.38275645
 
 position of ions in cartesian coordinates  (Angst):
   1.88249840  1.50860217 19.80554216
   0.23711848  4.49123839 19.80512661
  -1.40473033  7.47676191 19.81029061
   5.36093578  1.50563167 19.81586138
   3.71208021  4.49060445 19.81745834
   2.07032285  7.47946293 19.81455362
   8.83451614  1.50618248 19.80716560
   7.17753311  4.48594124 19.81283646
   5.54536797  7.47853758 19.81287582
   0.13662178  2.32543909 12.96676226
  -1.50492985  5.31751401 12.96021968
  -3.15664954  8.29320664 12.97308151
   3.61755510  2.33048366 12.96690605
   1.96673110  5.31074980 12.96990542
   0.31799765  8.29857718 12.97017991
   7.07456575  2.32558688 12.96184524
   5.43303398  5.31513635 12.96454030
   3.79281672  8.30201234 12.96113422
   1.86641150  1.41513994 16.27913290
   0.22262611  4.39737350 16.27594977
  -1.43212220  7.39173807 16.28456329
   5.33800373  1.42345264 16.27410337
   3.69122599  4.39414338 16.27876533
   2.04387342  7.39129122 16.27937891
   8.80752076  1.41481675 16.27953791
   7.16716339  4.39703581 16.28577819
   5.51279437  7.38710178 16.27682037
   0.11514305  2.24030331  9.43321007
  -1.52376582  5.22205773  9.43777312
  -3.17527925  8.20613101  9.43311030
   3.59468534  2.23414992  9.43162317
   1.94445526  5.22167741  9.42993976
   0.29472343  8.20165379  9.43204190
   7.06825197  2.23584714  9.43184755
   5.41221382  5.21928193  9.43220290
   3.76779870  8.20060636  9.42738857
  10.52333829  0.46601859 18.04324993
   8.87153419  3.44791588 18.03852130
  -3.17997986  6.43845387 18.04678871
   3.57775202  0.46595486 18.04572786
   1.93250932  3.45049806 18.04963114
   0.28620025  6.42982133 18.04198619
   2.11421725  9.42220381 18.04430723
   5.41103227  3.45694091 18.04032999
   3.76162670  6.43858438 18.04618522
   1.83993389  1.28188977 11.19690782
   0.18164448  4.26924115 11.20338498
  -1.45888615  7.25745221 11.19827094
   5.30961399  1.28371040 11.19780475
   3.65900053  4.27002440 11.19896994
   2.01742672  7.25106055 11.19993031
   8.78117583  1.27723779 11.20415670
   7.12585807  4.27055993 11.20078279
   5.48316115  7.26141266 11.19375482
 


--------------------------------------------------------------------------------------------------------


 k-point   1 :   0.0000 0.0000 0.0000  plane waves:   79877
 k-point   2 :   0.3333 0.0000 0.0000  plane waves:   79948
 k-point   3 :   0.0000 0.3333 0.0000  plane waves:   79908
 k-point   4 :   0.3333 0.3333 0.0000  plane waves:   79898
 k-point   5 :  -0.3333 0.3333-0.0000  plane waves:   79868

 maximum and minimum number of plane-waves per node :     79948    79868

 maximum number of plane-waves:     79948
 maximum index in each direction: 
   IXMAX=   20   IYMAX=   19   IZMAX=   55
   IXMIN=  -20   IYMIN=  -19   IZMIN=  -55


 serial   3D FFT for wavefunctions
 parallel 3D FFT for charge:
    minimum data exchange during FFTs selected (reduces bandwidth)


 total amount of memory used by VASP MPI-rank0   336360. kBytes
=======================================================================

   base      :      30000. kBytes
   nonl-proj :     184227. kBytes
   fftplans  :      15437. kBytes
   grid      :      73553. kBytes
   one-center:        839. kBytes
   wavefun   :      32304. kBytes
 
     INWAV:  cpu time    0.0000: real time    0.0000
 Broyden mixing: mesh for mixing (old mesh)
   NGX = 39   NGY = 39   NGZ =111
  (NGX  =160   NGY  =160   NGZ  =448)
  gives a total of 168831 points

 initial charge density was supplied:
 charge density of overlapping atoms calculated
 number of electron     324.0000000 magnetization 
 keeping initial charge density in first step


--------------------------------------------------------------------------------------------------------


 Maximum index for augmentation-charges         1143 (set IRDMAX)


--------------------------------------------------------------------------------------------------------


 First call to EWALD:  gamma=   0.127
 Maximum number of real-space cells 4x 4x 2
 Maximum number of reciprocal cells 2x 2x 5

    FEWALD:  cpu time    0.0022: real time    0.0022


--------------------------------------- Iteration      1(   1)  ---------------------------------------


    POTLOK:  cpu time    0.2634: real time    0.2641
    SETDIJ:  cpu time    0.0126: real time    0.0127
     EDDAV:  cpu time   46.0566: real time   46.1937
       DOS:  cpu time    0.0010: real time    0.0011
    --------------------------------------------
      LOOP:  cpu time   46.3337: real time   46.4716

 eigenvalue-minimisations  :  2000
 total energy-change (2. order) : 0.2168579E+04  (-0.1173799E+05)
 number of electron     324.0000000 magnetization 
 augmentation part      324.0000000 magnetization 

 Free energy of the ion-electron system (eV)
  ---------------------------------------------------
  alpha Z        PSCENC =       263.05828459
  Ewald energy   TEWEN  =     64533.98528191
  -Hartree energ DENC   =    -76274.76981896
  -exchange      EXHF   =         0.00000000
  -V(xc)+E(xc)   XCENC  =     -2092.33402565
  PAW double counting   =      7476.04436201    -4809.59211051
  entropy T*S    EENTRO =        -0.10792036
  eigenvalues    EBANDS =      1119.21191925
  atomic energy  EATOM  =     11953.08265402
  Solvation  Ediel_sol  =         0.00000000
  ---------------------------------------------------
  free energy    TOTEN  =      2168.57862632 eV

  energy without entropy =     2168.68654667  energy(sigma->0) =     2168.63258650


--------------------------------------------------------------------------------------------------------




--------------------------------------- Iteration      1(   2)  ---------------------------------------


     EDDAV:  cpu time   62.3976: real time   62.6081
       DOS:  cpu time    0.0006: real time    0.0006
    --------------------------------------------
      LOOP:  cpu time   62.3982: real time   62.6087

 eigenvalue-minimisations  :  2920
 total energy-change (2. order) :-0.2258441E+04  (-0.2179873E+04)
 number of electron     324.0000000 magnetization 
 augmentation part      324.0000000 magnetization 

 Free energy of the ion-electron system (eV)
  ---------------------------------------------------
  alpha Z        PSCENC =       263.05828459
  Ewald energy   TEWEN  =     64533.98528191
  -Hartree energ DENC   =    -76274.76981896
  -exchange      EXHF   =         0.00000000
  -V(xc)+E(xc)   XCENC  =     -2092.33402565
  PAW double counting   =      7476.04436201    -4809.59211051
  entropy T*S    EENTRO =        -0.00284296
  eigenvalues    EBANDS =     -1139.33457280
  atomic energy  EATOM  =     11953.08265402
  Solvation  Ediel_sol  =         0.00000000
  ---------------------------------------------------
  free energy    TOTEN  =       -89.86278833 eV

  energy without entropy =      -89.85994538  energy(sigma->0) =      -89.86136686


--------------------------------------------------------------------------------------------------------




--------------------------------------- Iteration      1(   3)  ---------------------------------------


     EDDAV:  cpu time   55.2739: real time   55.4450
       DOS:  cpu time    0.0004: real time    0.0004
    --------------------------------------------
      LOOP:  cpu time   55.2743: real time   55.4453

 eigenvalue-minimisations  :  2520
 total energy-change (2. order) :-0.2311693E+03  (-0.2274444E+03)
 number of electron     324.0000000 magnetization 
 augmentation part      324.0000000 magnetization 

 Free energy of the ion-electron system (eV)
  ---------------------------------------------------
  alpha Z        PSCENC =       263.05828459
  Ewald energy   TEWEN  =     64533.98528191
  -Hartree energ DENC   =    -76274.76981896
  -exchange      EXHF   =         0.00000000
  -V(xc)+E(xc)   XCENC  =     -2092.33402565
  PAW double counting   =      7476.04436201    -4809.59211051
  entropy T*S    EENTRO =        -0.00000000
  eigenvalues    EBANDS =     -1370.50668183
  atomic energy  EATOM  =     11953.08265402
  Solvation  Ediel_sol  =         0.00000000
  ---------------------------------------------------
  free energy    TOTEN  =      -321.03205441 eV

  energy without entropy =     -321.03205441  energy(sigma->0) =     -321.03205441


--------------------------------------------------------------------------------------------------------




--------------------------------------- Iteration      1(   4)  ---------------------------------------


     EDDAV:  cpu time   65.2441: real time   65.4497
       DOS:  cpu time    0.0004: real time    0.0004
    --------------------------------------------
      LOOP:  cpu time   65.2445: real time   65.4501

 eigenvalue-minimisations  :  3080
 total energy-change (2. order) :-0.1110963E+02  (-0.1102804E+02)
 number of electron     324.0000000 magnetization 
 augmentation part      324.0000000 magnetization 

 Free energy of the ion-electron system (eV)
  ---------------------------------------------------
  alpha Z        PSCENC =       263.05828459
  Ewald energy   TEWEN  =     64533.98528191
  -Hartree energ DENC   =    -76274.76981896
  -exchange      EXHF   =         0.00000000
  -V(xc)+E(xc)   XCENC  =     -2092.33402565
  PAW double counting   =      7476.04436201    -4809.59211051
  entropy T*S    EENTRO =        -0.00000000
  eigenvalues    EBANDS =     -1381.61631260
  atomic energy  EATOM  =     11953.08265402
  Solvation  Ediel_sol  =         0.00000000
  ---------------------------------------------------
  free energy    TOTEN  =      -332.14168518 eV

  energy without entropy =     -332.14168518  energy(sigma->0) =     -332.14168518


--------------------------------------------------------------------------------------------------------




--------------------------------------- Iteration      1(   5)  ---------------------------------------


     EDDAV:  cpu time   62.3784: real time   62.5513
       DOS:  cpu time    0.0004: real time    0.0004
    CHARGE:  cpu time    1.0093: real time    1.0108
    MIXING:  cpu time    0.0111: real time    0.0113
    --------------------------------------------
      LOOP:  cpu time   63.3992: real time   63.5738

 eigenvalue-minimisations  :  2920
 total energy-change (2. order) :-0.3015331E+00  (-0.3009029E+00)
 number of electron     324.0000017 magnetization 
 augmentation part      -24.6226470 magnetization 

 Broyden mixing:
  rms(total) = 0.17756E+01    rms(broyden)= 0.17756E+01
  rms(prec ) = 0.18774E+01
  weight for this iteration     100.00

 Free energy of the ion-electron system (eV)
  ---------------------------------------------------
  alpha Z        PSCENC =       263.05828459
  Ewald energy   TEWEN  =     64533.98528191
  -Hartree energ DENC   =    -76274.76981896
  -exchange      EXHF   =         0.00000000
  -V(xc)+E(xc)   XCENC  =     -2092.33402565
  PAW double counting   =      7476.04436201    -4809.59211051
  entropy T*S    EENTRO =        -0.00000000
  eigenvalues    EBANDS =     -1381.91784567
  atomic energy  EATOM  =     11953.08265402
  Solvation  Ediel_sol  =         0.00000000
  ---------------------------------------------------
  free energy    TOTEN  =      -332.44321825 eV

  energy without entropy =     -332.44321825  energy(sigma->0) =     -332.44321825


--------------------------------------------------------------------------------------------------------




--------------------------------------- Iteration      1(   6)  ---------------------------------------


    POTLOK:  cpu time    0.2226: real time    0.2229
    SETDIJ:  cpu time    0.0109: real time    0.0109
    EDDIAG:  cpu time    2.3030: real time    2.3144
  RMM-DIIS:  cpu time   37.3882: real time   37.5237
    ORTHCH:  cpu time    0.2225: real time    0.2227
       DOS:  cpu time    0.0004: real time    0.0004
    CHARGE:  cpu time    1.0104: real time    1.0158
    MIXING:  cpu time    0.0060: real time    0.0061
    --------------------------------------------
      LOOP:  cpu time   41.1642: real time   41.3169

 eigenvalue-minimisations  :  2075
 total energy-change (2. order) : 0.8580356E+01  (-0.2993268E+01)
 number of electron     324.0000017 magnetization 
 augmentation part      -20.8350953 magnetization 

 Broyden mixing:
  rms(total) = 0.69873E+00    rms(broyden)= 0.69873E+00
  rms(prec ) = 0.77531E+00
  weight for this iteration     100.00

 eigenvalues of (default mixing * dielectric matrix)
  average eigenvalue GAMMA=   1.2837
  1.2837

 Free energy of the ion-electron system (eV)
  ---------------------------------------------------
  alpha Z        PSCENC =       263.05828459
  Ewald energy   TEWEN  =     64533.98528191
  -Hartree energ DENC   =    -76279.86156786
  -exchange      EXHF   =         0.00000000
  -V(xc)+E(xc)   XCENC  =     -2086.05996674
  PAW double counting   =      7817.70888630    -5164.03763535
  entropy T*S    EENTRO =        -0.00000003
  eigenvalues    EBANDS =     -1361.73879952
  atomic energy  EATOM  =     11953.08265402
  Solvation  Ediel_sol  =         0.00000000
  ---------------------------------------------------
  free energy    TOTEN  =      -323.86286266 eV

  energy without entropy =     -323.86286263  energy(sigma->0) =     -323.86286264


--------------------------------------------------------------------------------------------------------




--------------------------------------- Iteration      1(   7)  ---------------------------------------


    POTLOK:  cpu time    0.2263: real time    0.2266
    SETDIJ:  cpu time    0.0146: real time    0.0146
    EDDIAG:  cpu time    2.3073: real time    2.3183
  RMM-DIIS:  cpu time   36.4415: real time   36.5539
    ORTHCH:  cpu time    0.2233: real time    0.2235
       DOS:  cpu time    0.0004: real time    0.0004
    CHARGE:  cpu time    1.0100: real time    1.0113
    MIXING:  cpu time    0.0061: real time    0.0061
    --------------------------------------------
      LOOP:  cpu time   40.2295: real time   40.3548

 eigenvalue-minimisations  :  2001
 total energy-change (2. order) : 0.2460699E+01  (-0.8862766E+00)
 number of electron     324.0000017 magnetization 
 augmentation part      -21.6488533 magnetization 

 Broyden mixing:
  rms(total) = 0.38809E+00    rms(broyden)= 0.38809E+00
  rms(prec ) = 0.40950E+00
  weight for this iteration     100.00

 eigenvalues of (default mixing * dielectric matrix)
  average eigenvalue GAMMA=   1.5095
  0.8179  2.2011

 Free energy of the ion-electron system (eV)
  ---------------------------------------------------
  alpha Z        PSCENC =       263.05828459
  Ewald energy   TEWEN  =     64533.98528191
  -Hartree energ DENC   =    -76365.72259134
  -exchange      EXHF   =         0.00000000
  -V(xc)+E(xc)   XCENC  =     -2083.26771409
  PAW double counting   =      8209.42696913    -5563.60538753
  entropy T*S    EENTRO =        -0.00000000
  eigenvalues    EBANDS =     -1268.35966049
  atomic energy  EATOM  =     11953.08265402
  Solvation  Ediel_sol  =         0.00000000
  ---------------------------------------------------
  free energy    TOTEN  =      -321.40216379 eV

  energy without entropy =     -321.40216379  energy(sigma->0) =     -321.40216379


--------------------------------------------------------------------------------------------------------




--------------------------------------- Iteration      1(   8)  ---------------------------------------


    POTLOK:  cpu time    0.2205: real time    0.2207
    SETDIJ:  cpu time    0.0108: real time    0.0108
    EDDIAG:  cpu time    2.3143: real time    2.3172
  RMM-DIIS:  cpu time   36.3621: real time   36.4554
    ORTHCH:  cpu time    0.2029: real time    0.2031
       DOS:  cpu time    0.0004: real time    0.0004
    CHARGE:  cpu time    1.0147: real time    1.0201
    MIXING:  cpu time    0.0064: real time    0.0064
    --------------------------------------------
      LOOP:  cpu time   40.1321: real time   40.2342

 eigenvalue-minimisations  :  2013
 total energy-change (2. order) : 0.2655018E+00  (-0.4318117E+00)
 number of electron     324.0000017 magnetization 
 augmentation part      -21.1855979 magnetization 

 Broyden mixing:
  rms(total) = 0.10117E+00    rms(broyden)= 0.10117E+00
  rms(prec ) = 0.11322E+00
  weight for this iteration     100.00

 eigenvalues of (default mixing * dielectric matrix)
  average eigenvalue GAMMA=   1.3184
  2.1898  0.9952  0.7701

 Free energy of the ion-electron system (eV)
  ---------------------------------------------------
  alpha Z        PSCENC =       263.05828459
  Ewald energy   TEWEN  =     64533.98528191
  -Hartree energ DENC   =    -76412.31744042
  -exchange      EXHF   =         0.00000000
  -V(xc)+E(xc)   XCENC  =     -2079.84328444
  PAW double counting   =      8522.99974217    -5883.21473200
  entropy T*S    EENTRO =        -0.00000000
  eigenvalues    EBANDS =     -1218.88716783
  atomic energy  EATOM  =     11953.08265402
  Solvation  Ediel_sol  =         0.00000000
  ---------------------------------------------------
  free energy    TOTEN  =      -321.13666200 eV

  energy without entropy =     -321.13666200  energy(sigma->0) =     -321.13666200


--------------------------------------------------------------------------------------------------------




--------------------------------------- Iteration      1(   9)  ---------------------------------------


    POTLOK:  cpu time    0.2186: real time    0.2188
    SETDIJ:  cpu time    0.0110: real time    0.0110
    EDDIAG:  cpu time    2.2909: real time    2.2976
  RMM-DIIS:  cpu time   41.6366: real time   41.7918
    ORTHCH:  cpu time    0.2219: real time    0.2225
       DOS:  cpu time    0.0004: real time    0.0004
    CHARGE:  cpu time    1.0050: real time    1.0102
    MIXING:  cpu time    0.0065: real time    0.0065
    --------------------------------------------
      LOOP:  cpu time   45.3908: real time   45.5588

 eigenvalue-minimisations  :  2292
 total energy-change (2. order) :-0.6710876E-01  (-0.1037358E+00)
 number of electron     324.0000017 magnetization 
 augmentation part      -20.9845196 magnetization 

 Broyden mixing:
  rms(total) = 0.10290E+00    rms(broyden)= 0.10290E+00
  rms(prec ) = 0.11442E+00
  weight for this iteration     100.00

 eigenvalues of (default mixing * dielectric matrix)
  average eigenvalue GAMMA=   1.3568
  2.1193  2.1193  0.7794  0.4094

 Free energy of the ion-electron system (eV)
  ---------------------------------------------------
  alpha Z        PSCENC =       263.05828459
  Ewald energy   TEWEN  =     64533.98528191
  -Hartree energ DENC   =    -76416.59234063
  -exchange      EXHF   =         0.00000000
  -V(xc)+E(xc)   XCENC  =     -2079.56610869
  PAW double counting   =      8545.60058423    -5906.07537516
  entropy T*S    EENTRO =        -0.00000000
  eigenvalues    EBANDS =     -1214.69675103
  atomic energy  EATOM  =     11953.08265402
  Solvation  Ediel_sol  =         0.00000000
  ---------------------------------------------------
  free energy    TOTEN  =      -321.20377076 eV

  energy without entropy =     -321.20377076  energy(sigma->0) =     -321.20377076


--------------------------------------------------------------------------------------------------------




--------------------------------------- Iteration      1(  10)  ---------------------------------------


    POTLOK:  cpu time    0.2266: real time    0.2268
    SETDIJ:  cpu time    0.0110: real time    0.0110
    EDDIAG:  cpu time    2.3146: real time    2.3256
  RMM-DIIS:  cpu time   38.9884: real time   39.0847
    ORTHCH:  cpu time    0.2241: real time    0.2244
       DOS:  cpu time    0.0005: real time    0.0005
    CHARGE:  cpu time    1.0210: real time    1.0222
    MIXING:  cpu time    0.0067: real time    0.0067
    --------------------------------------------
      LOOP:  cpu time   42.7928: real time   42.9020

 eigenvalue-minimisations  :  2094
 total energy-change (2. order) : 0.3098408E-01  (-0.2273040E-01)
 number of electron     324.0000017 magnetization 
 augmentation part      -21.0232502 magnetization 

 Broyden mixing:
  rms(total) = 0.32912E-01    rms(broyden)= 0.32912E-01
  rms(prec ) = 0.39097E-01
  weight for this iteration     100.00

 eigenvalues of (default mixing * dielectric matrix)
  average eigenvalue GAMMA=   1.3305
  2.3692  2.1190  0.8821  0.8821  0.4003

 Free energy of the ion-electron system (eV)
  ---------------------------------------------------
  alpha Z        PSCENC =       263.05828459
  Ewald energy   TEWEN  =     64533.98528191
  -Hartree energ DENC   =    -76425.02336556
  -exchange      EXHF   =         0.00000000
  -V(xc)+E(xc)   XCENC  =     -2079.32371188
  PAW double counting   =      8581.86891080    -5942.41135856
  entropy T*S    EENTRO =        -0.00000000
  eigenvalues    EBANDS =     -1206.40948199
  atomic energy  EATOM  =     11953.08265402
  Solvation  Ediel_sol  =         0.00000000
  ---------------------------------------------------
  free energy    TOTEN  =      -321.17278668 eV

  energy without entropy =     -321.17278668  energy(sigma->0) =     -321.17278668


--------------------------------------------------------------------------------------------------------




--------------------------------------- Iteration      1(  11)  ---------------------------------------


    POTLOK:  cpu time    0.2223: real time    0.2226
    SETDIJ:  cpu time    0.0107: real time    0.0107
    EDDIAG:  cpu time    2.2999: real time    2.3107
  RMM-DIIS:  cpu time   44.5273: real time   44.6530
    ORTHCH:  cpu time    0.2128: real time    0.2131
       DOS:  cpu time    0.0004: real time    0.0004
    CHARGE:  cpu time    1.0341: real time    1.0356
    MIXING:  cpu time    0.0068: real time    0.0068
    --------------------------------------------
      LOOP:  cpu time   48.3143: real time   48.4529

 eigenvalue-minimisations  :  2454
 total energy-change (2. order) :-0.2266638E-02  (-0.8652867E-02)
 number of electron     324.0000017 magnetization 
 augmentation part      -21.1563037 magnetization 

 Broyden mixing:
  rms(total) = 0.20709E-01    rms(broyden)= 0.20709E-01
  rms(prec ) = 0.24489E-01
  weight for this iteration     100.00

 eigenvalues of (default mixing * dielectric matrix)
  average eigenvalue GAMMA=   1.2341
  2.5009  1.8780  1.3058  0.7936  0.5200  0.4061

 Free energy of the ion-electron system (eV)
  ---------------------------------------------------
  alpha Z        PSCENC =       263.05828459
  Ewald energy   TEWEN  =     64533.98528191
  -Hartree energ DENC   =    -76435.19661179
  -exchange      EXHF   =         0.00000000
  -V(xc)+E(xc)   XCENC  =     -2079.14919849
  PAW double counting   =      8609.71394616    -5970.42647593
  entropy T*S    EENTRO =        -0.00000000
  eigenvalues    EBANDS =     -1196.24293379
  atomic energy  EATOM  =     11953.08265402
  Solvation  Ediel_sol  =         0.00000000
  ---------------------------------------------------
  free energy    TOTEN  =      -321.17505332 eV

  energy without entropy =     -321.17505332  energy(sigma->0) =     -321.17505332


--------------------------------------------------------------------------------------------------------




--------------------------------------- Iteration      1(  12)  ---------------------------------------


    POTLOK:  cpu time    0.2241: real time    0.2243
    SETDIJ:  cpu time    0.0107: real time    0.0107
    EDDIAG:  cpu time    2.3123: real time    2.3149
  RMM-DIIS:  cpu time   46.7709: real time   46.9234
    ORTHCH:  cpu time    0.2179: real time    0.2262
       DOS:  cpu time    0.0004: real time    0.0004
    CHARGE:  cpu time    1.0085: real time    1.0096
    MIXING:  cpu time    0.0068: real time    0.0068
    --------------------------------------------
      LOOP:  cpu time   50.5516: real time   50.7164

 eigenvalue-minimisations  :  2562
 total energy-change (2. order) :-0.3917305E-03  (-0.1744084E-02)
 number of electron     324.0000017 magnetization 
 augmentation part      -21.1465861 magnetization 

 Broyden mixing:
  rms(total) = 0.12778E-01    rms(broyden)= 0.12778E-01
  rms(prec ) = 0.15696E-01
  weight for this iteration     100.00

 eigenvalues of (default mixing * dielectric matrix)
  average eigenvalue GAMMA=   1.2973
  2.3586  2.1195  2.1195  0.8327  0.8327  0.4227  0.3957

 Free energy of the ion-electron system (eV)
  ---------------------------------------------------
  alpha Z        PSCENC =       263.05828459
  Ewald energy   TEWEN  =     64533.98528191
  -Hartree energ DENC   =    -76438.35060004
  -exchange      EXHF   =         0.00000000
  -V(xc)+E(xc)   XCENC  =     -2079.09526276
  PAW double counting   =      8612.92542575    -5973.64591672
  entropy T*S    EENTRO =        -0.00000000
  eigenvalues    EBANDS =     -1193.13531181
  atomic energy  EATOM  =     11953.08265402
  Solvation  Ediel_sol  =         0.00000000
  ---------------------------------------------------
  free energy    TOTEN  =      -321.17544505 eV

  energy without entropy =     -321.17544505  energy(sigma->0) =     -321.17544505


--------------------------------------------------------------------------------------------------------




--------------------------------------- Iteration      1(  13)  ---------------------------------------


    POTLOK:  cpu time    0.2275: real time    0.2277
    SETDIJ:  cpu time    0.0109: real time    0.0109
    EDDIAG:  cpu time    2.3108: real time    2.3135
  RMM-DIIS:  cpu time   42.0122: real time   42.1731
    ORTHCH:  cpu time    0.2142: real time    0.2146
       DOS:  cpu time    0.0004: real time    0.0004
    CHARGE:  cpu time    1.0099: real time    1.0109
    MIXING:  cpu time    0.0066: real time    0.0066
    --------------------------------------------
      LOOP:  cpu time   45.7926: real time   45.9578

 eigenvalue-minimisations  :  2307
 total energy-change (2. order) :-0.6129508E-03  (-0.8553683E-03)
 number of electron     324.0000017 magnetization 
 augmentation part      -21.0937379 magnetization 

 Broyden mixing:
  rms(total) = 0.10213E-01    rms(broyden)= 0.10213E-01
  rms(prec ) = 0.12670E-01
  weight for this iteration     100.00

 eigenvalues of (default mixing * dielectric matrix)
  average eigenvalue GAMMA=   1.3436
  2.6616  2.6616  1.7293  1.2610  0.8088  0.8088  0.4313  0.3866

 Free energy of the ion-electron system (eV)
  ---------------------------------------------------
  alpha Z        PSCENC =       263.05828459
  Ewald energy   TEWEN  =     64533.98528191
  -Hartree energ DENC   =    -76443.10706504
  -exchange      EXHF   =         0.00000000
  -V(xc)+E(xc)   XCENC  =     -2079.05641140
  PAW double counting   =      8609.82021292    -5970.44106710
  entropy T*S    EENTRO =        -0.00000000
  eigenvalues    EBANDS =     -1188.51794790
  atomic energy  EATOM  =     11953.08265402
  Solvation  Ediel_sol  =         0.00000000
  ---------------------------------------------------
  free energy    TOTEN  =      -321.17605800 eV

  energy without entropy =     -321.17605800  energy(sigma->0) =     -321.17605800


--------------------------------------------------------------------------------------------------------




--------------------------------------- Iteration      1(  14)  ---------------------------------------


    POTLOK:  cpu time    0.2287: real time    0.2289
    SETDIJ:  cpu time    0.0144: real time    0.0144
    EDDIAG:  cpu time    2.3109: real time    2.3177
  RMM-DIIS:  cpu time   38.0658: real time   38.1804
    ORTHCH:  cpu time    0.2084: real time    0.2126
       DOS:  cpu time    0.0004: real time    0.0004
    CHARGE:  cpu time    1.0149: real time    1.0159
    MIXING:  cpu time    0.0071: real time    0.0071
    --------------------------------------------
      LOOP:  cpu time   41.8506: real time   41.9774

 eigenvalue-minimisations  :  2083
 total energy-change (2. order) :-0.4105849E-04  (-0.2215641E-03)
 number of electron     324.0000017 magnetization 
 augmentation part      -21.1149671 magnetization 

 Broyden mixing:
  rms(total) = 0.34969E-02    rms(broyden)= 0.34969E-02
  rms(prec ) = 0.54962E-02
  weight for this iteration     100.00

 eigenvalues of (default mixing * dielectric matrix)
  average eigenvalue GAMMA=   1.3188
  3.0027  2.4338  1.6435  1.6435  0.8070  0.8070  0.7142  0.4304  0.3866

 Free energy of the ion-electron system (eV)
  ---------------------------------------------------
  alpha Z        PSCENC =       263.05828459
  Ewald energy   TEWEN  =     64533.98528191
  -Hartree energ DENC   =    -76448.74580793
  -exchange      EXHF   =         0.00000000
  -V(xc)+E(xc)   XCENC  =     -2079.04192199
  PAW double counting   =      8610.99565229    -5971.55318420
  entropy T*S    EENTRO =        -0.00000000
  eigenvalues    EBANDS =     -1182.95705775
  atomic energy  EATOM  =     11953.08265402
  Solvation  Ediel_sol  =         0.00000000
  ---------------------------------------------------
  free energy    TOTEN  =      -321.17609906 eV

  energy without entropy =     -321.17609906  energy(sigma->0) =     -321.17609906


--------------------------------------------------------------------------------------------------------




--------------------------------------- Iteration      1(  15)  ---------------------------------------


    POTLOK:  cpu time    0.2352: real time    0.2354
    SETDIJ:  cpu time    0.0145: real time    0.0145
    EDDIAG:  cpu time    2.3198: real time    2.3223
  RMM-DIIS:  cpu time   44.7456: real time   44.8772
    ORTHCH:  cpu time    0.2235: real time    0.2237
       DOS:  cpu time    0.0007: real time    0.0007
    CHARGE:  cpu time    1.0081: real time    1.0091
    MIXING:  cpu time    0.0072: real time    0.0072
    --------------------------------------------
      LOOP:  cpu time   48.5545: real time   48.6901

 eigenvalue-minimisations  :  2452
 total energy-change (2. order) :-0.7717092E-03  (-0.1263170E-03)
 number of electron     324.0000017 magnetization 
 augmentation part      -21.1251973 magnetization 

 Broyden mixing:
  rms(total) = 0.38859E-02    rms(broyden)= 0.38859E-02
  rms(prec ) = 0.51378E-02
  weight for this iteration     100.00

 eigenvalues of (default mixing * dielectric matrix)
  average eigenvalue GAMMA=   1.2905
  3.1545  2.3507  1.8055  1.8055  0.9097  0.7729  0.7729  0.3878  0.4272  0.5182

 Free energy of the ion-electron system (eV)
  ---------------------------------------------------
  alpha Z        PSCENC =       263.05828459
  Ewald energy   TEWEN  =     64533.98528191
  -Hartree energ DENC   =    -76451.19882436
  -exchange      EXHF   =         0.00000000
  -V(xc)+E(xc)   XCENC  =     -2079.02790850
  PAW double counting   =      8611.24080673    -5971.80675955
  entropy T*S    EENTRO =        -0.00000000
  eigenvalues    EBANDS =     -1180.51040560
  atomic energy  EATOM  =     11953.08265402
  Solvation  Ediel_sol  =         0.00000000
  ---------------------------------------------------
  free energy    TOTEN  =      -321.17687076 eV

  energy without entropy =     -321.17687076  energy(sigma->0) =     -321.17687076


--------------------------------------------------------------------------------------------------------




--------------------------------------- Iteration      1(  16)  ---------------------------------------


    POTLOK:  cpu time    0.2265: real time    0.2268
    SETDIJ:  cpu time    0.0119: real time    0.0119
    EDDIAG:  cpu time    2.3062: real time    2.3131
  RMM-DIIS:  cpu time   40.1069: real time   40.2384
    ORTHCH:  cpu time    0.2159: real time    0.2161
       DOS:  cpu time    0.0004: real time    0.0004
    CHARGE:  cpu time    1.0080: real time    1.0093
    MIXING:  cpu time    0.0074: real time    0.0074
    --------------------------------------------
      LOOP:  cpu time   43.8832: real time   44.0234

 eigenvalue-minimisations  :  2152
 total energy-change (2. order) :-0.8797848E-03  (-0.3886835E-04)
 number of electron     324.0000017 magnetization 
 augmentation part      -21.1200914 magnetization 

 Broyden mixing:
  rms(total) = 0.24623E-02    rms(broyden)= 0.24623E-02
  rms(prec ) = 0.34525E-02
  weight for this iteration     100.00

 eigenvalues of (default mixing * dielectric matrix)
  average eigenvalue GAMMA=   1.4790
  4.6512  2.5170  2.5170  1.4958  1.4958  0.7986  0.7986  0.7700  0.4308  0.3885
  0.4056

 Free energy of the ion-electron system (eV)
  ---------------------------------------------------
  alpha Z        PSCENC =       263.05828459
  Ewald energy   TEWEN  =     64533.98528191
  -Hartree energ DENC   =    -76453.55657266
  -exchange      EXHF   =         0.00000000
  -V(xc)+E(xc)   XCENC  =     -2079.01199561
  PAW double counting   =      8610.42942247    -5971.00436364
  entropy T*S    EENTRO =        -0.00000000
  eigenvalues    EBANDS =     -1178.16046164
  atomic energy  EATOM  =     11953.08265402
  Solvation  Ediel_sol  =         0.00000000
  ---------------------------------------------------
  free energy    TOTEN  =      -321.17775055 eV

  energy without entropy =     -321.17775055  energy(sigma->0) =     -321.17775055


--------------------------------------------------------------------------------------------------------




--------------------------------------- Iteration      1(  17)  ---------------------------------------


    POTLOK:  cpu time    0.2303: real time    0.2306
    SETDIJ:  cpu time    0.0107: real time    0.0107
    EDDIAG:  cpu time    2.3002: real time    2.3070
  RMM-DIIS:  cpu time   41.7260: real time   41.8328
    ORTHCH:  cpu time    0.2224: real time    0.2226
       DOS:  cpu time    0.0004: real time    0.0004
    CHARGE:  cpu time    1.0135: real time    1.0148
    MIXING:  cpu time    0.0074: real time    0.0074
    --------------------------------------------
      LOOP:  cpu time   45.5108: real time   45.6263

 eigenvalue-minimisations  :  2220
 total energy-change (2. order) :-0.1611053E-02  (-0.7002266E-04)
 number of electron     324.0000017 magnetization 
 augmentation part      -21.1082464 magnetization 

 Broyden mixing:
  rms(total) = 0.32175E-02    rms(broyden)= 0.32175E-02
  rms(prec ) = 0.35882E-02
  weight for this iteration     100.00

 eigenvalues of (default mixing * dielectric matrix)
  average eigenvalue GAMMA=   1.4642
  5.0324  2.6758  2.3736  1.5875  1.5875  0.8165  0.8165  0.7289  0.7289  0.4295
  0.3868  0.4068

 Free energy of the ion-electron system (eV)
  ---------------------------------------------------
  alpha Z        PSCENC =       263.05828459
  Ewald energy   TEWEN  =     64533.98528191
  -Hartree energ DENC   =    -76457.85547517
  -exchange      EXHF   =         0.00000000
  -V(xc)+E(xc)   XCENC  =     -2078.98951238
  PAW double counting   =      8608.41187699    -5968.99095907
  entropy T*S    EENTRO =        -0.00000000
  eigenvalues    EBANDS =     -1173.88151250
  atomic energy  EATOM  =     11953.08265402
  Solvation  Ediel_sol  =         0.00000000
  ---------------------------------------------------
  free energy    TOTEN  =      -321.17936160 eV

  energy without entropy =     -321.17936160  energy(sigma->0) =     -321.17936160


--------------------------------------------------------------------------------------------------------




--------------------------------------- Iteration      1(  18)  ---------------------------------------


    POTLOK:  cpu time    0.2300: real time    0.2302
    SETDIJ:  cpu time    0.0138: real time    0.0138
    EDDIAG:  cpu time    2.3121: real time    2.3149
  RMM-DIIS:  cpu time   39.1665: real time   39.2595
    ORTHCH:  cpu time    0.2149: real time    0.2151
       DOS:  cpu time    0.0004: real time    0.0004
    CHARGE:  cpu time    1.0088: real time    1.0099
    MIXING:  cpu time    0.0076: real time    0.0076
    --------------------------------------------
      LOOP:  cpu time   42.9541: real time   43.0513

 eigenvalue-minimisations  :  2118
 total energy-change (2. order) :-0.2519167E-03  (-0.8862760E-05)
 number of electron     324.0000017 magnetization 
 augmentation part      -21.1112390 magnetization 

 Broyden mixing:
  rms(total) = 0.19654E-02    rms(broyden)= 0.19654E-02
  rms(prec ) = 0.22191E-02
  weight for this iteration     100.00

 eigenvalues of (default mixing * dielectric matrix)
  average eigenvalue GAMMA=   1.4515
  5.3086  2.7593  2.1362  1.7859  1.7859  0.9688  0.8138  0.7974  0.7974  0.4956
  0.4316  0.3877  0.4015

 Free energy of the ion-electron system (eV)
  ---------------------------------------------------
  alpha Z        PSCENC =       263.05828459
  Ewald energy   TEWEN  =     64533.98528191
  -Hartree energ DENC   =    -76458.34229795
  -exchange      EXHF   =         0.00000000
  -V(xc)+E(xc)   XCENC  =     -2078.99236572
  PAW double counting   =      8608.50533629    -5969.08003608
  entropy T*S    EENTRO =        -0.00000000
  eigenvalues    EBANDS =     -1173.39647059
  atomic energy  EATOM  =     11953.08265402
  Solvation  Ediel_sol  =         0.00000000
  ---------------------------------------------------
  free energy    TOTEN  =      -321.17961352 eV

  energy without entropy =     -321.17961352  energy(sigma->0) =     -321.17961352


--------------------------------------------------------------------------------------------------------




--------------------------------------- Iteration      1(  19)  ---------------------------------------


    POTLOK:  cpu time    0.2284: real time    0.2296
    SETDIJ:  cpu time    0.0108: real time    0.0108
    EDDIAG:  cpu time    2.3098: real time    2.3123
  RMM-DIIS:  cpu time   39.6993: real time   39.8080
    ORTHCH:  cpu time    0.2159: real time    0.2164
       DOS:  cpu time    0.0004: real time    0.0004
    CHARGE:  cpu time    1.0089: real time    1.0170
    MIXING:  cpu time    0.0078: real time    0.0078
    --------------------------------------------
      LOOP:  cpu time   43.4812: real time   43.6023

 eigenvalue-minimisations  :  2128
 total energy-change (2. order) :-0.2579818E-03  (-0.8830120E-05)
 number of electron     324.0000017 magnetization 
 augmentation part      -21.1166374 magnetization 

 Broyden mixing:
  rms(total) = 0.56981E-03    rms(broyden)= 0.56980E-03
  rms(prec ) = 0.76114E-03
  weight for this iteration     100.00

 eigenvalues of (default mixing * dielectric matrix)
  average eigenvalue GAMMA=   1.5790
  6.7453  2.8514  2.1893  2.1893  1.9821  1.0100  1.0100  0.8565  0.8079  0.8079
  0.4431  0.4289  0.3878  0.3959

 Free energy of the ion-electron system (eV)
  ---------------------------------------------------
  alpha Z        PSCENC =       263.05828459
  Ewald energy   TEWEN  =     64533.98528191
  -Hartree energ DENC   =    -76458.66418981
  -exchange      EXHF   =         0.00000000
  -V(xc)+E(xc)   XCENC  =     -2078.99583287
  PAW double counting   =      8608.83584085    -5969.40571708
  entropy T*S    EENTRO =        -0.00000000
  eigenvalues    EBANDS =     -1173.07619313
  atomic energy  EATOM  =     11953.08265402
  Solvation  Ediel_sol  =         0.00000000
  ---------------------------------------------------
  free energy    TOTEN  =      -321.17987150 eV

  energy without entropy =     -321.17987150  energy(sigma->0) =     -321.17987150


--------------------------------------------------------------------------------------------------------




--------------------------------------- Iteration      1(  20)  ---------------------------------------


    POTLOK:  cpu time    0.2310: real time    0.2312
    SETDIJ:  cpu time    0.0143: real time    0.0143
    EDDIAG:  cpu time    2.3064: real time    2.3090
  RMM-DIIS:  cpu time   43.6427: real time   43.7985
    ORTHCH:  cpu time    0.2242: real time    0.2244
       DOS:  cpu time    0.0005: real time    0.0005
    CHARGE:  cpu time    1.0196: real time    1.0208
    MIXING:  cpu time    0.0075: real time    0.0075
    --------------------------------------------
      LOOP:  cpu time   47.4461: real time   47.6062

 eigenvalue-minimisations  :  2354
 total energy-change (2. order) :-0.3399380E-03  (-0.4643042E-05)
 number of electron     324.0000017 magnetization 
 augmentation part      -21.1189269 magnetization 

 Broyden mixing:
  rms(total) = 0.63403E-03    rms(broyden)= 0.63403E-03
  rms(prec ) = 0.74443E-03
  weight for this iteration     100.00

 eigenvalues of (default mixing * dielectric matrix)
  average eigenvalue GAMMA=   1.5949
  6.5981  3.3062  2.4686  2.0318  2.0318  1.2624  1.2624  0.8368  0.8368  0.8175
  0.8175  0.4400  0.4296  0.3876  0.3962

 Free energy of the ion-electron system (eV)
  ---------------------------------------------------
  alpha Z        PSCENC =       263.05828459
  Ewald energy   TEWEN  =     64533.98528191
  -Hartree energ DENC   =    -76459.18566788
  -exchange      EXHF   =         0.00000000
  -V(xc)+E(xc)   XCENC  =     -2078.99536247
  PAW double counting   =      8609.18650515    -5969.75543266
  entropy T*S    EENTRO =        -0.00000000
  eigenvalues    EBANDS =     -1172.55647411
  atomic energy  EATOM  =     11953.08265402
  Solvation  Ediel_sol  =         0.00000000
  ---------------------------------------------------
  free energy    TOTEN  =      -321.18021144 eV

  energy without entropy =     -321.18021144  energy(sigma->0) =     -321.18021144


--------------------------------------------------------------------------------------------------------




--------------------------------------- Iteration      1(  21)  ---------------------------------------


    POTLOK:  cpu time    0.2270: real time    0.2272
    SETDIJ:  cpu time    0.0103: real time    0.0103
    EDDIAG:  cpu time    2.3075: real time    2.3141
  RMM-DIIS:  cpu time   35.8638: real time   35.9719
    ORTHCH:  cpu time    0.2470: real time    0.2472
       DOS:  cpu time    0.0007: real time    0.0007
    CHARGE:  cpu time    1.0152: real time    1.0165
    MIXING:  cpu time    0.0081: real time    0.0081
    --------------------------------------------
      LOOP:  cpu time   39.6795: real time   39.7961

 eigenvalue-minimisations  :  1861
 total energy-change (2. order) :-0.9808066E-04  (-0.1402533E-05)
 number of electron     324.0000017 magnetization 
 augmentation part      -21.1166620 magnetization 

 Broyden mixing:
  rms(total) = 0.27282E-03    rms(broyden)= 0.27281E-03
  rms(prec ) = 0.33731E-03
  weight for this iteration     100.00

 eigenvalues of (default mixing * dielectric matrix)
  average eigenvalue GAMMA=   1.6049
  6.7208  3.7849  2.5486  2.1698  2.1698  1.5895  1.1708  0.8559  0.8559  0.8236
  0.8236  0.5154  0.4327  0.4336  0.3878  0.3957

 Free energy of the ion-electron system (eV)
  ---------------------------------------------------
  alpha Z        PSCENC =       263.05828459
  Ewald energy   TEWEN  =     64533.98528191
  -Hartree energ DENC   =    -76459.32063149
  -exchange      EXHF   =         0.00000000
  -V(xc)+E(xc)   XCENC  =     -2078.99392034
  PAW double counting   =      8609.13206963    -5969.70475136
  entropy T*S    EENTRO =        -0.00000000
  eigenvalues    EBANDS =     -1172.41929649
  atomic energy  EATOM  =     11953.08265402
  Solvation  Ediel_sol  =         0.00000000
  ---------------------------------------------------
  free energy    TOTEN  =      -321.18030952 eV

  energy without entropy =     -321.18030952  energy(sigma->0) =     -321.18030952


--------------------------------------------------------------------------------------------------------




[...]
 -0.000  -0.000   0.000   0.000   0.000   0.011  -0.000  -0.000
 -0.000   0.000   0.000   0.000   0.000  -0.000   0.011  -0.000
  0.000  -0.000   0.000   0.000   0.000  -0.000  -0.000   0.011
 -0.001  -0.000   0.000   0.000   0.000  -0.000  -0.000   0.000
 -0.000  -0.000  -0.018   0.000   0.000  -0.000  -0.000  -0.000
 -0.010  -0.000   0.000  -0.022  -0.000   0.000  -0.000   0.000
  0.000  -0.000   0.000   0.001  -0.017  -0.000  -0.000  -0.000
 -0.000  -0.000  -0.000   0.000   0.000   0.000  -0.000  -0.000
 total augmentation occupancy for first ion, spin component:           1
  1.927   0.271   0.004   0.196  -0.003  -0.003   0.056  -0.006   0.001  -0.001   0.006  -0.001  -0.000
  0.271   1.493  -0.007  -0.982   0.020   0.004   0.404  -0.003  -0.008   0.000  -0.025  -0.003  -0.003
  0.004  -0.007   1.350  -0.006   0.001  -0.526   0.002  -0.000   0.005  -0.127   0.002  -0.000  -0.047
  0.196  -0.982  -0.006   1.530  -0.005   0.002  -0.572   0.008  -0.001   0.001  -0.039   0.002   0.002
 -0.003   0.020   0.001  -0.005   1.349  -0.000   0.008  -0.517  -0.048  -0.000  -0.001  -0.124   0.002
 -0.003   0.004  -0.526   0.002  -0.000   0.356   0.000  -0.008  -0.001   0.044  -0.000   0.001   0.009
  0.056   0.404   0.002  -0.572   0.008   0.000   0.324  -0.003   0.000  -0.000   0.052  -0.001  -0.000
 -0.006  -0.003  -0.000   0.008  -0.517  -0.008  -0.003   0.348   0.008   0.001   0.000   0.044   0.000
  0.001  -0.008   0.005  -0.001  -0.048  -0.001   0.000   0.008   0.024  -0.000   0.001  -0.001   0.001
 -0.001   0.000  -0.127   0.001  -0.000   0.044  -0.000   0.001  -0.000   0.021  -0.000  -0.000  -0.000
  0.006  -0.025   0.002  -0.039  -0.001  -0.000   0.052   0.000   0.001  -0.000   0.023  -0.000   0.000
 -0.001  -0.003  -0.000   0.002  -0.124   0.001  -0.001   0.044  -0.001  -0.000  -0.000   0.021  -0.000
 -0.000  -0.003  -0.047   0.002   0.002   0.009  -0.000   0.000   0.001  -0.000   0.000  -0.000   0.024


------------------------ aborting loop because EDIFF is reached ----------------------------------------


    CHARGE:  cpu time    1.0081: real time    1.0091
    FORLOC:  cpu time    0.0706: real time    0.0707
    FORNL :  cpu time   12.5463: real time   12.5818
    STRESS:  cpu time   68.1289: real time   68.3189
    FORCOR:  cpu time    0.2637: real time    0.2639
    FORHAR:  cpu time    0.1077: real time    0.1078
    MIXING:  cpu time    0.0067: real time    0.0067
    OFIELD:  cpu time    0.0000: real time    0.0000

  Number of pair interactions contributing to vdW energy:  285980
  Edisp (eV):  -20.37471
    FORVDW:  cpu time    0.0308: real time    0.0308

  FORCE on cell =-STRESS in cart. coord.  units (eV):
  Direction    XX          YY          ZZ          XY          YZ          ZX
  --------------------------------------------------------------------------------------
  Alpha Z   263.05828   263.05828   263.05828
  Ewald   73673.12395 73712.23238-83020.17904   -56.18783   -44.26846    -6.72994
  Hartree 75952.69882 75960.70443-75614.55448   -13.57683    -4.34684    -0.22510
  E(xc)   -1368.97694 -1369.81173 -1389.33389     1.00453     1.77517     0.36043
  Local  ************************153544.06189    67.00475    46.22136     6.89145
  n-local  3590.68238  3592.70339  3786.55196    -0.55602   -12.38351    -2.61319
  augment  -760.20508  -759.74652  -802.64468    -1.02752     1.97297     0.44475
  Kinetic  3325.33432  3330.02706  3300.84533   -12.27380    -7.66254    -1.22850
  Fock        0.00000     0.00000     0.00000     0.00000     0.00000     0.00000
  vdW       -13.30297   -13.33486    -9.15941    -0.13319     0.38647     0.19881
  -------------------------------------------------------------------------------------
  Total      43.87329    52.57131    58.64598   -15.74590   -18.30537    -2.90129
  in kB      25.76560    30.87371    34.44121    -9.24714   -10.75025    -1.70385
  external pressure =       30.36 kB  Pullay stress =        0.00 kB

  kinetic pressure (ideal gas correction) =      0.34 kB
  total pressure  =     30.70 kB
  Total+kin.    25.965      31.164      34.976      -9.217     -10.967      -1.764

 VOLUME and BASIS-vectors are now :
 -----------------------------------------------------------------------------
  energy-cutoff  :      550.00
  volume of cell :     2728.16
      direct lattice vectors                 reciprocal lattice vectors
    10.413457967  0.000000000  0.000000000     0.096029580  0.052948196 -0.001957781
    -4.939333945  8.958230942  0.000000000     0.000000000  0.111629183 -0.002878674
     0.180399576  0.754167833 29.245110955     0.000000000  0.000000000  0.034193750

  length of vectors
    10.413457967 10.229707788 29.255389724     0.109676910  0.111666294  0.034193750


 FORCES acting on ions
    electron-ion (+dipol)            ewald-force                    non-local-force                 convergence-correction
 -----------------------------------------------------------------------------------------------
   0.298E+00 -.950E+00 -.875E+03   -.244E+00 0.104E+01 0.880E+03   -.810E-01 -.232E+00 -.443E+01   0.144E-04 0.485E-03 0.736E-03
   0.222E+01 -.928E+00 -.874E+03   -.215E+01 0.106E+01 0.880E+03   -.316E+00 -.334E+00 -.440E+01   0.378E-04 -.117E-03 0.344E-03
   -.197E+01 0.354E+01 -.877E+03   0.205E+01 -.348E+01 0.882E+03   0.119E+00 -.599E+00 -.450E+01   0.209E-03 -.227E-03 0.913E-03
   0.282E+01 -.218E+00 -.877E+03   -.278E+01 0.302E+00 0.882E+03   -.276E+00 -.188E+00 -.434E+01   -.714E-04 -.262E-03 0.114E-02
   -.143E+00 0.323E+01 -.875E+03   0.219E+00 -.324E+01 0.880E+03   0.181E-01 -.476E+00 -.457E+01   -.544E-03 0.208E-03 0.700E-03
   0.400E+01 0.220E+00 -.876E+03   -.398E+01 -.168E+00 0.881E+03   -.347E+00 -.871E-01 -.482E+01   0.275E-04 -.289E-03 0.635E-03
   0.892E+00 0.233E+01 -.878E+03   -.814E+00 -.227E+01 0.884E+03   -.162E+00 -.532E+00 -.463E+01   0.555E-04 0.319E-03 0.691E-03
   0.221E+01 -.594E+00 -.875E+03   -.220E+01 0.640E+00 0.881E+03   -.277E+00 -.136E+00 -.465E+01   0.504E-03 0.640E-04 0.850E-03
   0.225E+01 0.877E+00 -.877E+03   -.218E+01 -.835E+00 0.883E+03   -.328E+00 -.119E+00 -.402E+01   -.254E-03 -.223E-03 0.950E-03
   0.195E+01 0.864E+00 0.129E+03   -.194E+01 -.784E+00 -.123E+03   -.289E+00 -.448E+00 -.442E+01   -.395E-04 0.233E-03 0.461E-03
   0.361E+01 0.514E+01 0.126E+03   -.356E+01 -.508E+01 -.120E+03   -.256E+00 -.799E+00 -.462E+01   0.175E-03 0.229E-03 0.171E-03
   0.328E+01 0.741E+00 0.124E+03   -.325E+01 -.572E+00 -.119E+03   -.373E+00 -.492E+00 -.437E+01   -.526E-04 -.411E-03 -.148E-03
   0.272E+01 -.787E+00 0.125E+03   -.266E+01 0.927E+00 -.120E+03   -.450E+00 -.514E+00 -.476E+01   0.406E-04 -.279E-03 0.554E-03
   -.193E+01 0.467E+01 0.123E+03   0.199E+01 -.459E+01 -.118E+03   -.284E-01 -.802E+00 -.400E+01   -.401E-03 -.559E-03 0.104E-02
   0.206E+01 -.108E+01 0.125E+03   -.202E+01 0.120E+01 -.120E+03   -.380E+00 -.423E+00 -.438E+01   -.793E-03 0.179E-03 0.346E-03
   0.174E+01 -.107E+01 0.126E+03   -.165E+01 0.123E+01 -.121E+03   -.363E+00 -.400E+00 -.439E+01   -.198E-04 -.287E-04 0.674E-03
   0.222E+01 0.260E+01 0.127E+03   -.220E+01 -.254E+01 -.122E+03   -.331E+00 -.530E+00 -.481E+01   0.202E-03 0.553E-03 0.607E-03
   0.223E+00 0.117E+01 0.128E+03   -.889E-01 -.105E+01 -.123E+03   -.346E+00 -.475E+00 -.459E+01   0.842E-03 0.442E-04 0.547E-03
   -.386E+00 -.129E+01 -.125E+03   0.428E+00 0.121E+01 0.119E+03   0.988E-01 0.355E+00 0.493E+01   -.226E-04 0.460E-03 -.174E-03
   0.359E+00 -.150E+01 -.126E+03   -.287E+00 0.144E+01 0.120E+03   -.813E-01 0.410E+00 0.434E+01   -.184E-05 -.181E-03 0.225E-03
   0.457E+01 0.185E+01 -.128E+03   -.456E+01 -.194E+01 0.123E+03   -.489E+00 0.183E+00 0.463E+01   -.252E-04 -.294E-03 -.257E-03
   0.330E+01 -.608E+00 -.126E+03   -.327E+01 0.534E+00 0.121E+03   -.217E+00 0.244E+00 0.444E+01   -.661E-04 -.118E-03 -.516E-03
   0.112E+01 -.230E+01 -.126E+03   -.111E+01 0.226E+01 0.121E+03   -.681E-01 0.440E+00 0.455E+01   -.538E-03 0.306E-03 -.119E-03
   0.424E-01 0.230E+01 -.127E+03   0.167E-01 -.239E+01 0.121E+03   -.193E-01 0.163E+00 0.475E+01   0.176E-03 -.408E-03 0.117E-03
   -.377E+00 0.327E+00 -.126E+03   0.378E+00 -.376E+00 0.121E+03   0.720E-01 0.159E+00 0.440E+01   0.100E-03 0.458E-03 -.148E-03
   0.231E+01 -.609E+01 -.127E+03   -.229E+01 0.609E+01 0.121E+03   -.273E+00 0.648E+00 0.466E+01   0.546E-03 0.146E-03 -.310E-03
   -.811E+00 0.398E+01 -.123E+03   0.888E+00 -.412E+01 0.118E+03   0.730E-01 0.127E-01 0.478E+01   -.150E-03 -.325E-03 -.344E-03
   -.216E+01 -.363E+00 0.874E+03   0.224E+01 0.300E+00 -.879E+03   0.224E+00 0.232E+00 0.468E+01   0.127E-03 0.136E-03 -.923E-03
   0.128E+01 -.925E+00 0.875E+03   -.125E+01 0.937E+00 -.880E+03   0.103E+00 0.186E+00 0.459E+01   0.251E-03 0.528E-03 -.634E-03
   -.419E-01 0.457E+00 0.877E+03   0.108E+00 -.402E+00 -.883E+03   0.247E-01 -.904E-01 0.457E+01   0.131E-03 -.382E-03 -.446E-03
   0.230E+01 -.477E+00 0.874E+03   -.224E+01 0.392E+00 -.879E+03   -.372E+00 0.229E+00 0.446E+01   0.122E-03 -.467E-03 -.111E-02
   -.654E-01 0.120E+01 0.879E+03   0.798E-01 -.129E+01 -.884E+03   -.261E-01 0.275E+00 0.428E+01   -.460E-03 -.433E-03 -.143E-02
   0.233E+01 -.217E+01 0.876E+03   -.232E+01 0.212E+01 -.882E+03   -.269E+00 0.329E+00 0.435E+01   -.935E-03 0.227E-03 -.959E-03
   0.518E+01 -.441E-01 0.878E+03   -.513E+01 0.236E-01 -.883E+03   -.618E+00 0.200E+00 0.434E+01   -.247E-03 -.171E-03 -.120E-02
   0.114E+01 0.523E+00 0.874E+03   -.111E+01 -.619E+00 -.879E+03   -.146E+00 0.257E+00 0.458E+01   0.212E-03 0.561E-03 -.115E-02
   0.186E+01 -.460E+00 0.875E+03   -.177E+01 0.389E+00 -.881E+03   -.357E+00 0.404E+00 0.486E+01   0.780E-03 0.456E-04 -.112E-02
   -.220E+01 -.152E+01 -.502E+03   0.226E+01 0.157E+01 0.502E+03   -.180E+00 0.171E+00 -.137E+00   -.823E-04 0.394E-03 0.195E-03
   -.238E+01 -.332E+01 -.501E+03   0.251E+01 0.334E+01 0.501E+03   0.220E+00 0.188E+00 0.172E+00   0.371E-03 0.227E-03 0.144E-03
   -.362E+01 0.333E+01 -.503E+03   0.377E+01 -.339E+01 0.503E+03   0.314E+00 -.364E+00 -.706E+00   0.209E-03 -.329E-03 -.255E-05
   -.135E+01 -.172E+01 -.504E+03   0.142E+01 0.185E+01 0.504E+03   0.401E-01 0.146E+00 -.401E+00   -.186E-03 0.629E-04 0.235E-03
   -.456E+01 0.840E+00 -.500E+03   0.477E+01 -.929E+00 0.500E+03   0.407E-01 -.249E+00 -.108E+00   -.292E-03 0.211E-03 0.233E-03
   -.239E+01 -.144E+01 -.499E+03   0.256E+01 0.154E+01 0.499E+03   0.350E-01 0.156E+00 0.325E+00   0.146E-03 -.465E-03 0.338E-03
   -.277E+01 0.326E+01 -.505E+03   0.296E+01 -.336E+01 0.505E+03   0.183E+00 -.321E+00 0.558E-01   0.234E-03 -.264E-03 0.331E-03
   -.698E+00 -.388E+01 -.499E+03   0.806E+00 0.395E+01 0.500E+03   -.476E-01 0.773E-01 0.217E+00   -.968E-04 0.303E-03 0.219E-03
   -.136E+01 0.929E+00 -.499E+03   0.148E+01 -.884E+00 0.499E+03   -.355E-01 -.318E-01 -.274E+00   -.382E-03 -.192E-03 0.123E-03
   -.330E+01 -.405E+01 0.499E+03   0.351E+01 0.423E+01 -.499E+03   0.190E+00 0.592E+00 -.149E+00   0.230E-04 -.346E-03 -.175E-03
   -.259E+00 0.258E+01 0.501E+03   0.269E+00 -.246E+01 -.501E+03   -.202E+00 -.776E-01 -.535E-01   -.471E-03 -.101E-03 -.815E-05
   0.287E+00 -.105E+01 0.504E+03   -.184E+00 0.125E+01 -.504E+03   -.109E+00 0.159E+00 -.782E-01   -.412E-03 0.462E-05 -.303E-03
   -.240E+01 -.296E+01 0.504E+03   0.264E+01 0.308E+01 -.504E+03   0.497E+00 0.112E+00 0.137E+00   -.425E-03 -.925E-04 -.233E-03
   -.480E+01 0.467E+00 0.502E+03   0.498E+01 -.380E+00 -.502E+03   0.180E+00 0.103E+00 0.293E+00   0.160E-03 -.281E-03 -.281E-04
   -.694E+01 -.378E+01 0.500E+03   0.723E+01 0.396E+01 -.500E+03   0.558E+00 0.472E+00 -.291E+00   -.165E-03 0.159E-03 -.170E-03
   -.401E+01 0.175E+01 0.501E+03   0.427E+01 -.184E+01 -.501E+03   0.141E+00 -.161E+00 0.419E-01   0.462E-03 -.576E-04 0.466E-04
   -.916E+00 -.239E+01 0.502E+03   0.104E+01 0.246E+01 -.502E+03   0.127E+00 0.457E+00 0.332E+00   0.224E-03 0.459E-03 0.529E-04
   -.217E+01 0.443E+00 0.501E+03   0.236E+01 -.338E+00 -.501E+03   0.309E+00 -.133E+00 0.134E-01   0.544E-03 0.227E-03 -.772E-04
 -----------------------------------------------------------------------------------------------
   0.455E+01 0.164E+01 -.858E+00   0.604E-13 0.783E-14 -.171E-11   -.455E+01 -.165E+01 0.853E+00   -.209E-03 -.719E-04 0.164E-02
 
 
 POSITION                                       TOTAL-FORCE (eV/Angst)
 -----------------------------------------------------------------------------------
      1.86668      1.49228     19.81159        -0.035555     -0.140085      0.992537
      0.23577      4.47743     19.80169        -0.245938     -0.201552      1.026236
     -1.42949      7.48164     19.83025         0.188422     -0.516166      0.911525
      5.35598      1.49186     19.81690        -0.232098     -0.099147      1.072407
      3.69356      4.49816     19.81818         0.084715     -0.467558      0.820892
      2.06869      7.45139     19.83704        -0.323262     -0.039533      0.562817
      8.82479      1.50627     19.83948        -0.086401     -0.457759      0.751096
      7.18634      4.46047     19.82667        -0.263352     -0.095868      0.757086
      5.52446      7.45823     19.81607        -0.257063     -0.073974      1.305025
      0.14852      2.32433     12.96059        -0.281785     -0.352027      0.876252
     -1.50177      5.33203     12.98182        -0.202659     -0.714669      0.635224
     -3.13869      8.27248     12.98944        -0.326199     -0.323953      0.785559
      3.62781      2.33280     12.99871        -0.383346     -0.356025      0.420471
      1.95270      5.32054     12.97324         0.014277     -0.695507      1.161475
      0.32100      8.29677     12.98069        -0.342911     -0.283901      0.818831
      7.08307      2.30535     12.97744        -0.272531     -0.241277      0.769718
      5.45848      5.31781     12.98667        -0.309355     -0.454840      0.429585
      3.77636      8.29495     12.97425        -0.222140     -0.326800      0.661040
      1.85934      1.41499     16.24771         0.131649      0.255263     -0.350931
      0.21383      4.38880     16.27904        -0.015245      0.321895     -1.041251
     -1.39944      7.41221     16.27162        -0.474187      0.092163     -0.645606
      5.34066      1.42683     16.27472        -0.183715      0.152389     -0.856378
      3.69565      4.40875     16.27070        -0.061040      0.381395     -0.770653
      2.04550      7.42201     16.26155         0.035422      0.066132     -0.557642
      8.79970      1.42387     16.28167         0.068664      0.095066     -0.921279
      7.18266      4.39722     16.26956        -0.239933      0.621182     -0.662485
      5.50720      7.42708     16.24364         0.138185     -0.122938     -0.423099
      0.10033      2.24641      9.42538         0.283156      0.164177     -0.707506
     -1.53779      5.23009      9.42438         0.123670      0.188694     -0.824059
     -3.18599      8.22999      9.40876         0.079593     -0.035726     -0.739022
      3.59571      2.24186      9.43289        -0.309825      0.136299     -0.903287
      1.94110      5.22630      9.41392        -0.018936      0.181013     -1.005146
      0.31121      8.20426      9.43107        -0.253316      0.262534     -0.999160
      7.09835      2.22935      9.41152        -0.556115      0.166882     -0.998588
      5.42522      5.23536      9.42343        -0.113702      0.159700     -0.813083
      3.76378      8.19076      9.40285        -0.268846      0.315025     -0.471621
     -4.82075      9.41364     18.04627        -0.114639      0.263759     -0.093412
      8.87577      3.43391     18.03519         0.362008      0.245133      0.328927
     -3.19494      6.46518     18.08017         0.503727     -0.476510     -1.044733
     -1.35011      9.42116     18.06338         0.107669      0.287313     -0.524557
      1.93877      3.46260     18.04111         0.270373     -0.352826     -0.113129
      0.29145      6.42881     18.02060         0.199765      0.265729      0.535769
      7.04844      0.48674     18.04875         0.388473     -0.461776      0.229602
      5.41436      3.44636     18.02681         0.051796      0.182053      0.412482
      3.77334      6.45333     18.04964         0.061733      0.004334     -0.460393
      1.83246      1.24063     11.21401         0.391638      0.821614     -0.283756
      0.21468      4.28241     11.20070        -0.223174     -0.017634     -0.135069
     -1.45292      7.25213     11.20166        -0.024920      0.334818     -0.318454
      5.29535      1.27645     11.19295         0.739320      0.221428      0.062803
      3.65326      4.27343     11.18661         0.376879      0.165642      0.379470
      1.98136      7.22193     11.21523         0.890836      0.712441     -0.535725
      8.76649      1.28868     11.19299         0.413819     -0.273626      0.083557
      7.13611      4.23559     11.18210         0.242820      0.580013      0.411061
      5.47833      7.26706     11.19828         0.494844     -0.070734     -0.004753
 -----------------------------------------------------------------------------------
    total drift:                                0.001265     -0.008324     -0.003330


--------------------------------------------------------------------------------------------------------



  FREE ENERGIE OF THE ION-ELECTRON SYSTEM (eV)
  ---------------------------------------------------
  free  energy   TOTEN  =      -341.84416389 eV

  energy  without entropy=     -341.84416389  energy(sigma->0) =     -341.84416389
 
 d Force = 0.4830251E-01[ 0.444E-01, 0.522E-01]  d Energy = 0.4819703E-01 0.105E-03
 d Force = 0.3435354E+02[ 0.343E+02, 0.344E+02]  d Ewald  = 0.3435354E+02 0.292E-05


--------------------------------------------------------------------------------------------------------


    POTLOK:  cpu time    0.2435: real time    0.2438


--------------------------------------------------------------------------------------------------------


           RANDOM_SEED =         169332024              324                0
   IONSTEP:  cpu time    0.0001: real time    0.0001

  ENERGY OF THE ELECTRON-ION-THERMOSTAT SYSTEM (eV)
  ---------------------------------------------------
% ion-electron   TOTEN  =      -341.844164  see above
  kinetic energy EKIN   =         0.883842
  kin. lattice  EKIN_LAT=         0.000000  (temperature  129.01 K)
  nose potential ES     =         0.046667
  nose kinetic   EPS    =         0.009861
  ---------------------------------------------------
  total energy   ETOTAL =      -340.903794 eV

  maximum distance moved by ions :      0.55E-03


 mean value of Nose-termostat <S>:     1.050 mean value of <T> :   129.013
 mean temperature <T/S>/<1/S>  :   129.013

    WAVPRE:  cpu time    0.0886: real time    0.0910
    FEWALD:  cpu time    0.0055: real time    0.0055
    ORTHCH:  cpu time    7.6482: real time    7.6692
    POTLOK:  cpu time    0.2325: real time    0.2327
    EDDIAG:  cpu time    2.3000: real time    2.3025
     LOOP+:  cpu time  470.1013: real time  471.4732
    4ORBIT:  cpu time    0.0000: real time    0.0000

 total amount of memory used by VASP MPI-rank0   336360. kBytes
=======================================================================

   base      :      30000. kBytes
   nonl-proj :     184227. kBytes
   fftplans  :      15437. kBytes
   grid      :      73553. kBytes
   one-center:        839. kBytes
   wavefun   :      32304. kBytes
 
  
  
 General timing and accounting informations for this job:
 ========================================================
  
                  Total CPU time used (sec):     5408.924
                            User time (sec):     5394.942
                          System time (sec):       13.982
                         Elapsed time (sec):     5425.622
  
                   Maximum memory used (kb):      741244.
                   Average memory used (kb):           0.
  
                          Minor page faults:       428212
                          Major page faults:            0
                 Voluntary context switches:          838
