-3.383060750099999723e+02
-3.383035519599999930e+02
-3.382949035500000150e+02
-3.382803705100000116e+02
-3.382603472900000270e+02
-3.382353604099999984e+02
-3.382060476799999833e+02
-3.381731260999999904e+02
-3.381373619400000052e+02
-3.380995469900000217e+02
-3.370237354800000276e+02
-3.370333832100000109e+02
-3.370414059299999963e+02
-3.370478039700000181e+02
-3.370526413000000048e+02
-3.370560485500000141e+02
-3.370582132999999772e+02
-3.370593734000000268e+02
-3.370598058100000003e+02
-3.370598180200000229e+02
-3.375726490900000272e+02
-3.375705402699999809e+02
-3.375649287400000276e+02
-3.375559903899999767e+02
-3.375440454399999908e+02
-3.375295374300000049e+02
-3.375130104899999992e+02
-3.374950857100000121e+02
-3.374764223600000150e+02
-3.374576979899999856e+02
-3.376870293100000140e+02
-3.376862370599999963e+02
-3.376800728000000049e+02
-3.376687007400000198e+02
-3.376524221199999829e+02
-3.376316615700000057e+02
-3.376069454799999789e+02
-3.375788843000000270e+02
-3.375481478500000208e+02
-3.375154437900000062e+02
-3.375380299500000092e+02
-3.375458214999999882e+02
-3.375513397600000189e+02
-3.375545297200000050e+02
-3.375554316899999776e+02
-3.375541732500000194e+02
-3.375509608400000161e+02
-3.375460745899999893e+02
-3.375398490800000104e+02
-3.375326527700000270e+02
-3.358880211900000177e+02
-3.359157683500000076e+02
-3.359531416300000046e+02
-3.359996203599999944e+02
-3.360546048400000245e+02
-3.361174030700000230e+02
-3.361872074799999837e+02
-3.362630897099999743e+02
-3.363439864100000136e+02
-3.364287228300000265e+02
-3.380301303100000041e+02
-3.380307370099999957e+02
-3.380265331499999775e+02
-3.380177306200000089e+02
-3.380046669000000179e+02
-3.379877921300000025e+02
-3.379676412900000173e+02
-3.379448214999999891e+02
-3.379199812800000018e+02
-3.378937849600000050e+02
-3.353999020399999722e+02
-3.354215610599999877e+02
-3.354498342900000125e+02
-3.354843582400000059e+02
-3.355246721400000069e+02
-3.355702460800000040e+02
-3.356204713000000197e+02
-3.356746782100000246e+02
-3.357321561599999882e+02
-3.357921678000000156e+02
-3.379753725900000063e+02
-3.379680891400000178e+02
-3.379562077200000090e+02
-3.379399781000000189e+02
-3.379197726099999954e+02
-3.378960798499999783e+02
-3.378694744200000173e+02
-3.378405929599999808e+02
-3.378101112200000102e+02
-3.377787234900000044e+02
-3.367395254499999737e+02
-3.367484066200000257e+02
-3.367595439099999908e+02
-3.367728292400000214e+02
-3.367881600200000207e+02
-3.368054463999999939e+02
-3.368246113000000150e+02
-3.368455839499999911e+02
-3.368683081400000106e+02
-3.368927312700000130e+02
-3.370810189700000024e+02
-3.370817052599999784e+02
-3.370803040700000111e+02
-3.370770125199999825e+02
-3.370721124600000280e+02
-3.370659569900000179e+02
-3.370589464500000076e+02
-3.370515033400000107e+02
-3.370440479499999924e+02
-3.370369780899999910e+02
-3.377740855399999873e+02
-3.377734352599999852e+02
-3.377694491999999968e+02
-3.377622602499999971e+02
-3.377520848899999919e+02
-3.377392179999999939e+02
-3.377240114300000187e+02
-3.377068749900000171e+02
-3.376882471399999872e+02
-3.376685894600000211e+02
-3.376526374100000112e+02
-3.376502735099999768e+02
-3.376445758500000238e+02
-3.376356947900000023e+02
-3.376238678500000105e+02
-3.376094164099999944e+02
-3.375927278600000250e+02
-3.375742464400000244e+02
-3.375544467000000282e+02
-3.375338231999999721e+02
-3.368998396200000229e+02
-3.369138198800000055e+02
-3.369284660299999814e+02
-3.369435020099999747e+02
-3.369587143699999956e+02
-3.369739622399999917e+02
-3.369891673999999853e+02
-3.370043116499999769e+02
-3.370194320599999855e+02
-3.370345983199999864e+02
-3.377010040900000263e+02
-3.376958817799999792e+02
-3.376865157899999872e+02
-3.376731403000000000e+02
-3.376560943100000145e+02
-3.376358111600000029e+02
-3.376127989299999967e+02
-3.375876157399999897e+02
-3.375608566999999880e+02
-3.375331290199999899e+02
-3.373977410599999871e+02
-3.373899519500000110e+02
-3.373796545899999728e+02
-3.373671414199999958e+02
-3.373527999899999941e+02
-3.373370946000000004e+02
-3.373205514200000152e+02
-3.373037366099999872e+02
-3.372872404400000050e+02
-3.372716557900000112e+02
-3.370926282400000105e+02
-3.370939046299999973e+02
-3.370970253500000240e+02
-3.371019729800000277e+02
-3.371087803199999939e+02
-3.371175192000000038e+02
-3.371282894700000270e+02
-3.371412035000000174e+02
-3.371563669899999809e+02
-3.371738544799999886e+02
-3.373397973300000103e+02
-3.373477991799999813e+02
-3.373535914500000104e+02
-3.373570207199999800e+02
-3.373580507199999943e+02
-3.373567599900000005e+02
-3.373533319699999993e+02
-3.373480396100000007e+02
-3.373412205500000027e+02
-3.373332693799999902e+02
-3.370371973300000263e+02
-3.370330473000000211e+02
-3.370290491200000247e+02
-3.370252986400000168e+02
-3.370219169299999749e+02
-3.370190575899999885e+02
-3.370168973199999982e+02
-3.370156319800000233e+02
-3.370154725599999779e+02
-3.370166314599999851e+02
-3.372249542700000120e+02
-3.372407609399999728e+02
-3.372550755099999833e+02
-3.372677840700000047e+02
-3.372789227700000083e+02
-3.372886528099999737e+02
-3.372972440400000096e+02
-3.373050515799999971e+02
-3.373124735700000087e+02
-3.373199203400000101e+02
-3.380040619499999934e+02
-3.380045248499999957e+02
-3.380002880700000105e+02
-3.379914548300000092e+02
-3.379782476299999985e+02
-3.379609996400000114e+02
-3.379401450899999872e+02
-3.379161942100000147e+02
-3.378897129200000222e+02
-3.378613035800000262e+02
-3.373252587700000049e+02
-3.373231953999999746e+02
-3.373176672199999757e+02
-3.373088287699999910e+02
-3.372969251900000245e+02
-3.372822835399999803e+02
-3.372653008500000169e+02
-3.372464286599999923e+02
-3.372261590100000035e+02
-3.372050106500000197e+02
-3.372370981400000005e+02
-3.372356832599999734e+02
-3.372332639900000117e+02
-3.372301835100000176e+02
-3.372268409499999962e+02
-3.372236909900000228e+02
-3.372212013600000091e+02
-3.372198346299999798e+02
-3.372200235199999838e+02
-3.372221534600000155e+02
-3.376262287499999957e+02
-3.376257111799999961e+02
-3.376201104200000032e+02
-3.376097839399999998e+02
-3.375952718699999764e+02
-3.375772694799999840e+02
-3.375565872299999910e+02
-3.375341271600000255e+02
-3.375108221899999990e+02
-3.374876118799999745e+02
-3.373507161200000155e+02
-3.373507821700000022e+02
-3.373481829199999993e+02
-3.373430674800000020e+02
-3.373356909199999905e+02
-3.373263872100000071e+02
-3.373155575800000179e+02
-3.373036448400000040e+02
-3.372911119799999824e+02
-3.372784117900000069e+02
-3.373985858099999859e+02
-3.374124264899999730e+02
-3.374243732300000147e+02
-3.374343925700000000e+02
-3.374425439899999901e+02
-3.374489855599999828e+02
-3.374539567599999828e+02
-3.374577730600000223e+02
-3.374608130199999891e+02
-3.374634957000000099e+02
-3.377836364799999842e+02
-3.377756820700000162e+02
-3.377633021199999916e+02
-3.377468777299999942e+02
-3.377269293499999776e+02
-3.377040888000000223e+02
-3.376790722200000232e+02
-3.376526401799999917e+02
-3.376255760600000144e+02
-3.375986467700000162e+02
-3.371270915000000059e+02
-3.371312997699999983e+02
-3.371354478800000152e+02
-3.371395315999999980e+02
-3.371435908700000255e+02
-3.371477133099999719e+02
-3.371520269200000257e+02
-3.371567006399999968e+02
-3.371619279600000141e+02
-3.371679325700000049e+02
-3.374832994000000213e+02
-3.374826634400000103e+02
-3.374790907999999945e+02
-3.374727531799999838e+02
-3.374639331399999946e+02
-3.374530004700000063e+02
-3.374404032499999744e+02
-3.374266442800000050e+02
-3.374122459299999832e+02
-3.373977327299999729e+02
-3.372432389100000023e+02
-3.372327533000000130e+02
-3.372218688500000212e+02
-3.372108828600000265e+02
-3.372001336399999900e+02
-3.371899969300000066e+02
-3.371808562100000017e+02
-3.371730956900000251e+02
-3.371670727800000122e+02
-3.371631039100000180e+02
-3.373864009000000124e+02
-3.373749178699999902e+02
-3.373630852300000242e+02
-3.373512966999999776e+02
-3.373400433400000225e+02
-3.373298970299999837e+02
-3.373214779599999815e+02
-3.373154292099999907e+02
-3.373123803700000281e+02
-3.373129146599999899e+02
-3.378715055600000028e+02
-3.378739975400000048e+02
-3.378727505499999779e+02
-3.378678321500000266e+02
-3.378594186500000092e+02
-3.378477827599999728e+02
-3.378332843300000263e+02
-3.378163541499999951e+02
-3.377974791099999834e+02
-3.377771803900000123e+02
-3.370715572799999791e+02
-3.370720864099999972e+02
-3.370734170399999812e+02
-3.370755174899999815e+02
-3.370783776999999759e+02
-3.370820015900000044e+02
-3.370864147600000251e+02
-3.370916521600000237e+02
-3.370977404299999876e+02
-3.371047045700000240e+02
-3.379225885500000004e+02
-3.379238954599999829e+02
-3.379213992900000108e+02
-3.379151888399999848e+02
-3.379054728799999907e+02
-3.378925735199999849e+02
-3.378769173100000103e+02
-3.378590071599999760e+02
-3.378394033199999740e+02
-3.378187056699999857e+02
-3.362076639100000079e+02
-3.362122748699999875e+02
-3.362243662299999869e+02
-3.362439367100000140e+02
-3.362708642399999803e+02
-3.363048932899999954e+02
-3.363456118799999786e+02
-3.363924444400000198e+02
-3.364446444299999825e+02
-3.365013011799999845e+02
-3.380040472900000168e+02
-3.380087683900000002e+02
-3.380089130499999897e+02
-3.380046338600000126e+02
-3.379962337000000048e+02
-3.379841572099999780e+02
-3.379689672499999915e+02
-3.379513126599999850e+02
-3.379319079100000067e+02
-3.379115012799999818e+02
-3.365731847199999720e+02
-3.365942172399999777e+02
-3.366233551199999852e+02
-3.366601232699999855e+02
-3.367039651100000128e+02
-3.367542459499999836e+02
-3.368102445299999772e+02
-3.368711663099999782e+02
-3.369361463700000172e+02
-3.370042654399999833e+02
-3.377914639599999873e+02
-3.377949886900000251e+02
-3.377957772400000067e+02
-3.377939613600000257e+02
-3.377898023899999771e+02
-3.377836774400000195e+02
-3.377760437100000104e+02
-3.377674334100000237e+02
-3.377584055300000045e+02
-3.377495238100000279e+02
-3.370568826200000103e+02
-3.370544789400000241e+02
-3.370506004700000062e+02
-3.370453629699999851e+02
-3.370389278499999932e+02
-3.370314973000000123e+02
-3.370233019799999852e+02
-3.370145993900000008e+02
-3.370056609700000081e+02
-3.369967653400000245e+02
-3.371884836400000154e+02
-3.371888741099999720e+02
-3.371881844399999864e+02
-3.371865042499999845e+02
-3.371839724600000068e+02
-3.371807731399999852e+02
-3.371771286399999781e+02
-3.371732911799999783e+02
-3.371695354600000201e+02
-3.371661481799999933e+02
-3.364111979300000144e+02
-3.364238364600000182e+02
-3.364417859299999805e+02
-3.364648859600000037e+02
-3.364929657700000121e+02
-3.365258259799999792e+02
-3.365632119699999976e+02
-3.366048102199999903e+02
-3.366502138899999750e+02
-3.366989172799999892e+02
-3.375694855799999914e+02
-3.375644009499999925e+02
-3.375582013700000061e+02
-3.375511534999999981e+02
-3.375436143300000253e+02
-3.375360106800000040e+02
-3.375288229099999739e+02
-3.375225623300000279e+02
-3.375177418000000102e+02
-3.375148555900000247e+02
-3.375575284500000066e+02
-3.375616732299999967e+02
-3.375646564599999806e+02
-3.375664866600000096e+02
-3.375672302099999911e+02
-3.375670047799999907e+02
-3.375659718599999906e+02
-3.375643370999999888e+02
-3.375623417499999732e+02
-3.375602530900000033e+02
-3.376649192200000016e+02
-3.376642234000000258e+02
-3.376598708899999792e+02
-3.376520219399999974e+02
-3.376409658599999943e+02
-3.376271030199999927e+02
-3.376109256400000049e+02
-3.375929885200000058e+02
-3.375738843699999734e+02
-3.375542113899999777e+02
-3.378812871399999835e+02
-3.378849327699999776e+02
-3.378843069700000115e+02
-3.378796946699999921e+02
-3.378715850099999898e+02
-3.378606265600000143e+02
-3.378476001099999735e+02
-3.378333630899999775e+02
-3.378188092999999981e+02
-3.378048224799999844e+02
-3.360175937700000190e+02
-3.360303367600000115e+02
-3.360482354299999770e+02
-3.360710339699999736e+02
-3.360984213699999827e+02
-3.361300411199999871e+02
-3.361654841499999975e+02
-3.362043046599999911e+02
-3.362460226499999862e+02
-3.362901313699999832e+02
-3.368644165000000044e+02
-3.368747261199999912e+02
-3.368863337999999885e+02
-3.368991297000000031e+02
-3.369130064999999945e+02
-3.369278709800000229e+02
-3.369436332399999969e+02
-3.369602230500000246e+02
-3.369775720399999841e+02
-3.369956249100000036e+02
-3.373783824000000209e+02
-3.373718706399999974e+02
-3.373615733199999909e+02
-3.373477834199999847e+02
-3.373308924199999979e+02
-3.373113754799999811e+02
-3.372897670099999914e+02
-3.372666406999999822e+02
-3.372425918399999887e+02
-3.372182198500000254e+02
-3.373917387600000097e+02
-3.373979919899999800e+02
-3.374032644900000264e+02
-3.374075369999999907e+02
-3.374108390900000245e+02
-3.374132537799999909e+02
-3.374149108799999794e+02
-3.374159865600000217e+02
-3.374166917800000078e+02
-3.374172701499999789e+02
-3.375608279900000070e+02
-3.375511767200000008e+02
-3.375379357400000231e+02
-3.375214358499999889e+02
-3.375020988200000147e+02
-3.374804191999999716e+02
-3.374569331000000147e+02
-3.374322088999999778e+02
-3.374068163900000172e+02
-3.373813169300000254e+02
-3.377244049099999756e+02
-3.377261799799999835e+02
-3.377229876999999760e+02
-3.377150209700000119e+02
-3.377026208400000087e+02
-3.376862608999999793e+02
-3.376665333999999916e+02
-3.376441150800000059e+02
-3.376197476500000221e+02
-3.375942010300000220e+02
-3.362643346699999825e+02
-3.362671921099999963e+02
-3.362701064299999985e+02
-3.362730813800000078e+02
-3.362761631100000272e+02
-3.362794374800000128e+02
-3.362830297400000177e+02
-3.362871013999999832e+02
-3.362918414800000164e+02
-3.362974596099999758e+02
-3.374704075199999807e+02
-3.374693827099999908e+02
-3.374660900700000070e+02
-3.374606937799999855e+02
-3.374534580100000198e+02
-3.374447301000000152e+02
-3.374349344500000143e+02
-3.374245439000000033e+02
-3.374140715199999931e+02
-3.374040424899999948e+02
-3.368919457900000225e+02
-3.368884537999999793e+02
-3.368872374700000023e+02
-3.368883929300000091e+02
-3.368920021399999882e+02
-3.368981316699999979e+02
-3.369068333100000245e+02
-3.369181337499999813e+02
-3.369320359600000074e+02
-3.369485123200000203e+02
-3.372761988799999813e+02
-3.372835521900000231e+02
-3.372923584900000264e+02
-3.373025764399999957e+02
-3.373142125100000044e+02
-3.373273144099999854e+02
-3.373419511499999999e+02
-3.373581957600000010e+02
-3.373761086700000078e+02
-3.373957236400000284e+02
-3.371526254699999754e+02
-3.371535504199999878e+02
-3.371534162099999890e+02
-3.371522792999999751e+02
-3.371502468499999736e+02
-3.371474805799999785e+02
-3.371441847199999984e+02
-3.371405973000000245e+02
-3.371369876599999884e+02
-3.371336452200000053e+02
-3.377742481099999736e+02
-3.377789554600000201e+02
-3.377797028800000021e+02
-3.377765699899999845e+02
-3.377697644799999921e+02
-3.377596032700000137e+02
-3.377465031799999906e+02
-3.377309581900000239e+02
-3.377135185899999783e+02
-3.376947697300000186e+02
-3.368015308600000139e+02
-3.367925668799999812e+02
-3.367872836399999983e+02
-3.367857473700000241e+02
-3.367879953999999998e+02
-3.367940279200000191e+02
-3.368038080200000195e+02
-3.368172636099999977e+02
-3.368342809499999930e+02
-3.368547036200000093e+02
-3.365914043899999797e+02
-3.365907038299999954e+02
-3.365933319700000084e+02
-3.365992803600000229e+02
-3.366085183700000130e+02
-3.366209940699999947e+02
-3.366366285500000117e+02
-3.366553213400000004e+02
-3.366769449099999747e+02
-3.367013352600000076e+02
-3.373240526700000146e+02
-3.373218002699999829e+02
-3.373147093000000041e+02
-3.373029806200000280e+02
-3.372869599200000152e+02
-3.372671158900000137e+02
-3.372440118700000085e+02
-3.372182868200000030e+02
-3.371906256899999903e+02
-3.371617274700000166e+02
-3.378884481399999800e+02
-3.378880092900000136e+02
-3.378821315800000207e+02
-3.378710064900000134e+02
-3.378549997800000142e+02
-3.378346224599999914e+02
-3.378105129300000158e+02
-3.377833916100000238e+02
-3.377540350799999942e+02
-3.377232420199999865e+02
-3.369378735199999824e+02
-3.369337047000000211e+02
-3.369332948599999895e+02
-3.369369474399999831e+02
-3.369449457399999801e+02
-3.369575235600000269e+02
-3.369748483700000179e+02
-3.369969832699999870e+02
-3.370238651600000139e+02
-3.370552819700000100e+02
-3.371414023099999895e+02
-3.371350578799999766e+02
-3.371268157900000233e+02
-3.371168834700000048e+02
-3.371055460499999867e+02
-3.370931652900000017e+02
-3.370801615600000218e+02
-3.370669981899999925e+02
-3.370541691199999832e+02
-3.370421805999999947e+02
-3.372872625300000209e+02
-3.372893829999999866e+02
-3.372863579400000162e+02
-3.372783934899999849e+02
-3.372658612500000004e+02
-3.372492895899999894e+02
-3.372293330699999956e+02
-3.372067434200000093e+02
-3.371823330999999939e+02
-3.371569510200000082e+02
-3.375305507499999749e+02
-3.375220888700000046e+02
-3.375128853599999843e+02
-3.375032388899999773e+02
-3.374935120100000177e+02
-3.374841035000000034e+02
-3.374754451399999766e+02
-3.374679635499999790e+02
-3.374620643700000073e+02
-3.374581138500000179e+02
-3.378222674200000029e+02
-3.378242781800000216e+02
-3.378225027700000282e+02
-3.378171060500000067e+02
-3.378083763899999781e+02
-3.377967101799999909e+02
-3.377825968899999793e+02
-3.377665944899999886e+02
-3.377493050799999992e+02
-3.377313455999999974e+02
-3.378099317900000074e+02
-3.378060205699999869e+02
-3.377992850300000214e+02
-3.377899086799999964e+02
-3.377782057599999916e+02
-3.377646140400000263e+02
-3.377496700799999871e+02
-3.377339813500000218e+02
-3.377181981699999938e+02
-3.377029853099999741e+02
-3.373766800700000204e+02
-3.373803570399999785e+02
-3.373854430200000252e+02
-3.373918986400000222e+02
-3.373997307899999782e+02
-3.374089816100000121e+02
-3.374197278600000232e+02
-3.374320631599999842e+02
-3.374460830099999953e+02
-3.374618690400000105e+02
-3.374411172999999735e+02
-3.374403904999999781e+02
-3.374365554799999813e+02
-3.374296925699999861e+02
-3.374200133400000254e+02
-3.374078469300000052e+02
-3.373936164300000087e+02
-3.373778346799999781e+02
-3.373610702199999878e+02
-3.373439209399999754e+02
-3.373608947899999748e+02
-3.373599651999999764e+02
-3.373588867500000106e+02
-3.373577299599999719e+02
-3.373566461300000014e+02
-3.373558473800000002e+02
-3.373555867200000193e+02
-3.373561548499999958e+02
-3.373578416099999799e+02
-3.373609248299999877e+02
-3.379068742700000030e+02
-3.378997851299999979e+02
-3.378884876100000270e+02
-3.378732189500000231e+02
-3.378543406800000071e+02
-3.378323313999999868e+02
-3.378077535300000136e+02
-3.377812441500000205e+02
-3.377534788799999887e+02
-3.377251534700000093e+02
-3.372129127300000278e+02
-3.372128999799999747e+02
-3.372099785899999915e+02
-3.372041919499999949e+02
-3.371956808499999738e+02
-3.371846772600000008e+02
-3.371714926099999730e+02
-3.371564990599999874e+02
-3.371401236599999720e+02
-3.371228274200000214e+02
-3.373051664899999764e+02
-3.373104991600000062e+02
-3.373151107499999739e+02
-3.373190296099999728e+02
-3.373223632500000235e+02
-3.373252899799999796e+02
-3.373280445899999904e+02
-3.373308967799999891e+02
-3.373341316799999845e+02
-3.373380272499999819e+02
-3.374161550800000100e+02
-3.374088695799999869e+02
-3.373988189899999952e+02
-3.373861638299999868e+02
-3.373711456600000247e+02
-3.373540737999999806e+02
-3.373353228500000114e+02
-3.373153111799999806e+02
-3.372944913900000188e+02
-3.372733398600000214e+02
-3.376681403200000204e+02
-3.376695206900000130e+02
-3.376661748199999806e+02
-3.376582030199999735e+02
-3.376458662399999753e+02
-3.376295664599999782e+02
-3.376098266299999864e+02
-3.375872601899999950e+02
-3.375625469299999963e+02
-3.375363958500000194e+02
-3.374985795499999881e+02
-3.374961088900000163e+02
-3.374895434399999772e+02
-3.374791110900000035e+02
-3.374651647700000012e+02
-3.374481615600000168e+02
-3.374286505700000021e+02
-3.374072422799999913e+02
-3.373845948300000259e+02
-3.373613822300000038e+02
-3.379235431700000163e+02
-3.379210289999999759e+02
-3.379138771699999779e+02
-3.379023146100000190e+02
-3.378866796500000191e+02
-3.378674162500000193e+02
-3.378450455099999772e+02
-3.378201425799999811e+02
-3.377933170300000256e+02
-3.377651787099999865e+02
-3.375716117900000199e+02
-3.375627241500000082e+02
-3.375511011899999971e+02
-3.375369769999999789e+02
-3.375206729000000223e+02
-3.375025829699999917e+02
-3.374831635300000130e+02
-3.374629117700000052e+02
-3.374423600000000079e+02
-3.374220557500000268e+02
-3.378837914900000214e+02
-3.378782797100000153e+02
-3.378673349700000017e+02
-3.378512794999999755e+02
-3.378305622799999810e+02
-3.378057451500000070e+02
-3.377774706399999900e+02
-3.377464408299999832e+02
-3.377133903299999815e+02
-3.376790564400000108e+02
-3.376264156500000126e+02
-3.376230897600000276e+02
-3.376167687500000056e+02
-3.376076365499999952e+02
-3.375959776899999838e+02
-3.375821741099999826e+02
-3.375666817700000024e+02
-3.375500212100000113e+02
-3.375327536799999848e+02
-3.375154664199999957e+02
-3.372130719599999793e+02
-3.372149651899999867e+02
-3.372179637400000161e+02
-3.372222407300000100e+02
-3.372280304000000228e+02
-3.372356168499999853e+02
-3.372452945100000079e+02
-3.372573520999999914e+02
-3.372720262799999773e+02
-3.372894848999999908e+02
-3.373162758199999871e+02
-3.373171849700000280e+02
-3.373150240900000085e+02
-3.373099320499999862e+02
-3.373021496999999727e+02
-3.372920096999999942e+02
-3.372799211000000241e+02
-3.372663511499999913e+02
-3.372518106499999817e+02
-3.372368326600000046e+02
-3.367442754499999751e+02
-3.367403048200000057e+02
-3.367362214099999846e+02
-3.367320752900000116e+02
-3.367279727700000080e+02
-3.367240706900000191e+02
-3.367205775200000062e+02
-3.367177494200000183e+02
-3.367158813300000020e+02
-3.367153005499999949e+02
-3.374230852700000014e+02
-3.374238411499999870e+02
-3.374239852900000187e+02
-3.374235842499999762e+02
-3.374227508100000250e+02
-3.374216383699999824e+02
-3.374204327799999987e+02
-3.374193384399999900e+02
-3.374185615499999926e+02
-3.374183024700000146e+02
-3.373816664299999957e+02
-3.373796745500000043e+02
-3.373751368299999740e+02
-3.373682173899999839e+02
-3.373591598699999849e+02
-3.373482702499999846e+02
-3.373359062200000267e+02
-3.373224571100000162e+02
-3.373083349799999837e+02
-3.372939588500000241e+02
-3.372311722000000032e+02
-3.372284558299999730e+02
-3.372244496899999717e+02
-3.372192997000000219e+02
-3.372131954800000244e+02
-3.372063675900000135e+02
-3.371990689200000020e+02
-3.371915756500000043e+02
-3.371841758499999742e+02
-3.371771541800000023e+02
-3.371560457200000087e+02
-3.371529107000000067e+02
-3.371509995299999787e+02
-3.371503875099999732e+02
-3.371511894700000198e+02
-3.371535690499999873e+02
-3.371577177199999937e+02
-3.371638314900000069e+02
-3.371721029000000271e+02
-3.371826957700000094e+02
-3.374241537899999912e+02
-3.374251405399999726e+02
-3.374232115899999940e+02
-3.374184919699999909e+02
-3.374111918599999740e+02
-3.374016012499999988e+02
-3.373900716399999737e+02
-3.373770137199999795e+02
-3.373628772299999810e+02
-3.373481379500000230e+02
-3.373043766299999788e+02
-3.373103245099999867e+02
-3.373149847700000237e+02
-3.373183554699999718e+02
-3.373204972799999837e+02
-3.373215348499999777e+02
-3.373216548099999841e+02
-3.373210878599999774e+02
-3.373201106999999865e+02
-3.373190338499999825e+02
-3.365325601200000278e+02
-3.365334809600000199e+02
-3.365346355300000027e+02
-3.365360948200000166e+02
-3.365379710400000022e+02
-3.365404074400000241e+02
-3.365435762199999772e+02
-3.365476747399999908e+02
-3.365529172899999821e+02
-3.365595218799999770e+02
-3.381373289900000145e+02
-3.381354665100000148e+02
-3.381284738599999855e+02
-3.381166473200000269e+02
-3.381004363399999875e+02
-3.380804097399999932e+02
-3.380572341999999821e+02
-3.380316379099999722e+02
-3.380043785199999888e+02
-3.379762203500000055e+02
-3.375173071799999889e+02
-3.375190504400000009e+02
-3.375193994200000134e+02
-3.375183389800000100e+02
-3.375159133099999735e+02
-3.375122278399999800e+02
-3.375074447399999826e+02
-3.375017756099999815e+02
-3.374954755200000136e+02
-3.374888392299999964e+02
-3.378672629299999812e+02
-3.378684224599999766e+02
-3.378658830300000204e+02
-3.378597513999999933e+02
-3.378502529099999947e+02
-3.378377153600000042e+02
-3.378225558799999817e+02
-3.378052632399999879e+02
-3.377863698400000203e+02
-3.377664375800000016e+02
-3.369895712800000069e+02
-3.370038491000000249e+02
-3.370163658600000076e+02
-3.370269885100000238e+02
-3.370357367700000282e+02
-3.370427657800000247e+02
-3.370483599799999865e+02
-3.370528985199999852e+02
-3.370568290200000092e+02
-3.370606336999999826e+02
-3.376605347199999869e+02
-3.376559972100000095e+02
-3.376484726300000148e+02
-3.376381588599999759e+02
-3.376253532999999720e+02
-3.376104264200000102e+02
-3.375938146799999799e+02
-3.375759978699999806e+02
-3.375574840500000278e+02
-3.375387914500000193e+02
-3.369416067000000226e+02
-3.369357168399999978e+02
-3.369299889999999778e+02
-3.369245894399999770e+02
-3.369197079799999983e+02
-3.369155542500000138e+02
-3.369123549000000253e+02
-3.369103425900000275e+02
-3.369097503400000164e+02
-3.369108038699999952e+02
-3.368660267000000204e+02
-3.368699219800000151e+02
-3.368734195399999862e+02
-3.368764255899999966e+02
-3.368788900499999954e+02
-3.368808148699999947e+02
-3.368822494400000096e+02
-3.368832901100000186e+02
-3.368840798400000267e+02
-3.368847948800000154e+02
-3.361492865199999756e+02
-3.361563367399999720e+02
-3.361663624500000083e+02
-3.361794163399999888e+02
-3.361956157299999859e+02
-3.362151242499999739e+02
-3.362381189100000256e+02
-3.362647660000000087e+02
-3.362951806199999965e+02
-3.363293929899999739e+02
-3.378131804000000216e+02
-3.378074064799999974e+02
-3.377977407299999868e+02
-3.377843275000000176e+02
-3.377674182999999744e+02
-3.377473633899999754e+02
-3.377245864700000197e+02
-3.376995793400000139e+02
-3.376728778799999873e+02
-3.376450501300000155e+02
-3.358743019300000014e+02
-3.358850655699999948e+02
-3.359013310899999851e+02
-3.359228860000000054e+02
-3.359494668199999978e+02
-3.359807570099999907e+02
-3.360163831799999912e+02
-3.360559330799999884e+02
-3.360989415899999813e+02
-3.361449191599999722e+02
-3.378539377899999749e+02
-3.378541165799999817e+02
-3.378490928499999768e+02
-3.378390918499999884e+02
-3.378244895299999939e+02
-3.378057945400000222e+02
-3.377836141600000133e+02
-3.377586364699999990e+02
-3.377315956099999994e+02
-3.377032414099999755e+02
-3.379129460999999992e+02
-3.379102060199999755e+02
-3.379035303599999907e+02
-3.378931072600000221e+02
-3.378792532900000083e+02
-3.378624003300000140e+02
-3.378430752400000188e+02
-3.378218771200000106e+02
-3.377994528799999898e+02
-3.377764794700000266e+02
-3.375793707199999858e+02
-3.375733853500000237e+02
-3.375626365599999872e+02
-3.375473992600000201e+02
-3.375280576999999766e+02
-3.375050782499999968e+02
-3.374790063799999871e+02
-3.374504279799999722e+02
-3.374199611700000219e+02
-3.373882291900000041e+02
-3.356593205099999864e+02
-3.356801561199999924e+02
-3.357095484399999918e+02
-3.357471655499999770e+02
-3.357925858500000231e+02
-3.358452875300000073e+02
-3.359046176699999933e+02
-3.359697815700000092e+02
-3.360398414300000240e+02
-3.361137248800000066e+02
-3.373061513900000250e+02
-3.373107391199999938e+02
-3.373150264399999969e+02
-3.373189687099999787e+02
-3.373226230800000280e+02
-3.373261480599999800e+02
-3.373297695499999804e+02
-3.373337697100000128e+02
-3.373384603700000071e+02
-3.373441517800000042e+02
-3.377845044499999858e+02
-3.377683870800000250e+02
-3.377488402199999769e+02
-3.377262873099999752e+02
-3.377012974500000269e+02
-3.376745655099999794e+02
-3.376468765399999938e+02
-3.376190699100000074e+02
-3.375920226499999899e+02
-3.375665989799999807e+02
-3.378729118499999799e+02
-3.378713955700000042e+02
-3.378644493099999977e+02
-3.378522355900000207e+02
-3.378350763999999913e+02
-3.378134336499999790e+02
-3.377878907200000071e+02
-3.377591294000000062e+02
-3.377278909500000168e+02
-3.376949597999999924e+02
-3.373028270400000110e+02
-3.373033646299999759e+02
-3.372998555099999862e+02
-3.372924509800000124e+02
-3.372813994499999808e+02
-3.372670312100000274e+02
-3.372497469900000056e+02
-3.372299969200000191e+02
-3.372082671900000150e+02
-3.371850594599999908e+02
-3.372270781999999940e+02
-3.372293724200000042e+02
-3.372302037700000028e+02
-3.372297265999999922e+02
-3.372281724599999961e+02
-3.372258374200000048e+02
-3.372230766399999879e+02
-3.372202806700000224e+02
-3.372178726800000277e+02
-3.372162823200000048e+02
-3.361836894099999995e+02
-3.361828051200000118e+02
-3.361841286299999751e+02
-3.361876705199999833e+02
-3.361934546100000034e+02
-3.362015116399999783e+02
-3.362118793999999866e+02
-3.362246015299999726e+02
-3.362397214800000143e+02
-3.362572843400000124e+02
-3.374422640399999977e+02
-3.374499653199999898e+02
-3.374554985400000078e+02
-3.374588158600000156e+02
-3.374599622599999975e+02
-3.374590746999999737e+02
-3.374563669300000015e+02
-3.374521270299999856e+02
-3.374466915500000255e+02
-3.374404246099999796e+02
-3.376093769799999791e+02
-3.376032648300000005e+02
-3.375926558699999873e+02
-3.375778420099999835e+02
-3.375592158200000199e+02
-3.375372607300000141e+02
-3.375125209600000176e+02
-3.374855877499999792e+02
-3.374570741200000157e+02
-3.374276009999999815e+02
-3.377563157800000226e+02
-3.377572508999999741e+02
-3.377546263699999827e+02
-3.377485783299999866e+02
-3.377393845299999953e+02
-3.377274498300000118e+02
-3.377132822199999964e+02
-3.376974727799999982e+02
-3.376806605200000035e+02
-3.376635077000000251e+02
-3.364871242899999970e+02
-3.364930842699999971e+02
-3.364999194399999851e+02
-3.365075419699999770e+02
-3.365158637600000020e+02
-3.365248227999999813e+02
-3.365343667000000210e+02
-3.365444591400000149e+02
-3.365550736100000222e+02
-3.365662060500000052e+02
-3.372957248700000150e+02
-3.372915583899999774e+02
-3.372866481300000032e+02
-3.372811094900000057e+02
-3.372750924000000055e+02
-3.372687786199999778e+02
-3.372623726099999999e+02
-3.372560961199999952e+02
-3.372501843699999995e+02
-3.372448790799999756e+02
-3.371399416500000257e+02
-3.371497921999999789e+02
-3.371593181200000231e+02