-1.885545583609818721e+00 2.887304965234960275e-01 2.386172113092688729e+00 2.887304965234960275e-01 -2.218959054825464516e+00 1.377667790326239317e+00 2.386172113092688729e+00 1.377667790326239317e+00 -1.211539709186303382e+00
-1.812761701320905638e+00 2.901228838368490881e-01 2.390439689793355527e+00 2.901228838368490881e-01 -2.035200095367096562e+00 1.574084816269636145e+00 2.390439689793355527e+00 1.574084816269636145e+00 -8.793377957627959152e-01
-1.727482499116057779e+00 2.917141836235383479e-01 2.400240649843191854e+00 2.917141836235383479e-01 -1.841929503092835319e+00 1.772255888568815108e+00 2.400240649843191854e+00 1.772255888568815108e+00 -5.274616304311301462e-01
-1.629165488431630671e+00 2.934139811229564687e-01 2.415412246673104057e+00 2.934139811229564687e-01 -1.639183443906924387e+00 1.972217173128019585e+00 2.415412246673104057e+00 1.972217173128019585e+00 -1.591480616210489418e-01
-1.519184973628856072e+00 2.952403592872248628e-01 2.435665153049149545e+00 2.952403592872248628e-01 -1.428969125494847114e+00 2.173733591569670498e+00 2.435665153049149545e+00 2.173733591569670498e+00 2.222575645249758591e-01
-1.398969507925329925e+00 2.971390692599790717e-01 2.460547295168290738e+00 2.971390692599790717e-01 -1.213275672589964493e+00 2.376588148468310013e+00 2.460547295168290738e+00 2.376588148468310013e+00 6.134279848165938853e-01
-1.270273137676835029e+00 2.990377792327333362e-01 2.489624682179612858e+00 2.990377792327333362e-01 -9.942911223989744363e-01 2.580618097254845367e+00 2.489624682179612858e+00 2.580618097254845367e+00 1.010565779308296719e+00
-1.135012655808246507e+00 3.009364892054876006e-01 2.522246327806743071e+00 3.009364892054876006e-01 -7.743120098413038832e-01 2.785787272025032735e+00 2.522246327806743071e+00 2.785787272025032735e+00 1.409765030341846970e+00
-9.952133529571693948e-01 3.027990332739988744e-01 2.557815494629672948e+00 3.027990332739988744e-01 -5.557072016448647567e-01 2.992095672778873006e+00 2.557815494629672948e+00 2.992095672778873006e+00 1.806957073689914317e+00
-8.529547686175726895e-01 3.045711625819028656e-01 2.595717362276271700e+00 3.045711625819028656e-01 -3.407732327290838859e-01 3.199742211989701879e+00 2.595717362276271700e+00 3.199742211989701879e+00 2.198344489406989677e+00
1.262637382007303977e+01 9.100777720304119356e+00 1.885332168189035329e+01 9.100777720304119356e+00 -3.346303689654013169e+01 -5.337049381775342383e+00 1.885332168189035329e+01 -5.337049381775342383e+00 -3.148874806693947903e+01
1.255872848219676818e+01 9.014271335644686189e+00 1.853561536892117800e+01 9.014271335644686189e+00 -3.343080902774543972e+01 -5.290551278171101934e+00 1.853561536892117800e+01 -5.290551278171101934e+00 -3.156247761345548142e+01
1.252574469657107947e+01 8.919210184897872651e+00 1.819281630456208276e+01 8.919210184897872651e+00 -3.334124210177026271e+01 -5.238227083869422707e+00 1.819281630456208276e+01 -5.238227083869422707e+00 -3.151981440499386267e+01
1.252838118698162972e+01 8.816110503948264565e+00 1.782483230383368422e+01 8.816110503948264565e+00 -3.319352489079597035e+01 -5.179265571051675288e+00 1.782483230383368422e+01 -5.179265571051675288e+00 -3.135909911192559818e+01
1.256610328054795644e+01 8.705506965676322650e+00 1.743229022459582467e+01 8.705506965676322650e+00 -3.298848705963706607e+01 -5.113021444862129172e+00 1.743229022459582467e+01 -5.113021444862129172e+00 -3.108114296206931826e+01
1.263819193443081801e+01 8.588007990946021408e+00 1.701581692470836060e+01 8.588007990946021408e+00 -3.272743763500088932e+01 -5.038738788469788510e+00 1.701581692470836060e+01 -5.038738788469788510e+00 -3.068778965501283551e+01
1.274354092887753964e+01 8.464351059592477355e+00 1.657605769902702519e+01 8.464351059592477355e+00 -3.241192532454119402e+01 -4.955661685043655673e+00 1.657605769902702519e+01 -4.955661685043655673e+00 -3.018154662219553686e+01
1.288067530421787943e+01 8.335218340463177000e+00 1.611369471639929429e+01 8.335218340463177000e+00 -3.204408881977981594e+01 -4.863034217752734811e+00 1.611369471639929429e+01 -4.863034217752734811e+00 -2.956584314485072795e+01
1.304808322678984567e+01 8.201365750389113529e+00 1.562933639768914595e+01 8.201365750389113529e+00 -3.162623274520150218e+01 -4.760063595774273182e+00 1.562933639768914595e+01 -4.760063595774273182e+00 -2.884482754705095786e+01
1.324377350103861772e+01 8.063604517188922571e+00 1.512377553371933203e+01 8.063604517188922571e+00 -3.116104890220444190e+01 -4.646049213264907607e+00 1.512377553371933203e+01 -4.646049213264907607e+00 -2.802338563270388860e+01
-1.075934937558653104e+01 9.470827165608747933e+00 -4.523775441416963083e+00 9.470827165608747933e+00 -4.468707762890840485e+00 1.128652386863372037e+01 -4.523775441416963083e+00 1.128652386863372037e+01 2.854904789327612136e+01
-1.061909492712768177e+01 9.443076382109865108e+00 -4.645661944576226610e+00 9.443076382109865108e+00 -4.640075630503813997e+00 1.124470786717905213e+01 -4.645661944576226610e+00 1.124470786717905213e+01 2.849197348056864598e+01
-1.051067704527569369e+01 9.403809475426102793e+00 -4.744353493188867787e+00 9.403809475426102793e+00 -4.845576057886097132e+00 1.118933285098551345e+01 -4.744353493188867787e+00 1.118933285098551345e+01 2.833025963144974568e+01
-1.043543355281813589e+01 9.353442255342786282e+00 -4.819976638059114471e+00 9.353442255342786282e+00 -5.083419255092159972e+00 1.112074231509316036e+01 -4.819976638059114471e+00 1.112074231509316036e+01 2.806293009685822781e+01
-1.039571467897641099e+01 9.292607475881066392e+00 -4.872422907069055675e+00 9.292607475881066392e+00 -5.352502422256574910e+00 1.103897241687462838e+01 -4.872422907069055675e+00 1.103897241687462838e+01 2.769012950628463088e+01
-1.039372602348137775e+01 9.222028284493678285e+00 -4.901800772336602385e+00 9.222028284493678285e+00 -5.651993939808690470e+00 1.094387852683936657e+01 -4.901800772336602385e+00 1.094387852683936657e+01 2.721218327608269405e+01
-1.043190820898602844e+01 9.142482064692320165e+00 -4.908164469920711426e+00 9.142482064692320165e+00 -5.981315289786317102e+00 1.083531601549683110e+01 -4.908164469920711426e+00 1.083531601549683110e+01 2.662918179968400523e+01
-1.051261146471177099e+01 9.054800436047639067e+00 -4.891658629311929296e+00 9.054800436047639067e+00 -6.339924111599898104e+00 1.071285099437537447e+01 -4.891658629311929296e+00 1.071285099437537447e+01 2.594145049344230358e+01
-1.063833064937055539e+01 8.959833096816607778e+00 -4.852427880000805160e+00 8.959833096816607778e+00 -6.727928877367344462e+00 1.057604957500335630e+01 -4.852427880000805160e+00 1.057604957500335630e+01 2.514873625574912452e+01
-1.081137983481114873e+01 8.858465902628831046e+00 -4.790634930164203276e+00 8.858465902628831046e+00 -7.145257272343383370e+00 1.042431516073226305e+01 -4.790634930164203276e+00 1.042431516073226305e+01 2.425114755872237993e+01
-3.124254652699177370e+01 7.597516896806043363e+00 7.766403179484533403e+00 7.597516896806043363e+00 -2.234416189446939427e+01 4.180131095892035020e+00 7.766403179484533403e+00 4.180131095892035020e+00 -1.441583950375152057e+01
-3.112678882121589297e+01 7.590251768828478518e+00 7.745390193949419633e+00 7.590251768828478518e+00 -2.226769176537219508e+01 4.093787844158657485e+00 7.745390193949419633e+00 4.093787844158657485e+00 -1.415246930029812411e+01
-3.097589770168183776e+01 7.578608935531096158e+00 7.713125574315718325e+00 7.578608935531096158e+00 -2.216208661023162918e+01 3.998409753786511533e+00 7.713125574315718325e+00 3.998409753786511533e+00 -1.381406336480976549e+01
-3.079061830972063163e+01 7.562364854514591173e+00 7.669609320583427703e+00 7.562364854514591173e+00 -2.202764448558011168e+01 3.894034081842150385e+00 7.669609320583427703e+00 3.894034081842150385e+00 -1.340498077407298538e+01
-3.057264584186038192e+01 7.541575411378786953e+00 7.615120860751684262e+00 7.541575411378786953e+00 -2.186568801728022038e+01 3.781089284590915867e+00 7.615120860751684262e+00 3.781089284590915867e+00 -1.292814620781208390e+01
-3.032384315142866882e+01 7.515923921057996893e+00 7.550032765486005992e+00 7.515923921057996893e+00 -2.167776337359385508e+01 3.660096960964532631e+00 7.550032765486005992e+00 3.660096960964532631e+00 -1.238711771588274324e+01
-3.004644566241858783e+01 7.485354497952394048e+00 7.474829376651561219e+00 7.485354497952394048e+00 -2.146569615078203697e+01 3.531709109627652499e+00 7.474829376651561219e+00 3.531709109627652499e+00 -1.178578866173960726e+01
-2.974285645562272151e+01 7.449680856729218092e+00 7.390088178779903316e+00 7.449680856729218092e+00 -2.123164725870476133e+01 3.396652243378032399e+00 7.390088178779903316e+00 3.396652243378032399e+00 -1.112872303603525026e+01
-2.941559038303329388e+01 7.408679454989160362e+00 7.296442542002407272e+00 7.408679454989160362e+00 -2.097787074988841027e+01 3.255671503546704315e+00 7.296442542002407272e+00 3.255671503546704315e+00 -1.042018677288982964e+01
-2.906719955370910213e+01 7.362164007399464083e+00 7.194525836450452516e+00 7.362164007399464083e+00 -2.070656479125951677e+01 3.109530659997977509e+00 7.194525836450452516e+00 3.109530659997977509e+00 -9.664632091756264032e+00
1.904638490101353199e+01 -4.329450606246669220e-01 -2.090043906148531505e+01 -4.329450606246669220e-01 -1.980241277415493073e+01 -9.602585584746254455e+00 -2.090043906148531505e+01 -9.602585584746254455e+00 5.354163128929464222e+00
1.898774111588635449e+01 -4.208947203043259533e-01 -2.074942137822035093e+01 -4.208947203043259533e-01 -1.967916326641075031e+01 -9.598719358616488506e+00 -2.074942137822035093e+01 -9.598719358616488506e+00 5.412861113488366627e+00
1.890600837284404179e+01 -4.122589441827022028e-01 -2.054583024618148812e+01 -4.122589441827022028e-01 -1.954698891890907930e+01 -9.570662119459832695e+00 -2.054583024618148812e+01 -9.570662119459832695e+00 5.438461311740125481e+00
1.880228872699834852e+01 -4.071822640777309488e-01 -2.029053285627632874e+01 -4.071822640777309488e-01 -1.940673885608028115e+01 -9.517908005913513492e+00 -2.029053285627632874e+01 -9.517908005913513492e+00 5.431090189025434611e+00
1.867732290391619188e+01 -4.056466135121702399e-01 -1.998454093123042696e+01 -4.056466135121702399e-01 -1.925958739894508298e+01 -9.440240220250624148e+00 -1.998454093123042696e+01 -9.440240220250624148e+00 5.391018742502921235e+00
1.853165289791482451e+01 -4.075255271453268602e-01 -1.962911912445071394e+01 -4.075255271453268602e-01 -1.910710633102352674e+01 -9.337622629516685535e+00 -1.962911912445071394e+01 -9.337622629516685535e+00 5.318499902853972117e+00
1.836603750103841648e+01 -4.126564066820238019e-01 -1.922565855468481288e+01 -4.126564066820238019e-01 -1.895122876538049539e+01 -9.210109433143422564e+00 -1.922565855468481288e+01 -9.210109433143422564e+00 5.213605935987555284e+00
1.818110903999042094e+01 -4.208043879181164182e-01 -1.877569487249828484e+01 -4.208043879181164182e-01 -1.879392394803535282e+01 -9.057935495334978881e+00 -1.877569487249828484e+01 -9.057935495334978881e+00 5.076192310085734682e+00
1.797766243976949241e+01 -4.315900748315251723e-01 -1.828078179493393307e+01 -4.315900748315251723e-01 -1.863737792273436966e+01 -8.881444079158947957e+00 -1.828078179493393307e+01 -8.881444079158947957e+00 4.906385490489204138e+00
1.775649262537426409e+01 -4.446702043546539307e-01 -1.774258143789801068e+01 -4.446702043546539307e-01 -1.848375866674657075e+01 -8.681068780069137958e+00 -1.774258143789801068e+01 -8.681068780069137958e+00 4.704040945380030259e+00
5.840339943449755822e+01 -1.374355300023586857e+01 -8.154783280082607888e+00 -1.374355300023586857e+01 4.221156002058156531e+01 -2.225313135041713153e+01 -8.154783280082607888e+00 -2.225313135041713153e+01 7.463080668050790223e+01
5.817156307334396104e+01 -1.370438422238985510e+01 -8.069226847294071803e+00 -1.370438422238985510e+01 4.191215496980461808e+01 -2.214968908802241643e+01 -8.069226847294071803e+00 -2.214968908802241643e+01 7.397572330878753633e+01
5.778473317452995417e+01 -1.363834423615165470e+01 -7.955559257812061524e+00 -1.363834423615165470e+01 4.149218617871933645e+01 -2.197570565719991009e+01 -7.955559257812061524e+00 -2.197570565719991009e+01 7.297267307542215065e+01
5.724630685668921615e+01 -1.354702968727907653e+01 -7.814748690447170354e+00 -1.354702968727907653e+01 4.095629071426066758e+01 -2.173160569777881790e+01 -7.814748690447170354e+00 -2.173160569777881790e+01 7.163126982614498672e+01
5.656027573421627608e+01 -1.343258076051132655e+01 -7.647729352823649407e+00 -1.343258076051132655e+01 4.030878291709335315e+01 -2.141857820128091561e+01 -7.647729352823649407e+00 -2.141857820128091561e+01 6.996241831177007953e+01
5.573083524862371263e+01 -1.329776610753483190e+01 -7.455673250870110458e+00 -1.329776610753483190e+01 3.955268622280133428e+01 -2.103898416515659520e+01 -7.455673250870110458e+00 -2.103898416515659520e+01 6.797773667802449893e+01
5.476943368970690074e+01 -1.314571107749254963e+01 -7.239327750685956353e+00 -1.314571107749254963e+01 3.869812404491290891e+01 -2.059547334194010659e+01 -7.239327750685956353e+00 -2.059547334194010659e+01 6.570202389093391560e+01
5.368592270150347190e+01 -1.298010154410199490e+01 -7.000034714131480484e+00 -1.298010154410199490e+01 3.775180569272951914e+01 -2.009264882738004587e+01 -7.000034714131480484e+00 -2.009264882738004587e+01 6.315802365975063992e+01
5.249416252803870009e+01 -1.280477625141919340e+01 -6.739271887812321893e+00 -1.280477625141919340e+01 3.672368472384778926e+01 -1.953611586722193749e+01 -6.739271887812321893e+00 -1.953611586722193749e+01 6.037610622505951596e+01
5.121035742519512013e+01 -1.262379475621136216e+01 -6.458941658163324995e+00 -1.262379475621136216e+01 3.562510751450410140e+01 -1.893268568432625898e+01 -6.458941658163324995e+00 -1.893268568432625898e+01 5.739136382234617884e+01
-6.690817793955484483e+00 7.356265449447390914e+00 -2.134231802197473993e+00 7.356265449447390914e+00 -9.829603133411263016e+00 1.515327554954680167e+01 -2.134231802197473993e+00 1.515327554954680167e+01 -5.124935253938840418e+00
-6.876316752669770160e+00 7.353512048998569028e+00 -1.801435036691287461e+00 7.353512048998569028e+00 -9.736133393671812186e+00 1.515551838567398590e+01 -1.801435036691287461e+00 1.515551838567398590e+01 -5.270573726685425342e+00
-7.043508333565405621e+00 7.344194250128718515e+00 -1.460724524199747520e+00 7.344194250128718515e+00 -9.627602006444108795e+00 1.513387410532464372e+01 -1.460724524199747520e+00 1.513387410532464372e+01 -5.385961263375094177e+00
-7.191006719197948094e+00 7.328384990598069137e+00 -1.112227905803262917e+00 7.328384990598069137e+00 -9.504154847248619475e+00 1.508772273753679016e+01 -1.112227905803262917e+00 1.508772273753679016e+01 -5.470259079765160237e+00
-7.318629565166816064e+00 7.306157208166856876e+00 -7.565833869038788295e-01 7.306157208166856876e+00 -9.367451250130660156e+00 1.501668135906919410e+01 -7.565833869038788295e-01 1.501668135906919410e+01 -5.524160084577844465e+00
-7.426540981432532718e+00 7.277620309475433480e+00 -3.943927040235225001e-01 7.277620309475433480e+00 -9.219569941256889223e+00 1.492034881224057230e+01 -3.943927040235225001e-01 1.492034881224057230e+01 -5.549031860817525974e+00
-7.515196828996561607e+00 7.242883701164148036e+00 -2.607524928353771240e-02 7.242883701164148036e+00 -9.062662584554203704e+00 1.479823276716934366e+01 -2.607524928353771240e-02 1.479823276716934366e+01 -5.546697852490048319e+00
-7.585545298741937614e+00 7.202166196513699603e+00 3.479495851947319029e-01 7.202166196513699603e+00 -8.899117891670252689e+00 1.464991383173417461e+01 3.479495851947319029e-01 1.464991383173417461e+01 -5.519565005683122472e+00
-7.638753394832401789e+00 7.155650139924675024e+00 7.275359238908190029e-01 7.155650139924675024e+00 -8.731488684213214668e+00 1.447497261381371025e+01 7.275359238908190029e-01 1.447497261381371025e+01 -5.470332017525393553e+00
-7.675805777031106558e+00 7.103590813557892680e+00 1.112665532364665033e+00 7.103590813557892680e+00 -8.561981329430162546e+00 1.427282561132608940e+01 1.112665532364665033e+00 1.427282561132608940e+01 -5.401497006304865955e+00
-5.351655149172233905e+01 -9.360231047817952899e+00 9.546168120946322944e+00 -9.360231047817952899e+00 -5.758525063794682808e+01 6.935011753977548210e+00 9.546168120946322944e+00 6.935011753977548210e+00 -7.173285653446258436e+01
-5.339060044324054388e+01 -9.363053919566027616e+00 9.386303404935583572e+00 -9.363053919566027616e+00 -5.743330564545152583e+01 6.972748060332014219e+00 9.386303404935583572e+00 6.972748060332014219e+00 -7.130550511704575456e+01
-5.318225682561183731e+01 -9.360838749374831735e+00 9.221733902678055372e+00 -9.360838749374831735e+00 -5.719700775620646738e+01 7.006504901652736983e+00 9.221733902678055372e+00 7.006504901652736983e+00 -7.063517109325825061e+01
-5.289269683539790634e+01 -9.353487520864220528e+00 9.051832309340831273e+00 -9.353487520864220528e+00 -5.687704308487265337e+01 7.036223468111630019e+00 9.051832309340831273e+00 7.036223468111630019e+00 -6.972510860692071333e+01
-5.252043062362059800e+01 -9.340823804549941656e+00 8.876873070788306563e+00 -9.340823804549941656e+00 -5.647198059230001377e+01 7.061805743328554819e+00 8.876873070788306563e+00 7.061805743328554819e+00 -6.857759163805246772e+01
-5.207218211395762353e+01 -9.322847600431996895e+00 8.695993642875237128e+00 -9.322847600431996895e+00 -5.598885785458270448e+01 7.082840058506914005e+00 8.695993642875237128e+00 7.082840058506914005e+00 -6.720271587380806011e+01
-5.154850019813778061e+01 -9.299421685578185048e+00 8.509488074742044716e+00 -9.299421685578185048e+00 -5.542822376344951607e+01 7.099091174334369647e+00 8.509488074742044716e+00 7.099091174334369647e+00 -6.560781293942207526e+01
-5.095326632481465623e+01 -9.270448043608366717e+00 8.317493589320934078e+00 -9.270448043608366717e+00 -5.479397937083009396e+01 7.110245438394469097e+00 8.317493589320934078e+00 7.110245438394469097e+00 -6.380468400706356391e+01
-5.029051876885009165e+01 -9.235907071246511890e+00 8.120343442304379877e+00 -9.235907071246511890e+00 -5.409020215813830390e+01 7.115969594994730585e+00 8.120343442304379877e+00 7.115969594994730585e+00 -6.180585557011458064e+01
-4.956825566686362095e+01 -9.196014404528934705e+00 7.918037633692383892e+00 -9.196014404528934705e+00 -5.332538034389440895e+01 7.115891181890617645e+00 7.918037633692383892e+00 7.115891181890617645e+00 -5.963506719584540861e+01
4.041989770573970020e+00 1.355722637613906434e+00 -5.573402683370041188e+00 1.355722637613906434e+00 7.087269914999499321e+00 1.971667636095238407e+01 -5.573402683370041188e+00 1.971667636095238407e+01 -2.252007034403388896e+00
3.920193650131830410e+00 1.443020033878907427e+00 -5.643316027056453521e+00 1.443020033878907427e+00 7.040954345164601946e+00 1.986079518527384735e+01 -5.643316027056453521e+00 1.986079518527384735e+01 -2.460023027190368694e+00
3.817002776044462475e+00 1.530407223803922134e+00 -5.690762997007519530e+00 1.530407223803922134e+00 6.999541509166434139e+00 1.997090017118224736e+01 -5.690762997007519530e+00 1.997090017118224736e+01 -2.653384694663165622e+00
3.733153456323974329e+00 1.617309527964864158e+00 -5.716426025039341496e+00 1.617309527964864158e+00 6.963318746717040320e+00 2.004713498853359965e+01 -5.716426025039341496e+00 2.004713498853359965e+01 -2.831822655841740755e+00
3.668573856042356862e+00 1.703062473277635380e+00 -5.720969584236017980e+00 1.703062473277635380e+00 6.931639543464322095e+00 2.008912250395585275e+01 -5.720969584236017980e+00 2.008912250395585275e+01 -2.995660167902140625e+00
3.622473790991491693e+00 1.787019545390138964e+00 -5.705076106413651260e+00 1.787019545390138964e+00 6.903354540560109776e+00 2.009646762534494613e+01 -5.705076106413651260e+00 2.009646762534494613e+01 -3.146100465888545195e+00
3.593739819787212131e+00 1.868516271218276348e+00 -5.669571693244363608e+00 1.868516271218276348e+00 6.877116833104202520e+00 2.006873934313281893e+01 -5.669571693244363608e+00 2.006873934313281893e+01 -3.284688000753185566e+00
3.580935243869305395e+00 1.946977971337961577e+00 -5.615210611472266855e+00 1.946977971337961577e+00 6.851399928876372059e+00 2.000539889535938443e+01 -5.615210611472266855e+00 2.000539889535938443e+01 -3.413470067944364583e+00
3.582443777357529946e+00 2.021812007593106308e+00 -5.542783045305480272e+00 2.021812007593106308e+00 6.824641418192387121e+00 1.990590752006456654e+01 -5.542783045305480272e+00 1.990590752006456654e+01 -3.534763343890428455e+00
3.596595258175637078e+00 2.092479618023630916e+00 -5.453079178952121353e+00 2.092479618023630916e+00 6.795242973904008110e+00 1.976956482670026105e+01 -5.453079178952121353e+00 1.976956482670026105e+01 -3.650938381215730555e+00
-2.219440376468600817e+01 1.829381962056496391e+00 -7.749006878366355267e+00 1.829381962056496391e+00 -4.804315325447399232e+01 -2.365945570398506170e+00 -7.749006878366355267e+00 -2.365945570398506170e+00 -5.840670557345346481e+01
-2.204382316304766576e+01 1.869983687450823551e+00 -7.748359383683706803e+00 1.869983687450823551e+00 -4.796113091335140410e+01 -2.453376396517340741e+00 -7.748359383683706803e+00 -2.453376396517340741e+00 -5.806711365636545708e+01
-2.182468430089357625e+01 1.908642928797204208e+00 -7.738761227211501392e+00 1.908642928797204208e+00 -4.780146634219472901e+01 -2.537169826036590248e+00 -7.738761227211501392e+00 -2.537169826036590248e+00 -5.752498921133717147e+01
-2.153696813426248369e+01 1.944940718948042768e+00 -7.719660134073365043e+00 1.944940718948042768e+00 -4.756353109028257364e+01 -2.617040199537437495e+00 -7.719660134073365043e+00 -2.617040199537437495e+00 -5.678130348039258024e+01
-2.118238861966727882e+01 1.978553310562014111e+00 -7.690408609586644850e+00 1.978553310562014111e+00 -4.724846779529019614e+01 -2.692320978375981166e+00 -7.690408609586644850e+00 -2.692320978375981166e+00 -5.583994143162757950e+01
-2.076290728511716566e+01 2.008985560646505242e+00 -7.650378203029948310e+00 2.008985560646505242e+00 -4.685738100697034980e+01 -2.762326579947062655e+00 -7.650378203029948310e+00 -2.762326579947062655e+00 -5.470570214327826619e+01
-2.027997147166747638e+01 2.035856589976428044e+00 -7.598883331798119478e+00 2.035856589976428044e+00 -4.639103248377322330e+01 -2.826276201839253766e+00 -7.598883331798119478e+00 -2.826276201839253766e+00 -5.338528908970619824e+01
-1.973925627977201103e+01 2.058728387442932295e+00 -7.534933709905928367e+00 2.058728387442932295e+00 -4.585393564451609194e+01 -2.883579481253667254e+00 -7.534933709905928367e+00 -2.883579481253667254e+00 -5.188639603125811561e+01
-1.914192339106729079e+01 2.077086766092149706e+00 -7.457938974554491729e+00 2.077086766092149706e+00 -4.524626188485024159e+01 -2.933436571817620742e+00 -7.457938974554491729e+00 -2.933436571817620742e+00 -5.021540269495425690e+01
-1.849450488426356642e+01 2.090493714815229165e+00 -7.367023103526106453e+00 2.090493714815229165e+00 -4.457385770088077948e+01 -2.975104759042192626e+00 -7.367023103526106453e+00 -2.975104759042192626e+00 -4.838653491985163413e+01
5.005973903766470556e+01 -9.273029318206276628e+00 2.438610187801236506e+00 -9.273029318206276628e+00 3.594362163283342682e+01 1.296769054527078424e+01 2.438610187801236506e+00 1.296769054527078424e+01 3.549243919934226454e+01
4.992353658880295342e+01 -9.359211198485924754e+00 2.575018977956554433e+00 -9.359211198485924754e+00 3.578535786066785107e+01 1.305022706269742194e+01 2.575018977956554433e+00 1.305022706269742194e+01 3.512821242598162286e+01
4.972285248570163674e+01 -9.430828822461332805e+00 2.721521296388838440e+00 -9.430828822461332805e+00 3.558352168534411675e+01 1.310415092074949328e+01 2.721521296388838440e+00 1.310415092074949328e+01 3.462216040350954671e+01
4.945940623914048473e+01 -9.487142800497217365e+00 2.878289094176060825e+00 -9.487142800497217365e+00 3.534003895893553704e+01 1.312990919222972330e+01 2.878289094176060825e+00 1.312990919222972330e+01 3.397698276385018801e+01
4.913263041056217872e+01 -9.527912401084416061e+00 3.045373956641613145e+00 -9.527912401084416061e+00 3.505353407281831579e+01 1.312808651080321809e+01 3.045373956641613145e+00 1.312808651080321809e+01 3.319166499564351369e+01
4.874402097434509074e+01 -9.552982868252758664e+00 3.222139664796998204e+00 -9.552982868252758664e+00 3.472510751389147998e+01 1.309906116884151572e+01 3.222139664796998204e+00 1.309906116884151572e+01 3.226978368131134545e+01
4.829474719781941872e+01 -9.562457372649022957e+00 3.407984389869313624e+00 -9.562457372649022957e+00 3.435496562344859939e+01 1.304348658044091458e+01 3.407984389869313624e+00 1.304348658044091458e+01 3.121362577019072049e+01
4.778625347004013690e+01 -9.556559450674578571e+00 3.602134352007684726e+00 -9.556559450674578571e+00 3.394326315745984601e+01 1.296205054991329675e+01 3.602134352007684726e+00 1.296205054991329675e+01 3.002577052845121131e+01
4.722034527732594711e+01 -9.535787760455541218e+00 3.803695405606655644e+00 -9.535787760455541218e+00 3.349025804254218031e+01 1.285564722286412120e+01 3.803695405606655644e+00 1.285564722286412120e+01 2.870957100211327528e+01
4.659894847175014121e+01 -9.500761325872611351e+00 4.011618649090597621e+00 -9.500761325872611351e+00 3.299617381509695946e+01 1.272520513511443774e+01 4.011618649090597621e+00 1.272520513511443774e+01 2.726825987144280106e+01
-2.584550320417659819e+01 -8.275228373197229814e+00 7.589465458892754590e+00 -8.275228373197229814e+00 4.313744167689002040e-01 4.513536696795451775e+00 7.589465458892754590e+00 4.513536696795451775e+00 -2.388336164966848330e+01
-2.584524550237012264e+01 -8.203808158259601413e+00 7.414835670461494388e+00 -8.203808158259601413e+00 4.997022100288172619e-01 4.759310591085972320e+00 7.414835670461494388e+00 4.759310591085972320e+00 -2.379778624264656983e+01
-2.579637419549914057e+01 -8.125558845450358447e+00 7.233395191430513904e+00 -8.125558845450358447e+00 5.966533110794594030e-01 5.001200551007461748e+00 7.233395191430513904e+00 5.001200551007461748e+00 -2.361767108719174857e+01
-2.569813458541612050e+01 -8.040646100216523706e+00 7.044610210914966864e+00 -8.040646100216523706e+00 7.223933853678468076e-01 5.238654358403186606e+00 7.044610210914966864e+00 5.238654358403186606e+00 -2.334305299784780985e+01
-2.555111570482157646e+01 -7.949456475267807853e+00 6.848333470739725648e+00 -7.949456475267807853e+00 8.756891456772728510e-01 5.470530762415895865e+00 6.848333470739725648e+00 5.470530762415895865e+00 -2.297577270180386222e+01
-2.535642199002897001e+01 -7.852358116042037040e+00 6.644454527273443212e+00 -7.852358116042037040e+00 1.054902344809426129e+00 5.695762141275903190e+00 6.644454527273443212e+00 5.695762141275903190e+00 -2.251859128984358449e+01
-2.511517628462366858e+01 -7.749866426152160592e+00 6.432954973244227936e+00 -7.749866426152160592e+00 1.258394735565995015e+00 5.913336095029195327e+00 6.432954973244227936e+00 5.913336095029195327e+00 -2.197432507456630901e+01
-2.482894320671642063e+01 -7.642515216483024787e+00 6.213779586836405855e+00 -7.642515216483024787e+00 1.484178332582736237e+00 6.122185001906085944e+00 6.213779586836405855e+00 6.122185001906085944e+00 -2.134654506671893159e+01
-2.449932418896175079e+01 -7.530819890647577175e+00 5.986891553506196395e+00 -7.530819890647577175e+00 1.730246743223515349e+00 6.321443720127692956e+00 5.986891553506196395e+00 6.321443720127692956e+00 -2.063873024068886863e+01
-2.412814155127688309e+01 -7.415424703162011966e+00 5.752217244166033971e+00 -7.415424703162011966e+00 1.994409502133286605e+00 6.510265515187021457e+00 5.752217244166033971e+00 6.510265515187021457e+00 -1.985480134538893893e+01
6.799584966669423025e+00 7.474132032726804375e+00 -1.302344267878421036e+01 7.474132032726804375e+00 -2.728601527348147826e+01 7.491908271697441002e+00 -1.302344267878421036e+01 7.491908271697441002e+00 -2.254001524154419123e+00
6.890073878921798567e+00 7.408946399995839371e+00 -1.307412231589062834e+01 7.408946399995839371e+00 -2.721279105375453966e+01 7.475922445284997941e+00 -1.307412231589062834e+01 7.475922445284997941e+00 -2.048158888509857611e+00
6.972889594496201937e+00 7.334973130117004025e+00 -1.309211778905206458e+01 7.334973130117004025e+00 -2.711404432031539358e+01 7.456830801169567202e+00 -1.309211778905206458e+01 7.456830801169567202e+00 -1.835136333116621055e+00
7.047630184042834145e+00 7.252650691471898448e+00 -1.307704543843461842e+01 7.252650691471898448e+00 -2.699021354154563923e+01 7.434249679517248133e+00 -1.307704543843461842e+01 7.434249679517248133e+00 -1.618167562288998829e+00
7.113327363218997945e+00 7.162563708569321896e+00 -1.302844852614079230e+01 7.162563708569321896e+00 -2.684252277501056838e+01 7.407704072914643945e+00 -1.302844852614079230e+01 7.407704072914643945e+00 -1.399024719069284384e+00
7.169049386713798100e+00 7.065388153497569768e+00 -1.294588858378898877e+01 7.065388153497569768e+00 -2.667245185149807796e+01 7.376536278789355805e+00 -1.294588858378898877e+01 7.376536278789355805e+00 -1.179607833111071091e+00
7.213736622605038562e+00 6.961909615440341703e+00 -1.282898195154530896e+01 6.961909615440341703e+00 -2.648182772259816176e+01 7.339960707957685848e+00 -1.282898195154530896e+01 7.339960707957685848e+00 -9.619082816474515685e-01
7.246219821875121703e+00 6.852895414065431900e+00 -1.267732670005995033e+01 6.852895414065431900e+00 -2.627276965215521187e+01 7.297009076076939493e+00 -1.267732670005995033e+01 7.297009076076939493e+00 -7.481001370705180342e-01
7.265293196474653215e+00 6.739167677588340233e+00 -1.249046609143542064e+01 6.739167677588340233e+00 -2.604746998207721731e+01 7.246640020740820809e+00 -1.249046609143542064e+01 7.246640020740820809e+00 -5.403392022564629249e-01
7.269842305933737592e+00 6.621585073256361476e+00 -1.226797992680601901e+01 6.621585073256361476e+00 -2.580835855797887390e+01 7.187757370995331740e+00 -1.226797992680601901e+01 7.187757370995331740e+00 -3.408543581450780291e-01