 vasp.6.1.1 19Jun20 (build Dec 21 2021 08:45:49) complex                        
  
 executed on             LinuxIFC date 2023.10.08  06:45:31
 running on   40 total cores
 distrk:  each k-point on   40 cores,    1 groups
 distr:  one band on NCORE=   1 cores,   40 groups


--------------------------------------------------------------------------------------------------------


 INCAR:
 POTCAR:   PAW_PBE Te 08Apr2002                   
 POTCAR:   PAW_PBE Mo 08Apr2002                   
 -----------------------------------------------------------------------------
|                                                                             |
|           W    W    AA    RRRRR   N    N  II  N    N   GGGG   !!!           |
|           W    W   A  A   R    R  NN   N  II  NN   N  G    G  !!!           |
|           W    W  A    A  R    R  N N  N  II  N N  N  G       !!!           |
|           W WW W  AAAAAA  RRRRR   N  N N  II  N  N N  G  GGG   !            |
|           WW  WW  A    A  R   R   N   NN  II  N   NN  G    G                |
|           W    W  A    A  R    R  N    N  II  N    N   GGGG   !!!           |
|                                                                             |
|     For optimal performance we recommend to set                             |
|       NCORE = 4 - approx SQRT(number of cores).                             |
|     NCORE specifies how many cores store one orbital (NPAR=cpu/NCORE).      |
|     This setting can greatly improve the performance of VASP for DFT.       |
|     The default, NCORE=1 might be grossly inefficient on modern             |
|     multi-core architectures or massively parallel machines. Do your        |
|     own testing!!!!                                                         |
|     Unfortunately you need to use the default for GW and RPA                |
|     calculations (for HF NCORE is supported but not extensively tested      |
|     yet).                                                                   |
|                                                                             |
 -----------------------------------------------------------------------------

 POTCAR:   PAW_PBE Te 08Apr2002                   
   VRHFIN =Te: s2p4                                                                                 
   LEXCH  = PE                                                                                      
   EATOM  =   223.2721 eV,   16.4100 Ry                                                             
                                                                                                    
   TITEL  = PAW_PBE Te 08Apr2002                                                                    
   LULTRA =        F    use ultrasoft PP ?                                                          
   IUNSCR =        1    unscreen: 0-lin 1-nonlin 2-no                                               
   RPACOR =    2.200    partial core radius                                                         
   POMASS =  127.600; ZVAL   =    6.000    mass and valenz                                          
   RCORE  =    2.300    outmost cutoff radius                                                       
   RWIGS  =    2.900; RWIGS  =    1.535    wigner-seitz radius (au A)                               
   ENMAX  =  174.982; ENMIN  =  131.236 eV                                                          
   ICORE  =        3    local potential                                                             
   LCOR   =        T    correct aug charges                                                         
   LPAW   =        T    paw PP                                                                      
   EAUG   =  368.792                                                                                
   DEXC   =    -.169                                                                                
   RMAX   =    3.486    core radius for proj-oper                                                   
   RAUG   =    1.300    factor for augmentation sphere                                              
   RDEP   =    2.397    radius for radial grids                                                     
   QCUT   =   -3.586; QGAM   =    7.172    optimization parameters                                  
                                                                                                    
   Description                                                                                      
     l     E      TYP  RCUT    TYP  RCUT                                                            
     0   .000     23  2.300                                                                         
     0   .000     23  2.300                                                                         
     1   .000     23  2.300                                                                         
     1   .000     23  2.300                                                                         
     2   .000     23  2.300                                                                         
     3  -.100     23  2.300                                                                         
  local pseudopotential read in
  partial core-charges read in
  atomic valenz-charges read in
  non local Contribution for L=           0  read in
    real space projection operators read in
  non local Contribution for L=           0  read in
    real space projection operators read in
  non local Contribution for L=           1  read in
    real space projection operators read in
  non local Contribution for L=           1  read in
    real space projection operators read in
  non local Contribution for L=           2  read in
    real space projection operators read in
    PAW grid and wavefunctions read in
 
   number of l-projection  operators is LMAX  =           5
   number of lm-projection operators is LMMAX =          13
 
 POTCAR:   PAW_PBE Mo 08Apr2002                   
   VRHFIN =Mo: 4p5s4d                                                                               
   LEXCH  = PE                                                                                      
   EATOM  =   217.5180 eV,   15.9871 Ry                                                             
                                                                                                    
   TITEL  = PAW_PBE Mo 08Apr2002                                                                    
   LULTRA =        F    use ultrasoft PP ?                                                          
   IUNSCR =        1    unscreen: 0-lin 1-nonlin 2-no                                               
   RPACOR =    2.200    partial core radius                                                         
   POMASS =   95.940; ZVAL   =    6.000    mass and valenz                                          
   RCORE  =    2.750    outmost cutoff radius                                                       
   RWIGS  =    2.750; RWIGS  =    1.455    wigner-seitz radius (au A)                               
   ENMAX  =  224.584; ENMIN  =  168.438 eV                                                          
   RCLOC  =    2.111    cutoff for local pot                                                        
   LCOR   =        T    correct aug charges                                                         
   LPAW   =        T    paw PP                                                                      
   EAUG   =  345.278                                                                                
   DEXC   =    -.088                                                                                
   RMAX   =    3.077    core radius for proj-oper                                                   
   RAUG   =    1.300    factor for augmentation sphere                                              
   RDEP   =    2.815    radius for radial grids                                                     
   QCUT   =   -4.063; QGAM   =    8.126    optimization parameters                                  
                                                                                                    
   Description                                                                                      
     l     E      TYP  RCUT    TYP  RCUT                                                            
     2   .000     23  2.500                                                                         
     2   .000     23  2.500                                                                         
     0   .000     23  2.600                                                                         
     0  1.000     23  2.600                                                                         
     1   .400     23  2.750                                                                         
     1  2.000     23  2.750                                                                         
     3   .000      7   .000                                                                         
  local pseudopotential read in
  partial core-charges read in
  atomic valenz-charges read in
  non local Contribution for L=           2  read in
    real space projection operators read in
  non local Contribution for L=           2  read in
    real space projection operators read in
  non local Contribution for L=           0  read in
    real space projection operators read in
  non local Contribution for L=           0  read in
    real space projection operators read in
  non local Contribution for L=           1  read in
    real space projection operators read in
  non local Contribution for L=           1  read in
    real space projection operators read in
    PAW grid and wavefunctions read in
 
   number of l-projection  operators is LMAX  =           6
   number of lm-projection operators is LMMAX =          18
 
 -----------------------------------------------------------------------------
|                                                                             |
|               ----> ADVICE to this user running VASP <----                  |
|                                                                             |
|     You have a (more or less) 'large supercell' and for larger cells it     |
|     might be more efficient to use real-space projection operators.         |
|     Therefore, try LREAL= Auto in the INCAR file.                           |
|     Mind: If you want to do very accurate calculations, keep the            |
|     reciprocal projection scheme (i.e. LREAL=.FALSE.).                      |
|                                                                             |
 -----------------------------------------------------------------------------

 PAW_PBE Te 08Apr2002                   :
 energy of atom  1       EATOM= -223.2721
 kinetic energy error for atom=    0.0006 (will be added to EATOM!!)
 PAW_PBE Mo 08Apr2002                   :
 energy of atom  2       EATOM= -217.5180
 kinetic energy error for atom=    0.0009 (will be added to EATOM!!)
 
 
 POSCAR: Te Mo
  positions in cartesian coordinates
  No initial velocities read in
 exchange correlation table for  LEXCH =        8
   RHO(1)=    0.500       N(1)  =     2000
   RHO(2)=  100.500       N(2)  =     4000
 


--------------------------------------------------------------------------------------------------------


 ion  position               nearest neighbor table
   1  0.112  0.223  0.321-  41 2.71  38 2.75  37 2.77   4 3.47   7 3.47   5 3.54   9 3.55   3 3.55
                             2 3.56  19 3.68
   2  0.111  0.556  0.321-  42 2.71  39 2.74  38 2.77   8 3.47   5 3.47   7 3.54   6 3.55   1 3.56
                             3 3.56  20 3.67
   3  0.111  0.890  0.321-  40 2.70  37 2.74  39 2.77   9 3.47   6 3.48   4 3.54   8 3.55   1 3.55
                             2 3.56  21 3.67
   4  0.444  0.222  0.321-  44 2.71  41 2.75  40 2.78   1 3.47   7 3.47   3 3.54   8 3.54   6 3.55
                             5 3.56  22 3.68
   5  0.445  0.556  0.321-  45 2.70  42 2.75  41 2.77   8 3.47   2 3.47   1 3.54   9 3.54   4 3.56
                             6 3.56  23 3.66
   6  0.445  0.889  0.321-  43 2.70  40 2.75  42 2.78   9 3.47   3 3.48   7 3.54   2 3.55   4 3.55
                             5 3.56  24 3.68
   7  0.778  0.222  0.320-  38 2.71  44 2.75  43 2.78   4 3.47   1 3.47   6 3.54   2 3.54   9 3.56
                             8 3.56  25 3.68
   8  0.778  0.555  0.321-  39 2.71  45 2.75  44 2.77   2 3.47   5 3.47   4 3.54   3 3.55   7 3.56
                             9 3.56  26 3.67
   9  0.778  0.889  0.321-  37 2.71  43 2.75  45 2.77   3 3.47   6 3.47   5 3.54   1 3.55   7 3.56
                             8 3.56  27 3.67
  10  1.000  0.055  0.558-  46 2.72  52 2.74  54 2.76  16 3.47  13 3.47  18 3.53  14 3.55  12 3.56
                            11 3.56  28 3.68
  11  1.000  0.389  0.558-  47 2.72  53 2.75  52 2.77  17 3.47  14 3.47  16 3.53  15 3.55  12 3.56
                            10 3.56  29 3.68
  12  0.000  0.722  0.559-  48 2.70  54 2.74  53 2.77  15 3.47  18 3.47  17 3.54  13 3.54  10 3.56
                            11 3.56  30 3.67
  13  0.333  0.056  0.559-  49 2.71  46 2.74  48 2.76  10 3.47  16 3.48  12 3.54  17 3.55  14 3.55
                            15 3.56  31 3.67
  14  0.333  0.389  0.558-  50 2.71  47 2.74  46 2.77  11 3.47  17 3.47  18 3.55  10 3.55  13 3.55
                            15 3.56  32 3.67
  15  0.333  0.722  0.559-  51 2.71  48 2.74  47 2.76  12 3.47  18 3.47  11 3.55  16 3.55  14 3.56
                            13 3.56  33 3.67
  16  0.667  0.056  0.558-  52 2.70  49 2.75  51 2.77  10 3.47  13 3.48  11 3.53  15 3.55  17 3.56
                            18 3.56  34 3.68
  17  0.667  0.389  0.558-  53 2.71  50 2.75  49 2.78  11 3.47  14 3.47  12 3.54  13 3.55  18 3.56
                            16 3.56  35 3.67
  18  0.667  0.723  0.559-  54 2.70  51 2.74  50 2.77  12 3.47  15 3.47  10 3.53  14 3.55  17 3.56
                            16 3.56  36 3.67
  19  0.111  0.223  0.442-  38 2.72  41 2.74  37 2.76  25 3.47  22 3.47  23 3.54  27 3.55  20 3.55
                            21 3.57   1 3.68
  20  0.111  0.556  0.442-  39 2.72  42 2.74  38 2.76  23 3.47  26 3.47  25 3.54  24 3.54  21 3.55
                            19 3.55   2 3.67
  21  0.111  0.888  0.442-  37 2.73  40 2.74  39 2.75  24 3.47  27 3.47  26 3.54  22 3.55  20 3.55
                            19 3.57   3 3.67
  22  0.444  0.223  0.442-  41 2.72  44 2.75  40 2.77  19 3.47  25 3.48  26 3.54  21 3.55  23 3.56
                            24 3.56   4 3.68
  23  0.444  0.556  0.441-  42 2.72  45 2.74  41 2.75  20 3.47  26 3.47  19 3.54  27 3.54  24 3.55
                            22 3.56   5 3.66
  24  0.445  0.889  0.442-  40 2.72  43 2.74  42 2.76  27 3.47  21 3.47  20 3.54  25 3.54  23 3.55
                            22 3.56   6 3.68
  25  0.778  0.222  0.441-  44 2.72  38 2.74  43 2.76  19 3.47  22 3.48  20 3.54  24 3.54  27 3.55
                            26 3.56   7 3.68
  26  0.778  0.556  0.441-  45 2.72  39 2.74  44 2.76  20 3.47  23 3.47  21 3.54  22 3.54  27 3.56
                            25 3.56   8 3.67
  27  0.778  0.889  0.442-  43 2.72  37 2.75  45 2.76  24 3.47  21 3.47  23 3.54  19 3.55  25 3.55
                            26 3.56   9 3.67
  28  0.000  0.055  0.680-  52 2.73  46 2.74  54 2.76  31 3.47  34 3.48  32 3.54  36 3.55  30 3.55
                            29 3.56  10 3.68
  29  0.000  0.389  0.679-  53 2.72  47 2.75  52 2.77  32 3.47  35 3.47  33 3.54  34 3.55  28 3.56
                            30 3.56  11 3.68
  30  1.000  0.722  0.679-  54 2.72  48 2.75  53 2.76  36 3.47  33 3.48  31 3.54  35 3.54  28 3.55
                            29 3.56  12 3.67
  31  0.333  0.056  0.679-  46 2.71  49 2.74  48 2.76  28 3.47  34 3.47  35 3.54  30 3.54  32 3.56
                            33 3.56  13 3.67
  32  0.333  0.389  0.679-  47 2.72  50 2.74  46 2.75  29 3.47  35 3.47  28 3.54  36 3.54  33 3.55
                            31 3.56  14 3.67
  33  0.333  0.722  0.679-  48 2.73  47 2.75  51 2.75  36 3.47  30 3.48  34 3.54  29 3.54  32 3.55
                            31 3.56  15 3.67
  34  0.666  0.055  0.679-  49 2.72  52 2.75  51 2.76  31 3.47  28 3.48  33 3.54  29 3.55  36 3.56
                            35 3.56  16 3.68
  35  0.666  0.389  0.679-  50 2.71  53 2.74  49 2.75  32 3.47  29 3.47  31 3.54  30 3.54  36 3.56
                            34 3.56  17 3.67
  36  0.667  0.722  0.679-  51 2.72  54 2.75  50 2.75  30 3.47  33 3.47  32 3.54  28 3.55  35 3.56
                            34 3.56  18 3.67
  37  0.000  0.000  0.381-   9 2.71  21 2.73   3 2.74  27 2.75  19 2.76   1 2.77  40 3.47  43 3.47

  38  0.000  0.333  0.381-   7 2.71  19 2.72  25 2.74   1 2.75  20 2.76   2 2.77  41 3.47  44 3.47

  39  0.000  0.667  0.381-   8 2.71  20 2.72  26 2.74   2 2.74  21 2.75   3 2.77  42 3.46  45 3.47

  40  0.333  0.999  0.381-   3 2.70  24 2.72  21 2.74   6 2.75  22 2.77   4 2.78  43 3.47  37 3.47

  41  0.334  0.334  0.381-   1 2.71  22 2.72  19 2.74   4 2.75  23 2.75   5 2.77  44 3.47  38 3.47

  42  0.332  0.666  0.381-   2 2.71  23 2.72  20 2.74   5 2.75  24 2.76   6 2.78  39 3.46  45 3.48

  43  0.666  0.999  0.381-   6 2.70  27 2.72  24 2.74   9 2.75  25 2.76   7 2.78  40 3.47  37 3.47

  44  0.667  0.333  0.381-   4 2.71  25 2.72   7 2.75  22 2.75  26 2.76   8 2.77  41 3.47  38 3.47

  45  0.667  0.667  0.381-   5 2.70  26 2.72  23 2.74   8 2.75  27 2.76   9 2.77  39 3.47  42 3.48

  46  0.223  0.167  0.619-  31 2.71  10 2.72  13 2.74  28 2.74  32 2.75  14 2.77  49 3.47  52 3.47

  47  0.223  0.501  0.619-  11 2.72  32 2.72  14 2.74  33 2.75  29 2.75  15 2.76  50 3.47  53 3.47

  48  0.223  0.834  0.619-  12 2.70  33 2.73  15 2.74  30 2.75  31 2.76  13 2.76  54 3.47  51 3.48

  49  0.555  0.166  0.619-  13 2.71  34 2.72  31 2.74  35 2.75  16 2.75  17 2.78  46 3.47  52 3.47

  50  0.556  0.500  0.619-  14 2.71  35 2.71  32 2.74  17 2.75  36 2.75  18 2.77  47 3.47  53 3.47

  51  0.556  0.833  0.619-  15 2.71  36 2.72  18 2.74  33 2.75  34 2.76  16 2.77  54 3.47  48 3.48

  52  0.889  0.166  0.619-  16 2.70  28 2.73  10 2.74  34 2.75  29 2.77  11 2.77  46 3.47  49 3.47

  53  0.889  0.500  0.619-  17 2.71  29 2.72  35 2.74  11 2.75  30 2.76  12 2.77  50 3.47  47 3.47

  54  0.889  0.834  0.619-  18 2.70  30 2.72  12 2.74  36 2.75  28 2.76  10 2.76  51 3.47  48 3.47

 

IMPORTANT INFORMATION: All symmetrisations will be switched off!
NOSYMM: (Re-)initialisation of all symmetry stuff for point group C_1.


----------------------------------------------------------------------------------------

                                     Primitive cell                                     

  volume of cell :    2939.6284

  direct lattice vectors                    reciprocal lattice vectors
    10.412930927  0.000000000  0.000000000     0.096034441  0.054313240  0.001547312
    -5.254216915  9.290290680  0.000000000     0.000000000  0.107639258  0.000489870
    -0.411386693 -0.138292973 30.387162132     0.000000000  0.000000000  0.032908634

  length of vectors
    10.412930927 10.673157748 30.390261375     0.110340093  0.107640373  0.032908634

  position of ions in fractional coordinates (direct lattice)
     0.111788045  0.222766439  0.320627908
     0.110986533  0.555638604  0.320620613
     0.111020202  0.889534084  0.320784592
     0.444467618  0.222207471  0.320681670
     0.444674234  0.555694771  0.320822340
     0.444951119  0.889379968  0.320561183
     0.777730027  0.222005693  0.320409790
     0.777851785  0.555442785  0.320580364
     0.777780880  0.888881794  0.320663770
     0.999539441  0.054994920  0.558331918
     0.999727160  0.388634105  0.558385443
     0.000243451  0.722162411  0.558530320
     0.333218948  0.055869391  0.558625375
     0.333359670  0.388967394  0.558480668
     0.333346174  0.722290842  0.558517267
     0.667097792  0.055996967  0.558311285
     0.667247594  0.389383190  0.558367646
     0.667223536  0.722675783  0.558548798
     0.111487556  0.222933691  0.441658631
     0.111212521  0.555670934  0.441546830
     0.110992243  0.888333293  0.441597101
     0.444372832  0.222667296  0.441731431
     0.444479083  0.555806155  0.441375874
     0.444542846  0.888880714  0.441568160
     0.778200865  0.222188805  0.441471954
     0.778069943  0.555854292  0.441457029
     0.777901214  0.889118142  0.441555220
     0.000322934  0.055459220  0.679524196
     0.000028769  0.388877758  0.679346952
     0.999814498  0.722446317  0.679330158
     0.333179127  0.055573626  0.679308939
     0.332931764  0.388699200  0.679187353
     0.333314192  0.721889166  0.679271683
     0.666256894  0.055070391  0.679445165
     0.666377667  0.388694376  0.679148163
     0.666625375  0.721929469  0.679361737
     0.000011673  0.000004321  0.381076103
     0.000070760  0.333391443  0.381098914
     0.000000462  0.666677807  0.381079205
     0.332727747  0.999065522  0.381125605
     0.333510304  0.333568338  0.381205037
     0.332457070  0.666222020  0.381223968
     0.666051963  0.999458727  0.381239943
     0.666731514  0.333434123  0.381038764
     0.666833537  0.666625050  0.381118453
     0.222523625  0.166661971  0.619112227
     0.223058816  0.500925137  0.618844247
     0.222644011  0.833976002  0.618643579
     0.555328567  0.166329184  0.619069361
     0.555601272  0.499867764  0.618977908
     0.555994311  0.833142561  0.618744112
     0.888716032  0.166030216  0.618719076
     0.888922743  0.500007998  0.618892062
     0.889202935  0.833563768  0.618709144

  ion indices of the primitive-cell ions
   primitive index   ion index
                 1           1
                 2           2
                 3           3
                 4           4
                 5           5
                 6           6
                 7           7
                 8           8
                 9           9
                10          10
                11          11
                12          12
                13          13
                14          14
                15          15
                16          16
                17          17
                18          18
                19          19
                20          20
                21          21
                22          22
                23          23
                24          24
                25          25
                26          26
                27          27
                28          28
                29          29
                30          30
                31          31
                32          32
                33          33
                34          34
                35          35
                36          36
                37          37
                38          38
                39          39
                40          40
                41          41
                42          42
                43          43
                44          44
                45          45
                46          46
                47          47
                48          48
                49          49
                50          50
                51          51
                52          52
                53          53
                54          54

----------------------------------------------------------------------------------------

 
 

Automatic generation of k-mesh.
 generate k-points for:    3    3    1
Space group operators:
 irot       det(A)        alpha          n_x          n_y          n_z        tau_x        tau_y        tau_z
    1     1.000000     0.000000     1.000000     0.000000     0.000000     0.000000     0.000000     0.000000
 
 Subroutine IBZKPT returns following result:
 ===========================================
 
 Found      5 irreducible k-points:
 
 Following reciprocal coordinates:
            Coordinates               Weight
  0.000000  0.000000  0.000000      1.000000
  0.333333 -0.000000 -0.000000      2.000000
  0.000000  0.333333 -0.000000      2.000000
  0.333333  0.333333  0.000000      2.000000
 -0.333333  0.333333 -0.000000      2.000000
 
 Following cartesian coordinates:
            Coordinates               Weight
  0.000000  0.000000  0.000000      1.000000
  0.032011  0.018104  0.000516      2.000000
  0.000000  0.035880  0.000163      2.000000
  0.032011  0.053984  0.000679      2.000000
 -0.032011  0.017775 -0.000352      2.000000
 


--------------------------------------------------------------------------------------------------------




 Dimension of arrays:
   k-points           NKPTS =      5   k-points in BZ     NKDIM =      5   number of bands    NBANDS=    200
   number of dos      NEDOS =    301   number of ions     NIONS =     54
   non local maximal  LDIM  =      6   non local SUM 2l+1 LMDIM =     18
   total plane-waves  NPLWV = ******
   max r-space proj   IRMAX =      1   max aug-charges    IRDMAX=  35420
   dimension x,y,z NGX =    80 NGY =   84 NGZ =  240
   dimension x,y,z NGXF=   160 NGYF=  168 NGZF=  480
   support grid    NGXF=   160 NGYF=  168 NGZF=  480
   ions per type =              36  18
   NGX,Y,Z   is equivalent  to a cutoff of  12.77, 13.08, 13.13 a.u.
   NGXF,Y,Z  is equivalent  to a cutoff of  25.54, 26.17, 26.26 a.u.

 SYSTEM =  dpgen_md                                
 POSCAR =  Te Mo                                   

 Startparameter for this run:
   NWRITE =      2    write-flag & timer
   PREC   = a         normal or accurate (medium, high low for compatibility)
   ISTART =      0    job   : 0-new  1-cont  2-samecut
   ICHARG =      2    charge: 1-file 2-atom 10-const
   ISPIN  =      1    spin polarized calculation?
   LNONCOLLINEAR =      F non collinear calculations
   LSORBIT =      F    spin-orbit coupling
   INIWAV =      1    electr: 0-lowe 1-rand  2-diag
   LASPH  =      F    aspherical Exc in radial PAW
   METAGGA=      F    non-selfconsistent MetaGGA calc.

 Electronic Relaxation 1
   ENCUT  =  550.0 eV  40.42 Ry    6.36 a.u.  19.91 20.41 58.11*2*pi/ulx,y,z
   ENINI  =  550.0     initial cutoff
   ENAUG  =  368.8 eV  augmentation charge cutoff
   NELM   =    100;   NELMIN=  6; NELMDL= -5     # of ELM steps 
   EDIFF  = 0.1E-05   stopping-criterion for ELM
   LREAL  =      F    real-space projection
   NLSPLINE    = F    spline interpolate recip. space projectors
   LCOMPAT=      F    compatible to vasp.4.4
   GGA_COMPAT  = T    GGA compatible to vasp.4.4-vasp.4.6
   LMAXPAW     = -100 max onsite density
   LMAXMIX     =    2 max onsite mixed and CHGCAR
   VOSKOWN=      0    Vosko Wilk Nusair interpolation
   ROPT   =    0.00000   0.00000
 Ionic relaxation
   EDIFFG = 0.1E-04   stopping-criterion for IOM
   NSW    =     10    number of steps for IOM
   NBLOCK =      1;   KBLOCK =      1    inner block; outer block 
   IBRION =      0    ionic relax: 0-MD 1-quasi-New 2-CG
   NFREE  =      0    steps in history (QN), initial steepest desc. (CG)
   ISIF   =      2    stress and relaxation
   IWAVPR =     11    prediction:  0-non 1-charg 2-wave 3-comb
   ISYM   =      0    0-nonsym 1-usesym 2-fastsym
   LCORR  =      T    Harris-Foulkes like correction to forces

   POTIM  = 2.0000    time-step for ionic-motion
   TEIN   =  100.0    initial temperature
   TEBEG  =  100.0;   TEEND  = 100.0 temperature during run
   SMASS  =   0.04    Nose mass-parameter (am)
   estimated Nose-frequenzy (Omega)   =  0.79E+14 period in steps = 0.40E+02 mass=   0.327E-28a.u.
   SCALEE = 1.0000    scale energy and forces
   NPACO  =    256;   APACO  = 16.0  distance and # of slots for P.C.
   PSTRESS=    0.0 pullay stress

  Mass of Ions in am
   POMASS = 127.60 95.94
  Ionic Valenz
   ZVAL   =   6.00  6.00
  Atomic Wigner-Seitz radii
   RWIGS  =  -1.00 -1.00
  virtual crystal weights 
   VCA    =   1.00  1.00
   NELECT =     324.0000    total number of electrons
   NUPDOWN=      -1.0000    fix difference up-down

 DOS related values:
   EMIN   =  10.00;   EMAX   =-10.00  energy-range for DOS
   EFERMI =   0.00
   ISMEAR =     0;   SIGMA  =   0.10  broadening in eV -4-tet -1-fermi 0-gaus

 Electronic relaxation 2 (details)
   IALGO  =     68    algorithm
   LDIAG  =      T    sub-space diagonalisation (order eigenvalues)
   LSUBROT=      F    optimize rotation matrix (better conditioning)
   TURBO    =      0    0=normal 1=particle mesh
   IRESTART =      0    0=no restart 2=restart with 2 vectors
   NREBOOT  =      0    no. of reboots
   NMIN     =      0    reboot dimension
   EREF     =   0.00    reference energy to select bands
   IMIX   =      4    mixing-type and parameters
     AMIX     =   0.40;   BMIX     =  1.00
     AMIX_MAG =   1.60;   BMIX_MAG =  1.00
     AMIN     =   0.10
     WC   =   100.;   INIMIX=   1;  MIXPRE=   1;  MAXMIX= -45

 Intra band minimization:
   WEIMIN = 0.0010     energy-eigenvalue tresh-hold
   EBREAK =  0.13E-08  absolut break condition
   DEPER  =   0.30     relativ break condition  

   TIME   =   0.40     timestep for ELM

  volume/ion in A,a.u.               =      54.44       367.36
  Fermi-wavevector in a.u.,A,eV,Ry     =   0.784921  1.483285  8.382553  0.616100
  Thomas-Fermi vector in A             =   1.889151
 
 Write flags
   LWAVE        =      F    write WAVECAR
   LDOWNSAMPLE  =      F    k-point downsampling of WAVECAR
   LCHARG       =      F    write CHGCAR
   LVTOT        =      F    write LOCPOT, total local potential
   LVHAR        =      F    write LOCPOT, Hartree potential only
   LELF         =      F    write electronic localiz. function (ELF)
   LORBIT       =      0    0 simple, 1 ext, 2 COOP (PROOUT), +10 PAW based schemes


 Dipole corrections
   LMONO  =      F    monopole corrections only (constant potential shift)
   LDIPOL =      F    correct potential (dipole corrections)
   IDIPOL =      0    1-x, 2-y, 3-z, 4-all directions 
   EPSILON=  1.0000000 bulk dielectric constant

 Exchange correlation treatment:
   GGA     =    --    GGA type
   LEXCH   =     8    internal setting for exchange type
   VOSKOWN=      0    Vosko Wilk Nusair interpolation
   LHFCALC =     F    Hartree Fock is set to
   LHFONE  =     F    Hartree Fock one center treatment
   AEXX    =    0.0000 exact exchange contribution

 Linear response parameters
   LEPSILON=     F    determine dielectric tensor
   LRPA    =     F    only Hartree local field effects (RPA)
   LNABLA  =     F    use nabla operator in PAW spheres
   LVEL    =     F    velocity operator in full k-point grid
   LINTERFAST=   F  fast interpolation
   KINTER  =     0    interpolate to denser k-point grid
   CSHIFT  =0.1000    complex shift for real part using Kramers Kronig
   OMEGAMAX=  -1.0    maximum frequency
   DEG_THRESHOLD= 0.2000000E-02 threshold for treating states as degnerate
   RTIME   =   -0.100 relaxation time in fs
  (WPLASMAI=    0.000 imaginary part of plasma frequency in eV, 0.658/RTIME)
   DFIELD  = 0.0000000 0.0000000 0.0000000 field for delta impulse in time
 
 Orbital magnetization related:
   ORBITALMAG=     F  switch on orbital magnetization
   LCHIMAG   =     F  perturbation theory with respect to B field
   DQ        =  0.001000  dq finite difference perturbation B field
   LLRAUG    =     F  two centre corrections for induced B field



--------------------------------------------------------------------------------------------------------


 molecular dynamics for ions
   using nose mass (canonical ensemble)
 charge density and potential will be updated during run
 non-spin polarized calculation
 RMM-DIIS sequential band-by-band and
  variant of blocked Davidson during initial phase
 perform sub-space diagonalisation
    before iterative eigenvector-optimisation
 modified Broyden-mixing scheme, WC =      100.0
 initial mixing is a Kerker type mixing with AMIX =  0.4000 and BMIX =      1.0000
 Hartree-type preconditioning will be used
 using additional bands           38
 reciprocal scheme for non local part
 use partial core corrections
 calculate Harris-corrections to forces 
   (improved forces if not selfconsistent)
 use gradient corrections 
 use of overlap-Matrix (Vanderbilt PP)
 Gauss-broadening in eV      SIGMA  =   0.10


--------------------------------------------------------------------------------------------------------


  energy-cutoff  :      550.00
  volume of cell :     2939.63
      direct lattice vectors                 reciprocal lattice vectors
    10.412930927  0.000000000  0.000000000     0.096034441  0.054313240  0.001547312
    -5.254216915  9.290290680  0.000000000     0.000000000  0.107639258  0.000489870
    -0.411386693 -0.138292973 30.387162132     0.000000000  0.000000000  0.032908634

  length of vectors
    10.412930927 10.673157748 30.390261375     0.110340093  0.107640373  0.032908634


 
 k-points in units of 2pi/SCALE and weight: read from INCAR                         
   0.00000000  0.00000000  0.00000000       0.111
   0.03201148  0.01810441  0.00051577       0.222
   0.00000000  0.03587975  0.00016329       0.222
   0.03201148  0.05398417  0.00067906       0.222
  -0.03201148  0.01777534 -0.00035248       0.222
 
 k-points in reciprocal lattice and weights: read from INCAR                         
   0.00000000  0.00000000  0.00000000       0.111
   0.33333333 -0.00000000 -0.00000000       0.222
   0.00000000  0.33333333 -0.00000000       0.222
   0.33333333  0.33333333  0.00000000       0.222
  -0.33333333  0.33333333 -0.00000000       0.222
 
 position of ions in fractional coordinates (direct lattice) 
   0.11178805  0.22276644  0.32062791
   0.11098653  0.55563860  0.32062061
   0.11102020  0.88953408  0.32078459
   0.44446762  0.22220747  0.32068167
   0.44467423  0.55569477  0.32082234
   0.44495112  0.88937997  0.32056118
   0.77773003  0.22200569  0.32040979
   0.77785179  0.55544278  0.32058036
   0.77778088  0.88888179  0.32066377
   0.99953944  0.05499492  0.55833192
   0.99972716  0.38863410  0.55838544
   0.00024345  0.72216241  0.55853032
   0.33321895  0.05586939  0.55862537
   0.33335967  0.38896739  0.55848067
   0.33334617  0.72229084  0.55851727
   0.66709779  0.05599697  0.55831128
   0.66724759  0.38938319  0.55836765
   0.66722354  0.72267578  0.55854880
   0.11148756  0.22293369  0.44165863
   0.11121252  0.55567093  0.44154683
   0.11099224  0.88833329  0.44159710
   0.44437283  0.22266730  0.44173143
   0.44447908  0.55580616  0.44137587
   0.44454285  0.88888071  0.44156816
   0.77820086  0.22218881  0.44147195
   0.77806994  0.55585429  0.44145703
   0.77790121  0.88911814  0.44155522
   0.00032293  0.05545922  0.67952420
   0.00002877  0.38887776  0.67934695
   0.99981450  0.72244632  0.67933016
   0.33317913  0.05557363  0.67930894
   0.33293176  0.38869920  0.67918735
   0.33331419  0.72188917  0.67927168
   0.66625689  0.05507039  0.67944517
   0.66637767  0.38869438  0.67914816
   0.66662538  0.72192947  0.67936174
   0.00001167  0.00000432  0.38107610
   0.00007076  0.33339144  0.38109891
   0.00000046  0.66667781  0.38107921
   0.33272775  0.99906552  0.38112561
   0.33351030  0.33356834  0.38120504
   0.33245707  0.66622202  0.38122397
   0.66605196  0.99945873  0.38123994
   0.66673151  0.33343412  0.38103876
   0.66683354  0.66662505  0.38111845
   0.22252363  0.16666197  0.61911223
   0.22305882  0.50092514  0.61884425
   0.22264401  0.83397600  0.61864358
   0.55532857  0.16632918  0.61906936
   0.55560127  0.49986776  0.61897791
   0.55599431  0.83314256  0.61874411
   0.88871603  0.16603022  0.61871908
   0.88892274  0.50000800  0.61889206
   0.88920294  0.83356377  0.61870914
 
 position of ions in cartesian coordinates  (Angst):
  -0.13832405  2.02522438  9.74297222
  -1.89564971  5.11770457  9.74275056
  -3.64972585  8.21966796  9.74773342
   3.32876018  2.02002398  9.74460589
   1.57863917  5.11819848  9.74888045
  -0.17162461  8.21826707  9.74094465
   6.80017066  2.01818700  9.73634423
   5.04941754  5.11589092  9.74152751
   3.29668401  8.21362470  9.74406198
   9.88948960  0.43370541 16.96612252
   8.13840963  3.53330302 16.96774900
  -4.02163486  6.63185790 16.97215138
   2.94642494  0.44178892 16.97503984
   1.19778065  3.53638620 16.97064260
  -0.55372864  6.63305287 16.97175475
   6.42254119  0.44301757 16.96549553
   4.67239434  3.54026470 16.96720818
   2.92087773  6.63662472 16.97271287
  -0.19212224  2.01004051 13.42075242
  -1.94321382  5.10128168 13.41735511
  -3.69340842  8.19180474 13.41888270
   3.27555890  2.00755555 13.42296461
   1.52642773  5.10256156 13.41216023
  -0.22303340  8.19689444 13.41800328
   6.75430799  2.00314612 13.41507983
   4.99980000  5.10299755 13.41462631
   3.24696208  8.19910201 13.41761005
  -0.56757930  0.42125886 20.64881193
  -2.32242282  3.51883850 20.64342598
   6.33564226  6.61778970 20.64291565
   2.89791669  0.42235149 20.64227086
   1.14507691  3.51720172 20.63857621
  -0.60162794  6.61262169 20.64113877
   6.36882053  0.41765745 20.64641040
   4.61726754  3.51716232 20.63738535
   2.86886958  6.61298367 20.64387526
  -0.15667080 -0.05266000 11.57982132
  -1.90775316  3.04460012 11.58051447
  -3.65963592  6.14093004 11.57991559
  -1.94142592  9.22890211 11.58132556
   1.56335667  3.04622884 11.58373928
  -0.19545297  6.13667562 11.58431453
   1.52734310  9.23253929 11.58479996
   5.03393972  3.04500495 11.57868669
   3.28431189  6.14043449 11.58110823
   1.18675046  1.46271929 18.81306362
  -0.56385757  4.56815832 18.80492046
  -2.31801584  7.66232542 18.79882272
   4.65399150  1.45963353 18.81176104
   2.90438473  4.55831654 18.80898205
   1.15747552  7.65456861 18.80187766
   8.12724709  1.45690447 18.80111689
   6.37453668  4.55963122 18.80637343
   4.62495519  7.65848657 18.80081508
 


--------------------------------------------------------------------------------------------------------


 k-point   1 :   0.0000 0.0000 0.0000  plane waves:   86103
 k-point   2 :   0.3333-0.0000-0.0000  plane waves:   86115
 k-point   3 :   0.0000 0.3333-0.0000  plane waves:   86048
 k-point   4 :   0.3333 0.3333 0.0000  plane waves:   86091
 k-point   5 :  -0.3333 0.3333-0.0000  plane waves:   86114

 maximum and minimum number of plane-waves per node :     86115    86048

 maximum number of plane-waves:     86115
 maximum index in each direction: 
   IXMAX=   20   IYMAX=   20   IZMAX=   58
   IXMIN=  -20   IYMIN=  -20   IZMIN=  -58


 serial   3D FFT for wavefunctions
 parallel 3D FFT for charge:
    minimum data exchange during FFTs selected (reduces bandwidth)


 total amount of memory used by VASP MPI-rank0   364145. kBytes
=======================================================================

   base      :      30000. kBytes
   nonl-proj :     198420. kBytes
   fftplans  :      17372. kBytes
   grid      :      82746. kBytes
   one-center:        839. kBytes
   wavefun   :      34768. kBytes
 
     INWAV:  cpu time    0.0000: real time    0.0000
 Broyden mixing: mesh for mixing (old mesh)
   NGX = 39   NGY = 41   NGZ =117
  (NGX  =160   NGY  =168   NGZ  =480)
  gives a total of 187083 points

 initial charge density was supplied:
 charge density of overlapping atoms calculated
 number of electron     324.0000000 magnetization 
 keeping initial charge density in first step


--------------------------------------------------------------------------------------------------------


 Maximum index for augmentation-charges         1190 (set IRDMAX)


--------------------------------------------------------------------------------------------------------


 First call to EWALD:  gamma=   0.124
 Maximum number of real-space cells 4x 4x 2
 Maximum number of reciprocal cells 2x 2x 5

    FEWALD:  cpu time    0.0073: real time    0.0104


--------------------------------------- Iteration      1(   1)  ---------------------------------------


    POTLOK:  cpu time    0.3168: real time    0.3327
    SETDIJ:  cpu time    0.0193: real time    0.0446
     EDDAV:  cpu time   49.6763: real time   49.8704
       DOS:  cpu time    0.0093: real time    0.0244
    --------------------------------------------
      LOOP:  cpu time   50.0217: real time   50.2721

 eigenvalue-minimisations  :  2000
 total energy-change (2. order) : 0.2113581E+04  (-0.1150159E+05)
 number of electron     324.0000000 magnetization 
 augmentation part      324.0000000 magnetization 

 Free energy of the ion-electron system (eV)
  ---------------------------------------------------
  alpha Z        PSCENC =       244.13500044
  Ewald energy   TEWEN  =     63563.03189618
  -Hartree energ DENC   =    -75236.92157379
  -exchange      EXHF   =         0.00000000
  -V(xc)+E(xc)   XCENC  =     -2101.61741560
  PAW double counting   =      7476.04436201    -4809.59211051
  entropy T*S    EENTRO =        -0.13117754
  eigenvalues    EBANDS =      1025.54978107
  atomic energy  EATOM  =     11953.08265402
  Solvation  Ediel_sol  =         0.00000000
  ---------------------------------------------------
  free energy    TOTEN  =      2113.58141628 eV

  energy without entropy =     2113.71259382  energy(sigma->0) =     2113.64700505


--------------------------------------------------------------------------------------------------------




--------------------------------------- Iteration      1(   2)  ---------------------------------------


     EDDAV:  cpu time   67.9597: real time   68.0782
       DOS:  cpu time    0.0005: real time    0.0005
    --------------------------------------------
      LOOP:  cpu time   67.9602: real time   68.0788

 eigenvalue-minimisations  :  2960
 total energy-change (2. order) :-0.2205668E+04  (-0.2136348E+04)
 number of electron     324.0000000 magnetization 
 augmentation part      324.0000000 magnetization 

 Free energy of the ion-electron system (eV)
  ---------------------------------------------------
  alpha Z        PSCENC =       244.13500044
  Ewald energy   TEWEN  =     63563.03189618
  -Hartree energ DENC   =    -75236.92157379
  -exchange      EXHF   =         0.00000000
  -V(xc)+E(xc)   XCENC  =     -2101.61741560
  PAW double counting   =      7476.04436201    -4809.59211051
  entropy T*S    EENTRO =        -0.00042357
  eigenvalues    EBANDS =     -1180.24865585
  atomic energy  EATOM  =     11953.08265402
  Solvation  Ediel_sol  =         0.00000000
  ---------------------------------------------------
  free energy    TOTEN  =       -92.08626666 eV

  energy without entropy =      -92.08584310  energy(sigma->0) =      -92.08605488


--------------------------------------------------------------------------------------------------------




--------------------------------------- Iteration      1(   3)  ---------------------------------------


     EDDAV:  cpu time   60.7569: real time   60.8746
       DOS:  cpu time    0.0004: real time    0.0004
    --------------------------------------------
      LOOP:  cpu time   60.7573: real time   60.8749

 eigenvalue-minimisations  :  2560
 total energy-change (2. order) :-0.2331074E+03  (-0.2297303E+03)
 number of electron     324.0000000 magnetization 
 augmentation part      324.0000000 magnetization 

 Free energy of the ion-electron system (eV)
  ---------------------------------------------------
  alpha Z        PSCENC =       244.13500044
  Ewald energy   TEWEN  =     63563.03189618
  -Hartree energ DENC   =    -75236.92157379
  -exchange      EXHF   =         0.00000000
  -V(xc)+E(xc)   XCENC  =     -2101.61741560
  PAW double counting   =      7476.04436201    -4809.59211051
  entropy T*S    EENTRO =        -0.00000000
  eigenvalues    EBANDS =     -1413.35645645
  atomic energy  EATOM  =     11953.08265402
  Solvation  Ediel_sol  =         0.00000000
  ---------------------------------------------------
  free energy    TOTEN  =      -325.19364370 eV

  energy without entropy =     -325.19364370  energy(sigma->0) =     -325.19364370


--------------------------------------------------------------------------------------------------------




--------------------------------------- Iteration      1(   4)  ---------------------------------------


     EDDAV:  cpu time   69.9254: real time   70.0446
       DOS:  cpu time    0.0004: real time    0.0004
    --------------------------------------------
      LOOP:  cpu time   69.9257: real time   70.0450

 eigenvalue-minimisations  :  3040
 total energy-change (2. order) :-0.1121155E+02  (-0.1112214E+02)
 number of electron     324.0000000 magnetization 
 augmentation part      324.0000000 magnetization 

 Free energy of the ion-electron system (eV)
  ---------------------------------------------------
  alpha Z        PSCENC =       244.13500044
  Ewald energy   TEWEN  =     63563.03189618
  -Hartree energ DENC   =    -75236.92157379
  -exchange      EXHF   =         0.00000000
  -V(xc)+E(xc)   XCENC  =     -2101.61741560
  PAW double counting   =      7476.04436201    -4809.59211051
  entropy T*S    EENTRO =        -0.00000000
  eigenvalues    EBANDS =     -1424.56800522
  atomic energy  EATOM  =     11953.08265402
  Solvation  Ediel_sol  =         0.00000000
  ---------------------------------------------------
  free energy    TOTEN  =      -336.40519247 eV

  energy without entropy =     -336.40519247  energy(sigma->0) =     -336.40519247


--------------------------------------------------------------------------------------------------------




--------------------------------------- Iteration      1(   5)  ---------------------------------------


     EDDAV:  cpu time   68.3426: real time   68.4818
       DOS:  cpu time    0.0004: real time    0.0004
    CHARGE:  cpu time    1.1370: real time    1.1521
    MIXING:  cpu time    0.0172: real time    0.0251
    --------------------------------------------
      LOOP:  cpu time   69.4972: real time   69.6594

 eigenvalue-minimisations  :  2960
 total energy-change (2. order) :-0.3560946E+00  (-0.3552494E+00)
 number of electron     324.0000014 magnetization 
 augmentation part      -25.6906484 magnetization 

 Broyden mixing:
  rms(total) = 0.19330E+01    rms(broyden)= 0.19330E+01
  rms(prec ) = 0.20448E+01
  weight for this iteration     100.00

 Free energy of the ion-electron system (eV)
  ---------------------------------------------------
  alpha Z        PSCENC =       244.13500044
  Ewald energy   TEWEN  =     63563.03189618
  -Hartree energ DENC   =    -75236.92157379
  -exchange      EXHF   =         0.00000000
  -V(xc)+E(xc)   XCENC  =     -2101.61741560
  PAW double counting   =      7476.04436201    -4809.59211051
  entropy T*S    EENTRO =        -0.00000000
  eigenvalues    EBANDS =     -1424.92409978
  atomic energy  EATOM  =     11953.08265402
  Solvation  Ediel_sol  =         0.00000000
  ---------------------------------------------------
  free energy    TOTEN  =      -336.76128704 eV

  energy without entropy =     -336.76128704  energy(sigma->0) =     -336.76128704


--------------------------------------------------------------------------------------------------------




--------------------------------------- Iteration      1(   6)  ---------------------------------------


    POTLOK:  cpu time    0.2749: real time    0.2752
    SETDIJ:  cpu time    0.0149: real time    0.0149
    EDDIAG:  cpu time    2.5703: real time    2.5856
  RMM-DIIS:  cpu time   42.0360: real time   42.1238
    ORTHCH:  cpu time    0.2302: real time    0.2304
       DOS:  cpu time    0.0004: real time    0.0004
    CHARGE:  cpu time    1.1312: real time    1.1322
    MIXING:  cpu time    0.0180: real time    0.0186
    --------------------------------------------
      LOOP:  cpu time   46.2759: real time   46.3811

 eigenvalue-minimisations  :  2136
 total energy-change (2. order) : 0.9074882E+01  (-0.5850161E+01)
 number of electron     324.0000015 magnetization 
 augmentation part      -19.8456604 magnetization 

 Broyden mixing:
  rms(total) = 0.71427E+00    rms(broyden)= 0.71427E+00
  rms(prec ) = 0.83280E+00
  weight for this iteration     100.00

 eigenvalues of (default mixing * dielectric matrix)
  average eigenvalue GAMMA=   1.0229
  1.0229

 Free energy of the ion-electron system (eV)
  ---------------------------------------------------
  alpha Z        PSCENC =       244.13500044
  Ewald energy   TEWEN  =     63563.03189618
  -Hartree energ DENC   =    -75211.95297712
  -exchange      EXHF   =         0.00000000
  -V(xc)+E(xc)   XCENC  =     -2095.15238273
  PAW double counting   =      7652.40972637    -4997.01277465
  entropy T*S    EENTRO =        -0.00000000
  eigenvalues    EBANDS =     -1436.22754797
  atomic energy  EATOM  =     11953.08265402
  Solvation  Ediel_sol  =         0.00000000
  ---------------------------------------------------
  free energy    TOTEN  =      -327.68640546 eV

  energy without entropy =     -327.68640546  energy(sigma->0) =     -327.68640546


--------------------------------------------------------------------------------------------------------




--------------------------------------- Iteration      1(   7)  ---------------------------------------


    POTLOK:  cpu time    0.2778: real time    0.2781
    SETDIJ:  cpu time    0.0130: real time    0.0130
    EDDIAG:  cpu time    2.5792: real time    2.5817
  RMM-DIIS:  cpu time   40.1726: real time   40.2801
    ORTHCH:  cpu time    0.2272: real time    0.2275
       DOS:  cpu time    0.0005: real time    0.0005
    CHARGE:  cpu time    1.1353: real time    1.1364
    MIXING:  cpu time    0.0072: real time    0.0072
    --------------------------------------------
      LOOP:  cpu time   44.4128: real time   44.5245

 eigenvalue-minimisations  :  2026
 total energy-change (2. order) : 0.3411728E+01  (-0.1134560E+01)
 number of electron     324.0000015 magnetization 
 augmentation part      -21.8236723 magnetization 

 Broyden mixing:
  rms(total) = 0.47772E+00    rms(broyden)= 0.47772E+00
  rms(prec ) = 0.50583E+00
  weight for this iteration     100.00

 eigenvalues of (default mixing * dielectric matrix)
  average eigenvalue GAMMA=   1.4634
  0.7226  2.2042

 Free energy of the ion-electron system (eV)
  ---------------------------------------------------
  alpha Z        PSCENC =       244.13500044
  Ewald energy   TEWEN  =     63563.03189618
  -Hartree energ DENC   =    -75300.23708222
  -exchange      EXHF   =         0.00000000
  -V(xc)+E(xc)   XCENC  =     -2094.03230918
  PAW double counting   =      7926.24337620    -5275.49756649
  entropy T*S    EENTRO =        -0.00000000
  eigenvalues    EBANDS =     -1341.00064691
  atomic energy  EATOM  =     11953.08265402
  Solvation  Ediel_sol  =         0.00000000
  ---------------------------------------------------
  free energy    TOTEN  =      -324.27467795 eV

  energy without entropy =     -324.27467795  energy(sigma->0) =     -324.27467795


--------------------------------------------------------------------------------------------------------




--------------------------------------- Iteration      1(   8)  ---------------------------------------


    POTLOK:  cpu time    0.2759: real time    0.2762
    SETDIJ:  cpu time    0.0109: real time    0.0109
    EDDIAG:  cpu time    2.5584: real time    2.5654
  RMM-DIIS:  cpu time   39.7908: real time   39.8638
    ORTHCH:  cpu time    0.2168: real time    0.2171
       DOS:  cpu time    0.0005: real time    0.0005
    CHARGE:  cpu time    1.1365: real time    1.1377
    MIXING:  cpu time    0.0099: real time    0.0099
    --------------------------------------------
      LOOP:  cpu time   43.9997: real time   44.0815

 eigenvalue-minimisations  :  2015
 total energy-change (2. order) : 0.4681165E+00  (-0.8081536E+00)
 number of electron     324.0000015 magnetization 
 augmentation part      -21.6145753 magnetization 

 Broyden mixing:
  rms(total) = 0.13328E+00    rms(broyden)= 0.13328E+00
  rms(prec ) = 0.15498E+00
  weight for this iteration     100.00

 eigenvalues of (default mixing * dielectric matrix)
  average eigenvalue GAMMA=   1.2730
  2.1135  0.8527  0.8527

 Free energy of the ion-electron system (eV)
  ---------------------------------------------------
  alpha Z        PSCENC =       244.13500044
  Ewald energy   TEWEN  =     63563.03189618
  -Hartree energ DENC   =    -75360.41795534
  -exchange      EXHF   =         0.00000000
  -V(xc)+E(xc)   XCENC  =     -2090.20012162
  PAW double counting   =      8219.36024792    -5574.80170895
  entropy T*S    EENTRO =        -0.00000000
  eigenvalues    EBANDS =     -1277.99657406
  atomic energy  EATOM  =     11953.08265402
  Solvation  Ediel_sol  =         0.00000000
  ---------------------------------------------------
  free energy    TOTEN  =      -323.80656142 eV

  energy without entropy =     -323.80656142  energy(sigma->0) =     -323.80656142


--------------------------------------------------------------------------------------------------------




--------------------------------------- Iteration      1(   9)  ---------------------------------------


    POTLOK:  cpu time    0.2786: real time    0.2789
    SETDIJ:  cpu time    0.0108: real time    0.0108
    EDDIAG:  cpu time    2.5686: real time    2.5754
  RMM-DIIS:  cpu time   44.3413: real time   44.4442
    ORTHCH:  cpu time    0.2160: real time    0.2172
       DOS:  cpu time    0.0005: real time    0.0004
    CHARGE:  cpu time    1.1345: real time    1.1357
    MIXING:  cpu time    0.0072: real time    0.0072
    --------------------------------------------
      LOOP:  cpu time   48.5575: real time   48.6700

 eigenvalue-minimisations  :  2214
 total energy-change (2. order) :-0.3473573E-01  (-0.1493592E+00)
 number of electron     324.0000015 magnetization 
 augmentation part      -21.1500752 magnetization 

 Broyden mixing:
  rms(total) = 0.10082E+00    rms(broyden)= 0.10082E+00
  rms(prec ) = 0.11148E+00
  weight for this iteration     100.00

 eigenvalues of (default mixing * dielectric matrix)
  average eigenvalue GAMMA=   1.1581
  1.9709  1.4741  0.7203  0.4669

 Free energy of the ion-electron system (eV)
  ---------------------------------------------------
  alpha Z        PSCENC =       244.13500044
  Ewald energy   TEWEN  =     63563.03189618
  -Hartree energ DENC   =    -75356.60487495
  -exchange      EXHF   =         0.00000000
  -V(xc)+E(xc)   XCENC  =     -2089.88025138
  PAW double counting   =      8216.02554487    -5571.57142378
  entropy T*S    EENTRO =        -0.00000000
  eigenvalues    EBANDS =     -1282.05984255
  atomic energy  EATOM  =     11953.08265402
  Solvation  Ediel_sol  =         0.00000000
  ---------------------------------------------------
  free energy    TOTEN  =      -323.84129715 eV

  energy without entropy =     -323.84129715  energy(sigma->0) =     -323.84129715


--------------------------------------------------------------------------------------------------------




--------------------------------------- Iteration      1(  10)  ---------------------------------------


    POTLOK:  cpu time    0.2808: real time    0.2810
    SETDIJ:  cpu time    0.0136: real time    0.0136
    EDDIAG:  cpu time    2.5800: real time    2.5910
  RMM-DIIS:  cpu time   47.7151: real time   47.8090
    ORTHCH:  cpu time    0.2224: real time    0.2227
       DOS:  cpu time    0.0005: real time    0.0005
    CHARGE:  cpu time    1.1391: real time    1.1443
    MIXING:  cpu time    0.0073: real time    0.0073
    --------------------------------------------
      LOOP:  cpu time   51.9589: real time   52.0694

 eigenvalue-minimisations  :  2388
 total energy-change (2. order) :-0.8899307E-02  (-0.4223717E-01)
 number of electron     324.0000015 magnetization 
 augmentation part      -20.9977750 magnetization 

 Broyden mixing:
  rms(total) = 0.77074E-01    rms(broyden)= 0.77074E-01
  rms(prec ) = 0.86335E-01
  weight for this iteration     100.00

 eigenvalues of (default mixing * dielectric matrix)
  average eigenvalue GAMMA=   1.2839
  2.3396  1.8752  0.9079  0.9079  0.3888

 Free energy of the ion-electron system (eV)
  ---------------------------------------------------
  alpha Z        PSCENC =       244.13500044
  Ewald energy   TEWEN  =     63563.03189618
  -Hartree energ DENC   =    -75359.63800756
  -exchange      EXHF   =         0.00000000
  -V(xc)+E(xc)   XCENC  =     -2089.70108573
  PAW double counting   =      8230.13281879    -5585.69448540
  entropy T*S    EENTRO =        -0.00000000
  eigenvalues    EBANDS =     -1279.19898720
  atomic energy  EATOM  =     11953.08265402
  Solvation  Ediel_sol  =         0.00000000
  ---------------------------------------------------
  free energy    TOTEN  =      -323.85019646 eV

  energy without entropy =     -323.85019646  energy(sigma->0) =     -323.85019646


--------------------------------------------------------------------------------------------------------




--------------------------------------- Iteration      1(  11)  ---------------------------------------


    POTLOK:  cpu time    0.2796: real time    0.2799
    SETDIJ:  cpu time    0.0111: real time    0.0111
    EDDIAG:  cpu time    2.5613: real time    2.5721
  RMM-DIIS:  cpu time   42.4872: real time   42.5676
    ORTHCH:  cpu time    0.2228: real time    0.2230
       DOS:  cpu time    0.0004: real time    0.0004
    CHARGE:  cpu time    1.1520: real time    1.1531
    MIXING:  cpu time    0.0078: real time    0.0078
    --------------------------------------------
      LOOP:  cpu time   46.7223: real time   46.8151

 eigenvalue-minimisations  :  2124
 total energy-change (2. order) : 0.1325310E-01  (-0.2146937E-01)
 number of electron     324.0000015 magnetization 
 augmentation part      -21.3370840 magnetization 

 Broyden mixing:
  rms(total) = 0.38906E-01    rms(broyden)= 0.38905E-01
  rms(prec ) = 0.44119E-01
  weight for this iteration     100.00

 eigenvalues of (default mixing * dielectric matrix)
  average eigenvalue GAMMA=   1.2268
  2.5311  1.6034  1.4214  0.7116  0.7116  0.3817

 Free energy of the ion-electron system (eV)
  ---------------------------------------------------
  alpha Z        PSCENC =       244.13500044
  Ewald energy   TEWEN  =     63563.03189618
  -Hartree energ DENC   =    -75378.43799987
  -exchange      EXHF   =         0.00000000
  -V(xc)+E(xc)   XCENC  =     -2089.44413564
  PAW double counting   =      8281.00753579    -5636.77902962
  entropy T*S    EENTRO =        -0.00000000
  eigenvalues    EBANDS =     -1260.43286466
  atomic energy  EATOM  =     11953.08265402
  Solvation  Ediel_sol  =         0.00000000
  ---------------------------------------------------
  free energy    TOTEN  =      -323.83694336 eV

  energy without entropy =     -323.83694336  energy(sigma->0) =     -323.83694336


--------------------------------------------------------------------------------------------------------




--------------------------------------- Iteration      1(  12)  ---------------------------------------


    POTLOK:  cpu time    0.2807: real time    0.2810
    SETDIJ:  cpu time    0.0107: real time    0.0107
    EDDIAG:  cpu time    2.5570: real time    2.5597
  RMM-DIIS:  cpu time   47.7119: real time   47.8250
    ORTHCH:  cpu time    0.2180: real time    0.2183
       DOS:  cpu time    0.0004: real time    0.0004
    CHARGE:  cpu time    1.1307: real time    1.1319
    MIXING:  cpu time    0.0076: real time    0.0076
    --------------------------------------------
      LOOP:  cpu time   51.9170: real time   52.0344

 eigenvalue-minimisations  :  2402
 total energy-change (2. order) : 0.1230786E-02  (-0.4078540E-02)
 number of electron     324.0000015 magnetization 
 augmentation part      -21.3147805 magnetization 

 Broyden mixing:
  rms(total) = 0.27821E-01    rms(broyden)= 0.27821E-01
  rms(prec ) = 0.32043E-01
  weight for this iteration     100.00

 eigenvalues of (default mixing * dielectric matrix)
  average eigenvalue GAMMA=   1.1981
  2.5351  1.7453  1.7453  0.7935  0.7935  0.4018  0.3720

 Free energy of the ion-electron system (eV)
  ---------------------------------------------------
  alpha Z        PSCENC =       244.13500044
  Ewald energy   TEWEN  =     63563.03189618
  -Hartree energ DENC   =    -75381.99886601
  -exchange      EXHF   =         0.00000000
  -V(xc)+E(xc)   XCENC  =     -2089.32854436
  PAW double counting   =      8284.41992237    -5640.22765403
  entropy T*S    EENTRO =        -0.00000000
  eigenvalues    EBANDS =     -1256.95012118
  atomic energy  EATOM  =     11953.08265402
  Solvation  Ediel_sol  =         0.00000000
  ---------------------------------------------------
  free energy    TOTEN  =      -323.83571257 eV

  energy without entropy =     -323.83571257  energy(sigma->0) =     -323.83571257


--------------------------------------------------------------------------------------------------------




--------------------------------------- Iteration      1(  13)  ---------------------------------------


    POTLOK:  cpu time    0.2774: real time    0.2776
    SETDIJ:  cpu time    0.0110: real time    0.0110
    EDDIAG:  cpu time    2.5623: real time    2.5651
  RMM-DIIS:  cpu time   47.8540: real time   47.9497
    ORTHCH:  cpu time    0.2286: real time    0.2289
       DOS:  cpu time    0.0005: real time    0.0005
    CHARGE:  cpu time    1.1358: real time    1.1370
    MIXING:  cpu time    0.0104: real time    0.0104
    --------------------------------------------
      LOOP:  cpu time   52.0801: real time   52.1804

 eigenvalue-minimisations  :  2379
 total energy-change (2. order) : 0.1779277E-02  (-0.2239430E-02)
 number of electron     324.0000015 magnetization 
 augmentation part      -21.2186471 magnetization 

 Broyden mixing:
  rms(total) = 0.92193E-02    rms(broyden)= 0.92192E-02
  rms(prec ) = 0.12125E-01
  weight for this iteration     100.00

 eigenvalues of (default mixing * dielectric matrix)
  average eigenvalue GAMMA=   1.2234
  2.4350  2.0498  2.0498  0.8876  0.7943  0.7943  0.4041  0.3721

 Free energy of the ion-electron system (eV)
  ---------------------------------------------------
  alpha Z        PSCENC =       244.13500044
  Ewald energy   TEWEN  =     63563.03189618
  -Hartree energ DENC   =    -75384.05904309
  -exchange      EXHF   =         0.00000000
  -V(xc)+E(xc)   XCENC  =     -2089.25279583
  PAW double counting   =      8280.86562183    -5636.66079762
  entropy T*S    EENTRO =        -0.00000000
  eigenvalues    EBANDS =     -1254.97646922
  atomic energy  EATOM  =     11953.08265402
  Solvation  Ediel_sol  =         0.00000000
  ---------------------------------------------------
  free energy    TOTEN  =      -323.83393330 eV

  energy without entropy =     -323.83393330  energy(sigma->0) =     -323.83393330


--------------------------------------------------------------------------------------------------------




--------------------------------------- Iteration      1(  14)  ---------------------------------------


    POTLOK:  cpu time    0.2854: real time    0.2858
    SETDIJ:  cpu time    0.0107: real time    0.0107
    EDDIAG:  cpu time    2.5718: real time    2.5747
  RMM-DIIS:  cpu time   54.7359: real time   54.8870
    ORTHCH:  cpu time    0.2341: real time    0.2343
       DOS:  cpu time    0.0005: real time    0.0005
    CHARGE:  cpu time    1.1374: real time    1.1386
    MIXING:  cpu time    0.0083: real time    0.0083
    --------------------------------------------
      LOOP:  cpu time   58.9841: real time   59.1400

 eigenvalue-minimisations  :  2696
 total energy-change (2. order) :-0.9942671E-03  (-0.8609992E-03)
 number of electron     324.0000015 magnetization 
 augmentation part      -21.1934835 magnetization 

 Broyden mixing:
  rms(total) = 0.95159E-02    rms(broyden)= 0.95159E-02
  rms(prec ) = 0.11961E-01
  weight for this iteration     100.00

 eigenvalues of (default mixing * dielectric matrix)
  average eigenvalue GAMMA=   1.3007
  3.1448  2.5783  1.5339  1.5339  0.7887  0.7887  0.5655  0.4023  0.3706

 Free energy of the ion-electron system (eV)
  ---------------------------------------------------
  alpha Z        PSCENC =       244.13500044
  Ewald energy   TEWEN  =     63563.03189618
  -Hartree energ DENC   =    -75389.48022333
  -exchange      EXHF   =         0.00000000
  -V(xc)+E(xc)   XCENC  =     -2089.22307036
  PAW double counting   =      8278.63329330    -5634.36098147
  entropy T*S    EENTRO =        -0.00000000
  eigenvalues    EBANDS =     -1249.65349634
  atomic energy  EATOM  =     11953.08265402
  Solvation  Ediel_sol  =         0.00000000
  ---------------------------------------------------
  free energy    TOTEN  =      -323.83492756 eV

  energy without entropy =     -323.83492756  energy(sigma->0) =     -323.83492756


--------------------------------------------------------------------------------------------------------




--------------------------------------- Iteration      1(  15)  ---------------------------------------


    POTLOK:  cpu time    0.2736: real time    0.2779
    SETDIJ:  cpu time    0.0108: real time    0.0108
    EDDIAG:  cpu time    2.5543: real time    2.5612
  RMM-DIIS:  cpu time   42.9061: real time   42.9977
    ORTHCH:  cpu time    0.2141: real time    0.2143
       DOS:  cpu time    0.0045: real time    0.0045
    CHARGE:  cpu time    1.1343: real time    1.1355
    MIXING:  cpu time    0.0079: real time    0.0079
    --------------------------------------------
      LOOP:  cpu time   47.1057: real time   47.2100

 eigenvalue-minimisations  :  2130
 total energy-change (2. order) :-0.2940786E-03  (-0.1837563E-03)
 number of electron     324.0000015 magnetization 
 augmentation part      -21.2183613 magnetization 

 Broyden mixing:
  rms(total) = 0.49816E-02    rms(broyden)= 0.49816E-02
  rms(prec ) = 0.63681E-02
  weight for this iteration     100.00

 eigenvalues of (default mixing * dielectric matrix)
  average eigenvalue GAMMA=   1.2684
  3.3978  2.5278  1.6401  1.6401  0.7831  0.7831  0.6640  0.3692  0.3987  0.4803

 Free energy of the ion-electron system (eV)
  ---------------------------------------------------
  alpha Z        PSCENC =       244.13500044
  Ewald energy   TEWEN  =     63563.03189618
  -Hartree energ DENC   =    -75395.47967952
  -exchange      EXHF   =         0.00000000
  -V(xc)+E(xc)   XCENC  =     -2089.20426280
  PAW double counting   =      8278.42697964    -5634.10324426
  entropy T*S    EENTRO =        -0.00000000
  eigenvalues    EBANDS =     -1243.72456535
  atomic energy  EATOM  =     11953.08265402
  Solvation  Ediel_sol  =         0.00000000
  ---------------------------------------------------
  free energy    TOTEN  =      -323.83522164 eV

  energy without entropy =     -323.83522164  energy(sigma->0) =     -323.83522164


--------------------------------------------------------------------------------------------------------




--------------------------------------- Iteration      1(  16)  ---------------------------------------


    POTLOK:  cpu time    0.2863: real time    0.2866
    SETDIJ:  cpu time    0.0108: real time    0.0108
    EDDIAG:  cpu time    2.5558: real time    2.5585
  RMM-DIIS:  cpu time   50.0531: real time   50.1647
    ORTHCH:  cpu time    0.2207: real time    0.2209
       DOS:  cpu time    0.0004: real time    0.0004
    CHARGE:  cpu time    1.1356: real time    1.1367
    MIXING:  cpu time    0.0081: real time    0.0081
    --------------------------------------------
      LOOP:  cpu time   54.2708: real time   54.3868

 eigenvalue-minimisations  :  2498
 total energy-change (2. order) :-0.6485570E-03  (-0.9116571E-04)
 number of electron     324.0000015 magnetization 
 augmentation part      -21.2284478 magnetization 

 Broyden mixing:
  rms(total) = 0.44264E-02    rms(broyden)= 0.44264E-02
  rms(prec ) = 0.53995E-02
  weight for this iteration     100.00

 eigenvalues of (default mixing * dielectric matrix)
  average eigenvalue GAMMA=   1.2976
  3.4503  2.4193  2.0256  2.0256  1.0283  0.7933  0.7933  0.5736  0.3693  0.3992
  0.3953

 Free energy of the ion-electron system (eV)
  ---------------------------------------------------
  alpha Z        PSCENC =       244.13500044
  Ewald energy   TEWEN  =     63563.03189618
  -Hartree energ DENC   =    -75397.15172760
  -exchange      EXHF   =         0.00000000
  -V(xc)+E(xc)   XCENC  =     -2089.19681826
  PAW double counting   =      8278.33474035    -5634.01366956
  entropy T*S    EENTRO =        -0.00000000
  eigenvalues    EBANDS =     -1242.05794577
  atomic energy  EATOM  =     11953.08265402
  Solvation  Ediel_sol  =         0.00000000
  ---------------------------------------------------
  free energy    TOTEN  =      -323.83587020 eV

  energy without entropy =     -323.83587020  energy(sigma->0) =     -323.83587020


--------------------------------------------------------------------------------------------------------




--------------------------------------- Iteration      1(  17)  ---------------------------------------


    POTLOK:  cpu time    0.2853: real time    0.2857
    SETDIJ:  cpu time    0.0108: real time    0.0108
    EDDIAG:  cpu time    2.5708: real time    2.5778
  RMM-DIIS:  cpu time   41.4786: real time   41.5647
    ORTHCH:  cpu time    0.2217: real time    0.2221
       DOS:  cpu time    0.0004: real time    0.0004
    CHARGE:  cpu time    1.1374: real time    1.1384
    MIXING:  cpu time    0.0087: real time    0.0087
    --------------------------------------------
      LOOP:  cpu time   45.7137: real time   45.8085

 eigenvalue-minimisations  :  2062
 total energy-change (2. order) :-0.1513550E-02  (-0.3001043E-04)
 number of electron     324.0000015 magnetization 
 augmentation part      -21.2246918 magnetization 

 Broyden mixing:
  rms(total) = 0.19797E-02    rms(broyden)= 0.19797E-02
  rms(prec ) = 0.27165E-02
  weight for this iteration     100.00

 eigenvalues of (default mixing * dielectric matrix)
  average eigenvalue GAMMA=   1.3744
  4.3495  2.5757  2.3260  1.5042  1.5042  0.9189  0.7996  0.7996  0.5578  0.3698
  0.3892  0.3986

 Free energy of the ion-electron system (eV)
  ---------------------------------------------------
  alpha Z        PSCENC =       244.13500044
  Ewald energy   TEWEN  =     63563.03189618
  -Hartree energ DENC   =    -75400.04506643
  -exchange      EXHF   =         0.00000000
  -V(xc)+E(xc)   XCENC  =     -2089.17821660
  PAW double counting   =      8277.39286862    -5633.09436228
  entropy T*S    EENTRO =        -0.00000000
  eigenvalues    EBANDS =     -1239.16215770
  atomic energy  EATOM  =     11953.08265402
  Solvation  Ediel_sol  =         0.00000000
  ---------------------------------------------------
  free energy    TOTEN  =      -323.83738375 eV

  energy without entropy =     -323.83738375  energy(sigma->0) =     -323.83738375


--------------------------------------------------------------------------------------------------------




--------------------------------------- Iteration      1(  18)  ---------------------------------------


    POTLOK:  cpu time    0.2894: real time    0.2900
    SETDIJ:  cpu time    0.0157: real time    0.0157
    EDDIAG:  cpu time    2.5657: real time    2.5686
  RMM-DIIS:  cpu time   42.0400: real time   42.1147
    ORTHCH:  cpu time    0.2261: real time    0.2263
       DOS:  cpu time    0.0004: real time    0.0004
    CHARGE:  cpu time    1.1451: real time    1.1463
    MIXING:  cpu time    0.0083: real time    0.0083
    --------------------------------------------
      LOOP:  cpu time   46.2907: real time   46.3704

 eigenvalue-minimisations  :  2092
 total energy-change (2. order) :-0.1113309E-02  (-0.3583084E-04)
 number of electron     324.0000015 magnetization 
 augmentation part      -21.2221520 magnetization 

 Broyden mixing:
  rms(total) = 0.17956E-02    rms(broyden)= 0.17956E-02
  rms(prec ) = 0.21762E-02
  weight for this iteration     100.00

 eigenvalues of (default mixing * dielectric matrix)
  average eigenvalue GAMMA=   1.3932
  5.0858  2.7083  2.3107  1.6555  1.6555  0.9647  0.8009  0.8009  0.5540  0.4216
  0.4023  0.3703  0.3815

 Free energy of the ion-electron system (eV)
  ---------------------------------------------------
  alpha Z        PSCENC =       244.13500044
  Ewald energy   TEWEN  =     63563.03189618
  -Hartree energ DENC   =    -75402.60305520
  -exchange      EXHF   =         0.00000000
  -V(xc)+E(xc)   XCENC  =     -2089.16654607
  PAW double counting   =      8276.64777884    -5632.34679217
  entropy T*S    EENTRO =        -0.00000000
  eigenvalues    EBANDS =     -1236.61943309
  atomic energy  EATOM  =     11953.08265402
  Solvation  Ediel_sol  =         0.00000000
  ---------------------------------------------------
  free energy    TOTEN  =      -323.83849706 eV

  energy without entropy =     -323.83849706  energy(sigma->0) =     -323.83849706


--------------------------------------------------------------------------------------------------------




--------------------------------------- Iteration      1(  19)  ---------------------------------------


    POTLOK:  cpu time    0.2786: real time    0.2801
    SETDIJ:  cpu time    0.0109: real time    0.0109
    EDDIAG:  cpu time    2.5710: real time    2.5821
  RMM-DIIS:  cpu time   46.1063: real time   46.2141
    ORTHCH:  cpu time    0.2182: real time    0.2184
       DOS:  cpu time    0.0004: real time    0.0004
    CHARGE:  cpu time    1.1418: real time    1.1432
    MIXING:  cpu time    0.0086: real time    0.0086
    --------------------------------------------
      LOOP:  cpu time   50.3358: real time   50.4578

 eigenvalue-minimisations  :  2299
 total energy-change (2. order) :-0.4402373E-03  (-0.9503542E-05)
 number of electron     324.0000015 magnetization 
 augmentation part      -21.2207476 magnetization 

 Broyden mixing:
  rms(total) = 0.11581E-02    rms(broyden)= 0.11581E-02
  rms(prec ) = 0.14162E-02
  weight for this iteration     100.00

 eigenvalues of (default mixing * dielectric matrix)
  average eigenvalue GAMMA=   1.4988
  6.1295  2.9084  2.3582  1.9457  1.9457  0.9937  0.9937  0.7995  0.7995  0.5663
  0.4014  0.4014  0.3698  0.3698

 Free energy of the ion-electron system (eV)
  ---------------------------------------------------
  alpha Z        PSCENC =       244.13500044
  Ewald energy   TEWEN  =     63563.03189618
  -Hartree energ DENC   =    -75403.41608344
  -exchange      EXHF   =         0.00000000
  -V(xc)+E(xc)   XCENC  =     -2089.16413192
  PAW double counting   =      8276.60818977    -5632.30399665
  entropy T*S    EENTRO =        -0.00000000
  eigenvalues    EBANDS =     -1235.81246570
  atomic energy  EATOM  =     11953.08265402
  Solvation  Ediel_sol  =         0.00000000
  ---------------------------------------------------
  free energy    TOTEN  =      -323.83893729 eV

  energy without entropy =     -323.83893729  energy(sigma->0) =     -323.83893729


--------------------------------------------------------------------------------------------------------




--------------------------------------- Iteration      1(  20)  ---------------------------------------


    POTLOK:  cpu time    0.2871: real time    0.2875
    SETDIJ:  cpu time    0.0153: real time    0.0154
    EDDIAG:  cpu time    2.5623: real time    2.5692
  RMM-DIIS:  cpu time   41.8677: real time   41.9766
    ORTHCH:  cpu time    0.2182: real time    0.2185
       DOS:  cpu time    0.0004: real time    0.0004
    CHARGE:  cpu time    1.1422: real time    1.1433
    MIXING:  cpu time    0.0140: real time    0.0140
    --------------------------------------------
      LOOP:  cpu time   46.1073: real time   46.2249

 eigenvalue-minimisations  :  2056
 total energy-change (2. order) :-0.6403072E-03  (-0.8889665E-05)
 number of electron     324.0000015 magnetization 
 augmentation part      -21.2192286 magnetization 

 Broyden mixing:
  rms(total) = 0.63952E-03    rms(broyden)= 0.63951E-03
  rms(prec ) = 0.77270E-03
  weight for this iteration     100.00

 eigenvalues of (default mixing * dielectric matrix)
  average eigenvalue GAMMA=   1.5537
  6.8456  3.2823  2.5027  1.8123  1.8123  1.2099  1.2099  0.9284  0.7950  0.7950
  0.5702  0.4021  0.4021  0.3702  0.3677

 Free energy of the ion-electron system (eV)
  ---------------------------------------------------
  alpha Z        PSCENC =       244.13500044
  Ewald energy   TEWEN  =     63563.03189618
  -Hartree energ DENC   =    -75404.05274858
  -exchange      EXHF   =         0.00000000
  -V(xc)+E(xc)   XCENC  =     -2089.16466059
  PAW double counting   =      8277.20049157    -5632.89445489
  entropy T*S    EENTRO =        -0.00000000
  eigenvalues    EBANDS =     -1235.17775575
  atomic energy  EATOM  =     11953.08265402
  Solvation  Ediel_sol  =         0.00000000
  ---------------------------------------------------
  free energy    TOTEN  =      -323.83957760 eV

  energy without entropy =     -323.83957760  energy(sigma->0) =     -323.83957760


--------------------------------------------------------------------------------------------------------




--------------------------------------- Iteration      1(  21)  ---------------------------------------


    POTLOK:  cpu time    0.2855: real time    0.2857
    SETDIJ:  cpu time    0.0142: real time    0.0142
    EDDIAG:  cpu time    2.5706: real time    2.5732
  RMM-DIIS:  cpu time   45.0575: real time   45.1517
    ORTHCH:  cpu time    0.2157: real time    0.2159
       DOS:  cpu time    0.0004: real time    0.0004
    CHARGE:  cpu time    1.1327: real time    1.1340
    MIXING:  cpu time    0.0086: real time    0.0086
    --------------------------------------------
      LOOP:  cpu time   49.2853: real time   49.3838

 eigenvalue-minimisations  :  2214
 total energy-change (2. order) :-0.1784809E-03  (-0.2195675E-05)
 number of electron     324.0000015 magnetization 
 augmentation part      -21.2209982 magnetization 

 Broyden mixing:
  rms(total) = 0.38095E-03    rms(broyden)= 0.38095E-03
  rms(prec ) = 0.44996E-03
  weight for this iteration     100.00

 eigenvalues of (default mixing * dielectric matrix)
  average eigenvalue GAMMA=   1.5170
  7.0745  3.3282  2.5008  1.8173  1.8173  1.5273  1.0773  0.9500  0.7952  0.7952
  0.5722  0.4730  0.4029  0.4029  0.3678  0.3696

 Free energy of the ion-electron system (eV)
  ---------------------------------------------------
  alpha Z        PSCENC =       244.13500044
  Ewald energy   TEWEN  =     63563.03189618
  -Hartree energ DENC   =    -75404.35746337
  -exchange      EXHF   =         0.00000000
  -V(xc)+E(xc)   XCENC  =     -2089.16532171
  PAW double counting   =      8277.31729753    -5633.01425721
  entropy T*S    EENTRO =        -0.00000000
  eigenvalues    EBANDS =     -1234.86956196
  atomic energy  EATOM  =     11953.08265402
  Solvation  Ediel_sol  =         0.00000000
  ---------------------------------------------------
  free energy    TOTEN  =      -323.83975608 eV

  energy without entropy =     -323.83975608  energy(sigma->0) =     -323.83975608


--------------------------------------------------------------------------------------------------------




--------------------------------------- Iteration      1(  22)  ---------------------------------------


    POTLOK:  cpu time    0.2831: real time    0.2834
    SETDIJ:  cpu time    0.0109: real time    0.0109
    EDDIAG:  cpu time    2.5585: real time    2.5748
  RMM-DIIS:  cpu time   36.0625: real time   36.1548
    ORTHCH:  cpu time    0.2235: real time    0.2277
       DOS:  cpu time    0.0004: real time    0.0005
    CHARGE:  cpu time    1.1390: real time    1.1401
    MIXING:  cpu time    0.0090: real time    0.0090
    --------------------------------------------
      LOOP:  cpu time   40.2869: real time   40.4012

 eigenvalue-minimisations  :  1659
 total energy-change (2. order) :-0.5110005E-04  (-0.7099264E-06)
 number of electron     324.0000015 magnetization 
 augmentation part      -21.2215919 magnetization 

 Broyden mixing:
[...]
 -0.000  -0.000   0.000  -0.000  -0.000   0.011   0.000   0.000
  0.000  -0.000  -0.000   0.000  -0.000   0.000   0.011   0.000
 -0.000  -0.000  -0.000  -0.000   0.000   0.000   0.000   0.011
  0.000   0.000   0.000   0.000  -0.000  -0.000  -0.000  -0.000
 -0.000   0.000   0.014   0.000   0.000   0.000  -0.000  -0.000
 -0.009  -0.000  -0.000   0.018  -0.000   0.000   0.000   0.000
 -0.000   0.000   0.000   0.001   0.014  -0.000  -0.000   0.000
  0.000   0.000  -0.001   0.000   0.000  -0.000   0.000  -0.000
 total augmentation occupancy for first ion, spin component:           1
  1.936   0.193  -0.000  -0.200   0.004  -0.003  -0.038  -0.003   0.001   0.001   0.007   0.001  -0.001
  0.193   1.330   0.005   0.924  -0.004  -0.002  -0.360  -0.001   0.003   0.001  -0.024  -0.001   0.004
 -0.000   0.005   1.333   0.002  -0.001  -0.470  -0.006  -0.007   0.000   0.114   0.001   0.003   0.041
 -0.200   0.924   0.002   1.491   0.011  -0.006  -0.536  -0.002   0.004   0.002   0.039   0.002  -0.001
  0.004  -0.004  -0.001   0.011   1.332  -0.007  -0.002  -0.464   0.043   0.003   0.002   0.115  -0.002
 -0.003  -0.002  -0.470  -0.006  -0.007   0.290   0.002   0.003  -0.001  -0.037  -0.000  -0.000  -0.007
 -0.038  -0.360  -0.006  -0.536  -0.002   0.002   0.278  -0.000  -0.000  -0.001  -0.043  -0.001   0.000
 -0.003  -0.001  -0.007  -0.002  -0.464   0.003  -0.000   0.297  -0.007  -0.000   0.000  -0.036  -0.001
  0.001   0.003   0.000   0.004   0.043  -0.001  -0.000  -0.007   0.019   0.000  -0.001  -0.000  -0.000
  0.001   0.001   0.114   0.002   0.003  -0.037  -0.001  -0.000   0.000   0.017   0.000   0.000  -0.001
  0.007  -0.024   0.001   0.039   0.002  -0.000  -0.043   0.000  -0.001   0.000   0.019   0.000  -0.000
  0.001  -0.001   0.003   0.002   0.115  -0.000  -0.001  -0.036  -0.000   0.000   0.000   0.018   0.000
 -0.001   0.004   0.041  -0.001  -0.002  -0.007   0.000  -0.001  -0.000  -0.001  -0.000   0.000   0.020


------------------------ aborting loop because EDIFF is reached ----------------------------------------


    CHARGE:  cpu time    1.1324: real time    1.1336
    FORLOC:  cpu time    0.0820: real time    0.0820
    FORNL :  cpu time   13.6764: real time   13.7168
    STRESS:  cpu time   72.7041: real time   72.8728
    FORCOR:  cpu time    0.3194: real time    0.3197
    FORHAR:  cpu time    0.1363: real time    0.1364
    MIXING:  cpu time    0.0073: real time    0.0073
    OFIELD:  cpu time    0.0000: real time    0.0000

  Number of pair interactions contributing to vdW energy:  268439
  Edisp (eV):  -19.33002
    FORVDW:  cpu time    0.0297: real time    0.0297

  FORCE on cell =-STRESS in cart. coord.  units (eV):
  Direction    XX          YY          ZZ          XY          YZ          ZX
  --------------------------------------------------------------------------------------
  Alpha Z   244.13500   244.13500   244.13500
  Ewald   72779.99008 72692.79635-81868.57845    19.36633    -1.57077    21.79000
  Hartree 75081.38664 75059.60872-74697.54071     5.69949    -2.13176     2.44812
  E(xc)   -1353.30783 -1351.45099 -1370.68402    -0.12718    -0.38253    -0.87355
  Local  ************************151510.98156   -24.20632     2.92344   -23.87925
  n-local  3545.58427  3546.80485  3727.52374     0.28732     3.11546     6.11989
  augment  -759.33449  -761.61851  -800.45612     0.17365    -0.69673    -1.00259
  Kinetic  3299.51640  3275.57279  3246.18191     2.02796    -0.60936     3.64889
  Fock        0.00000     0.00000     0.00000     0.00000     0.00000     0.00000
  vdW       -12.51785   -12.29250    -9.69179     0.17237    -0.81552    -0.28402
  -------------------------------------------------------------------------------------
  Total       8.10131   -17.95394   -18.12887     3.39362    -0.16777     7.96750
  in kB       4.41544    -9.78538    -9.88073     1.84962    -0.09144     4.34250
  external pressure =       -5.08 kB  Pullay stress =        0.00 kB

  kinetic pressure (ideal gas correction) =      0.21 kB
  total pressure  =     -4.87 kB
  Total+kin.     4.633      -9.552      -9.687       1.825      -0.054       4.293

 VOLUME and BASIS-vectors are now :
 -----------------------------------------------------------------------------
  energy-cutoff  :      550.00
  volume of cell :     2939.63
      direct lattice vectors                 reciprocal lattice vectors
    10.412930927  0.000000000  0.000000000     0.096034441  0.054313240  0.001547312
    -5.254216915  9.290290680  0.000000000     0.000000000  0.107639258  0.000489870
    -0.411386693 -0.138292973 30.387162132     0.000000000  0.000000000  0.032908634

  length of vectors
    10.412930927 10.673157748 30.390261375     0.110340093  0.107640373  0.032908634


 FORCES acting on ions
    electron-ion (+dipol)            ewald-force                    non-local-force                 convergence-correction
 -----------------------------------------------------------------------------------------------
   -.584E+00 -.175E+00 0.840E+03   0.647E+00 0.258E+00 -.845E+03   -.306E+00 -.895E-01 0.553E+01   0.108E-02 -.121E-04 0.531E-03
   0.133E+01 0.141E+01 0.838E+03   -.134E+01 -.138E+01 -.844E+03   -.138E+00 -.733E-01 0.575E+01   0.107E-02 0.286E-03 -.969E-04
   0.237E+01 0.307E+01 0.840E+03   -.232E+01 -.312E+01 -.845E+03   -.312E+00 -.183E+00 0.562E+01   -.323E-03 0.758E-03 -.145E-03
   0.477E+01 -.109E+01 0.839E+03   -.470E+01 0.118E+01 -.844E+03   -.595E+00 0.186E-01 0.546E+01   -.303E-03 0.799E-03 0.740E-03
   0.153E+00 0.242E+01 0.842E+03   -.109E+00 -.241E+01 -.848E+03   -.174E+00 -.611E-01 0.572E+01   -.146E-03 -.438E-03 0.102E-02
   -.417E+00 0.269E+01 0.842E+03   0.461E+00 -.269E+01 -.847E+03   0.537E-03 -.738E-01 0.555E+01   -.579E-03 -.106E-02 -.541E-03
   -.497E+00 -.823E+00 0.841E+03   0.620E+00 0.859E+00 -.847E+03   -.248E+00 0.401E-04 0.559E+01   -.797E-03 0.749E-03 -.706E-03
   -.719E+00 -.550E+00 0.840E+03   0.788E+00 0.640E+00 -.846E+03   -.108E+00 -.286E-01 0.561E+01   -.101E-02 -.725E-03 0.243E-03
   -.127E+00 0.353E+01 0.840E+03   0.199E+00 -.348E+01 -.845E+03   -.254E+00 -.301E+00 0.551E+01   0.838E-03 -.554E-03 -.267E-03
   0.102E+01 0.121E+01 -.111E+03   -.963E+00 -.114E+01 0.106E+03   -.163E+00 -.179E+00 0.562E+01   0.211E-03 0.142E-02 -.594E-03
   0.199E+00 0.370E+01 -.113E+03   -.176E+00 -.374E+01 0.107E+03   -.368E-01 -.305E+00 0.524E+01   -.749E-03 -.587E-03 -.361E-03
   0.213E+01 0.174E+01 -.111E+03   -.206E+01 -.162E+01 0.105E+03   -.501E+00 -.457E+00 0.521E+01   0.161E-02 -.187E-03 -.233E-03
   -.707E+00 -.763E+00 -.113E+03   0.755E+00 0.861E+00 0.108E+03   -.142E+00 -.226E+00 0.580E+01   -.618E-03 -.651E-03 0.411E-03
   -.126E+01 0.354E+01 -.113E+03   0.127E+01 -.351E+01 0.108E+03   -.336E-02 -.429E+00 0.536E+01   0.976E-03 -.549E-03 -.358E-03
   -.127E+01 0.100E+01 -.113E+03   0.136E+01 -.963E+00 0.108E+03   -.176E+00 -.267E+00 0.568E+01   -.893E-03 0.100E-02 -.200E-03
   0.528E+00 -.414E-01 -.113E+03   -.551E+00 0.739E-01 0.108E+03   -.168E-01 0.343E-01 0.565E+01   0.337E-03 0.259E-03 -.241E-03
   0.169E+01 0.532E+01 -.111E+03   -.165E+01 -.534E+01 0.106E+03   -.199E+00 -.424E+00 0.569E+01   -.301E-03 0.525E-03 -.102E-03
   0.275E+01 0.343E+00 -.114E+03   -.271E+01 -.322E+00 0.108E+03   -.396E+00 -.504E-01 0.561E+01   -.620E-03 -.123E-02 -.104E-02
   -.319E+01 0.219E+01 0.110E+03   0.319E+01 -.214E+01 -.105E+03   0.150E+00 -.215E+00 -.553E+01   0.107E-02 0.611E-04 0.265E-04
   -.831E+00 0.148E+01 0.114E+03   0.827E+00 -.141E+01 -.109E+03   0.175E+00 -.116E+00 -.553E+01   0.995E-03 0.278E-03 0.611E-03
   -.115E+01 -.314E+01 0.114E+03   0.113E+01 0.325E+01 -.109E+03   0.252E+00 0.159E+00 -.545E+01   -.430E-03 0.695E-03 0.494E-03
   0.189E+01 0.180E+01 0.113E+03   -.186E+01 -.175E+01 -.108E+03   -.975E-01 -.809E-01 -.578E+01   -.343E-03 0.961E-03 -.546E-03
   -.770E+00 0.294E+01 0.113E+03   0.756E+00 -.290E+01 -.108E+03   0.903E-01 -.374E-01 -.523E+01   -.504E-04 -.464E-03 -.840E-03
   0.416E+01 0.899E-01 0.111E+03   -.431E+01 -.293E-01 -.106E+03   0.153E-01 0.401E-01 -.522E+01   -.519E-03 -.108E-02 0.779E-03
   0.268E+01 -.262E+01 0.112E+03   -.270E+01 0.273E+01 -.106E+03   -.173E+00 0.119E+00 -.524E+01   -.690E-03 0.927E-03 0.121E-02
   0.123E+01 0.265E+01 0.113E+03   -.128E+01 -.263E+01 -.108E+03   -.470E-01 -.742E-01 -.550E+01   -.871E-03 -.710E-03 0.225E-03
   -.385E+01 0.214E+01 0.111E+03   0.390E+01 -.211E+01 -.106E+03   0.331E+00 -.912E-01 -.530E+01   0.878E-03 -.622E-03 0.715E-03
   0.368E+00 0.129E+01 -.840E+03   -.366E+00 -.124E+01 0.846E+03   0.135E+00 -.152E-01 -.560E+01   0.120E-03 0.139E-02 -.229E-03
   0.102E+00 0.198E+01 -.841E+03   -.137E+00 -.200E+01 0.846E+03   0.203E+00 -.544E-01 -.525E+01   -.698E-03 -.623E-03 -.372E-03
   -.157E+00 0.505E+00 -.841E+03   0.172E+00 -.436E+00 0.846E+03   0.466E-01 -.977E-01 -.541E+01   0.156E-02 -.275E-03 -.456E-03
   -.119E+01 0.518E+00 -.840E+03   0.116E+01 -.500E+00 0.845E+03   0.197E+00 -.269E-01 -.568E+01   -.532E-03 -.711E-03 -.119E-02
   0.122E+01 0.427E+01 -.843E+03   -.132E+01 -.428E+01 0.848E+03   0.874E-01 -.305E+00 -.548E+01   0.105E-02 -.490E-03 -.369E-03
   0.932E+00 0.391E+00 -.840E+03   -.973E+00 -.341E+00 0.845E+03   -.137E-01 -.161E+00 -.559E+01   -.819E-03 0.107E-02 -.492E-03
   -.160E+00 -.364E+00 -.840E+03   0.906E-01 0.402E+00 0.845E+03   0.171E+00 0.127E+00 -.541E+01   0.450E-03 0.256E-03 -.367E-03
   -.257E+01 0.456E+01 -.840E+03   0.259E+01 -.457E+01 0.845E+03   0.378E+00 -.299E+00 -.528E+01   -.351E-03 0.579E-03 -.706E-03
   0.552E-02 -.287E+01 -.839E+03   -.152E-01 0.293E+01 0.845E+03   0.950E-01 0.232E+00 -.567E+01   -.605E-03 -.120E-02 0.216E-03
   -.413E+01 -.251E+01 0.477E+03   0.416E+01 0.260E+01 -.477E+03   0.279E+00 0.142E+00 0.864E-01   0.751E-03 0.161E-03 0.166E-03
   -.114E+01 -.536E+01 0.478E+03   0.121E+01 0.543E+01 -.478E+03   0.130E+00 0.258E+00 -.243E+00   0.925E-03 0.380E-03 0.168E-03
   -.520E+00 -.165E+01 0.476E+03   0.511E+00 0.170E+01 -.476E+03   0.158E-01 -.840E-01 -.514E+00   -.177E-03 -.676E-06 0.112E-03
   0.340E+01 -.349E+01 0.477E+03   -.339E+01 0.352E+01 -.476E+03   -.178E+00 0.186E+00 0.261E+00   -.565E-03 0.567E-03 0.184E-03
   -.276E+01 0.400E+00 0.475E+03   0.286E+01 -.380E+00 -.475E+03   0.322E+00 -.194E+00 -.265E+00   0.518E-03 0.292E-03 0.158E-03
   0.152E+01 0.600E+00 0.479E+03   -.154E+01 -.598E+00 -.479E+03   -.437E-01 -.832E-01 -.273E+00   0.498E-03 -.769E-03 0.217E-03
   0.424E+00 -.186E+01 0.471E+03   -.467E+00 0.192E+01 -.472E+03   -.511E-01 -.119E+00 -.741E+00   -.202E-04 -.530E-03 0.551E-04
   -.188E+00 -.417E+01 0.480E+03   0.295E+00 0.425E+01 -.480E+03   0.353E+00 0.578E-01 0.306E+00   -.117E-02 0.401E-03 0.280E-03
   -.230E+01 -.111E+01 0.478E+03   0.235E+01 0.116E+01 -.478E+03   -.189E-01 0.876E-01 -.231E+00   -.425E-03 -.102E-02 0.181E-03
   -.221E+01 -.238E+01 -.477E+03   0.218E+01 0.248E+01 0.477E+03   0.222E+00 0.169E+00 0.259E-01   0.466E-03 0.459E-04 -.523E-03
   -.919E+00 -.426E+01 -.480E+03   0.924E+00 0.440E+01 0.480E+03   -.120E+00 0.423E+00 -.357E-01   -.225E-03 -.231E-03 -.681E-03
   -.386E+01 -.581E+01 -.477E+03   0.398E+01 0.602E+01 0.477E+03   0.388E+00 0.191E+00 0.851E-01   0.164E-03 0.291E-03 -.538E-03
   0.111E+01 -.200E+01 -.480E+03   -.114E+01 0.207E+01 0.480E+03   -.191E+00 0.180E+00 -.415E+00   -.415E-03 0.110E-03 -.581E-03
   0.242E+00 -.120E+01 -.476E+03   -.283E+00 0.127E+01 0.475E+03   -.201E-01 0.109E+00 -.228E+00   0.192E-03 -.754E-03 -.505E-03
   -.231E+01 -.184E+01 -.476E+03   0.238E+01 0.186E+01 0.476E+03   0.278E+00 -.187E+00 -.113E+00   -.878E-03 0.434E-04 -.495E-03
   0.506E+00 0.106E+01 -.475E+03   -.502E+00 -.104E+01 0.475E+03   -.188E+00 -.373E+00 -.648E-01   -.105E-03 0.462E-03 -.452E-03
   0.150E+01 -.121E+01 -.476E+03   -.158E+01 0.131E+01 0.476E+03   -.314E-01 0.372E+00 0.393E-02   0.416E-04 -.150E-03 -.509E-03
   0.238E+01 -.477E+01 -.474E+03   -.233E+01 0.490E+01 0.474E+03   -.179E+00 0.779E-01 0.214E+00   0.726E-03 0.378E-05 -.468E-03
 -----------------------------------------------------------------------------------------------
   0.811E+00 0.277E+01 0.916E-01   -.648E-13 0.338E-13 -.188E-11   -.806E+00 -.278E+01 -.890E-01   0.311E-03 -.857E-03 -.646E-02
 
 
 POSITION                                       TOTAL-FORCE (eV/Angst)
 -----------------------------------------------------------------------------------
     -0.14042      2.01348      9.75032        -0.233854     -0.009887      0.316277
     -1.90624      5.10611      9.74982        -0.142267     -0.046407      0.493408
     -3.64914      8.22200      9.73930        -0.257212     -0.225667      0.400631
      3.34163      1.98736      9.75026        -0.509939      0.093997      0.225720
      1.57424      5.11195      9.72536        -0.123391     -0.051516      0.518546
     -0.17723      8.20689      9.73967         0.048737     -0.071385      0.375825
      6.79062      1.98907      9.74144        -0.124664      0.024381      0.381190
      5.03649      5.10746      9.74270        -0.039154      0.056765      0.378323
      3.27498      8.23223      9.75666        -0.183755     -0.244515      0.319088
      9.88263      0.43517     16.95755        -0.107747     -0.136358      0.308454
     -2.27896      3.56227     16.99840        -0.012088     -0.353457     -0.113193
     -3.99390      6.63580     16.98104        -0.402225     -0.363258     -0.095679
      2.94104      0.44613     16.96777        -0.092459     -0.153153      0.479119
      1.17999      3.55836     16.99233         0.004270     -0.404617      0.056554
     -0.56022      6.64017     16.97540        -0.092249     -0.246640      0.304659
      6.41247      0.42531     16.96824        -0.036280      0.040568      0.347437
      4.66388      3.55236     16.96198        -0.153177     -0.455411      0.383602
      2.93864      6.61327     16.97902        -0.340455     -0.060417      0.220228
     -0.20065      2.02610     13.42671         0.135992     -0.133249     -0.210888
     -1.93950      5.10866     13.40556         0.167021     -0.029012     -0.113166
     -3.71240      8.19186     13.40132         0.214677      0.278616     -0.109688
      3.29694      2.00433     13.42041        -0.071570     -0.018296     -0.428103
      1.53740      5.11287     13.39250         0.072898      0.021252      0.130368
     -0.20869      8.18427     13.40092        -0.131105      0.111643      0.123497
      6.76383      2.00042     13.39923        -0.193027      0.249929      0.094450
      5.01897      5.09734     13.41199        -0.091504     -0.030775     -0.178528
      3.22723      8.19900     13.41018         0.359828     -0.039107      0.054546
      9.84048      0.40582     20.64520         0.128736      0.028393     -0.392430
     -2.31850      3.52700     20.62203         0.160652     -0.074513      0.024140
     -4.06463      6.60007     20.62867         0.057817     -0.038436     -0.146657
      2.88601      0.41551     20.64983         0.159563     -0.015920     -0.396334
      1.16817      3.54125     20.65517        -0.008741     -0.312900     -0.251882
     -0.58427      6.63241     20.63862        -0.055264     -0.108342     -0.284339
      6.39752      0.40854     20.63330         0.105927      0.158148     -0.125305
      4.60219      3.53802     20.62627         0.381519     -0.300383     -0.003360
      2.88421      6.58937     20.64156         0.080894      0.272133     -0.388426
     10.23166     -0.04306     11.57743         0.337419      0.234421      0.114980
      8.49049      3.03002     11.59216         0.188059      0.361359     -0.385765
     -3.66653      6.15553     11.60990         0.017213     -0.040586     -0.735938
     -1.92620      9.22497     11.56242        -0.200333      0.235639      0.380900
      1.53904      3.06521     11.59854         0.426542     -0.184357     -0.349583
     -0.17732      6.15693     11.58480        -0.080315     -0.085787     -0.405952
      6.77866     -0.03961     11.62971        -0.094519     -0.066988     -1.004233
      5.01477      3.04383     11.55447         0.458875      0.150586      0.388821
      3.28317      6.14522     11.58858         0.029503      0.144080     -0.340026
      1.16629      1.46237     18.80753         0.237888      0.265115      0.057542
     -0.55119      4.55242     18.81896        -0.125636      0.580196      0.029967
     -2.34071      7.64656     18.80183         0.543061      0.403203      0.223636
      4.66866      1.45577     18.83298        -0.244004      0.244720     -0.449329
      2.90664      4.55475     18.81915        -0.054509      0.191787     -0.346666
      1.14829      7.67351     18.80974         0.360405     -0.178412     -0.143537
      8.14314      1.48959     18.80353        -0.199339     -0.370491     -0.087797
      6.37695      4.54610     18.80136        -0.104872      0.480093      0.059232
      4.64510      7.64859     18.78753        -0.166056      0.219079      0.291848
 -----------------------------------------------------------------------------------
    total drift:                                0.005789     -0.004140     -0.003815


--------------------------------------------------------------------------------------------------------



  FREE ENERGIE OF THE ION-ELECTRON SYSTEM (eV)
  ---------------------------------------------------
  free  energy   TOTEN  =      -343.06129582 eV

  energy  without entropy=     -343.06129582  energy(sigma->0) =     -343.06129582
 
 d Force =-0.2359128E-01[-0.259E-01,-0.213E-01]  d Energy =-0.2352908E-01-0.622E-04
 d Force =-0.9029373E+01[-0.904E+01,-0.902E+01]  d Ewald  =-0.9029369E+01-0.461E-05


--------------------------------------------------------------------------------------------------------


    POTLOK:  cpu time    0.2986: real time    0.2990


--------------------------------------------------------------------------------------------------------


           RANDOM_SEED =         231691389              324                0
   IONSTEP:  cpu time    0.0001: real time    0.0001

  ENERGY OF THE ELECTRON-ION-THERMOSTAT SYSTEM (eV)
  ---------------------------------------------------
% ion-electron   TOTEN  =      -343.061296  see above
  kinetic energy EKIN   =         0.582209
  kin. lattice  EKIN_LAT=         0.000000  (temperature   84.98 K)
  nose potential ES     =        -0.013945
  nose kinetic   EPS    =         0.001617
  ---------------------------------------------------
  total energy   ETOTAL =      -342.491414 eV

  maximum distance moved by ions :      0.48E-03


 mean value of Nose-termostat <S>:     0.984 mean value of <T> :    84.984
 mean temperature <T/S>/<1/S>  :    84.984

    WAVPRE:  cpu time    0.1022: real time    0.1044
    FEWALD:  cpu time    0.0014: real time    0.0014
    ORTHCH:  cpu time    8.1638: real time    8.1810
    POTLOK:  cpu time    0.3100: real time    0.3103
    EDDIAG:  cpu time    2.5854: real time    2.5924
     LOOP+:  cpu time  483.2145: real time  484.2425
    4ORBIT:  cpu time    0.0000: real time    0.0000

 total amount of memory used by VASP MPI-rank0   364145. kBytes
=======================================================================

   base      :      30000. kBytes
   nonl-proj :     198420. kBytes
   fftplans  :      17372. kBytes
   grid      :      82746. kBytes
   one-center:        839. kBytes
   wavefun   :      34768. kBytes
 
  
  
 General timing and accounting informations for this job:
 ========================================================
  
                  Total CPU time used (sec):     5735.333
                            User time (sec):     5721.608
                          System time (sec):       13.724
                         Elapsed time (sec):     5749.465
  
                   Maximum memory used (kb):      808352.
                   Average memory used (kb):           0.
  
                          Minor page faults:       410371
                          Major page faults:            0
                 Voluntary context switches:        14740
