0.000000000000000000e+00 2.032270000000000021e+00 9.439500000000000668e+00 -1.760000000000000009e+00 5.080680000000000085e+00 9.439500000000000668e+00 -3.520000000000000018e+00 8.129089999999999705e+00 9.439500000000000668e+00 3.520000000000000018e+00 2.032270000000000021e+00 9.439500000000000668e+00 1.760000000000000009e+00 5.080680000000000085e+00 9.439500000000000668e+00 0.000000000000000000e+00 8.129089999999999705e+00 9.439500000000000668e+00 7.040000000000000036e+00 2.032270000000000021e+00 9.439500000000000668e+00 5.280000000000000249e+00 5.080680000000000085e+00 9.439500000000000668e+00 3.520000000000000018e+00 8.129089999999999705e+00 9.439500000000000668e+00 0.000000000000000000e+00 1.117750000000000021e+00 1.694004999999999939e+01 -1.760000000000000009e+00 4.166159999999999641e+00 1.694004999999999939e+01 -3.520000000000000018e+00 7.214570000000000149e+00 1.694004999999999939e+01 3.520000000000000018e+00 1.117750000000000021e+00 1.694004999999999939e+01 1.760000000000000009e+00 4.166159999999999641e+00 1.694004999999999939e+01 0.000000000000000000e+00 7.214570000000000149e+00 1.694004999999999939e+01 7.040000000000000036e+00 1.117750000000000021e+00 1.694004999999999939e+01 5.280000000000000249e+00 4.166159999999999641e+00 1.694004999999999939e+01 3.520000000000000018e+00 7.214570000000000149e+00 1.694004999999999939e+01 0.000000000000000000e+00 2.032270000000000021e+00 1.306006000000000000e+01 -1.760000000000000009e+00 5.080680000000000085e+00 1.306006000000000000e+01 -3.520000000000000018e+00 8.129089999999999705e+00 1.306006000000000000e+01 3.520000000000000018e+00 2.032270000000000021e+00 1.306006000000000000e+01 1.760000000000000009e+00 5.080680000000000085e+00 1.306006000000000000e+01 0.000000000000000000e+00 8.129089999999999705e+00 1.306006000000000000e+01 7.040000000000000036e+00 2.032270000000000021e+00 1.306006000000000000e+01 5.280000000000000249e+00 5.080680000000000085e+00 1.306006000000000000e+01 3.520000000000000018e+00 8.129089999999999705e+00 1.306006000000000000e+01 0.000000000000000000e+00 1.117750000000000021e+00 2.056058000000000163e+01 -1.760000000000000009e+00 4.166159999999999641e+00 2.056058000000000163e+01 -3.520000000000000018e+00 7.214570000000000149e+00 2.056058000000000163e+01 3.520000000000000018e+00 1.117750000000000021e+00 2.056058000000000163e+01 1.760000000000000009e+00 4.166159999999999641e+00 2.056058000000000163e+01 0.000000000000000000e+00 7.214570000000000149e+00 2.056058000000000163e+01 7.040000000000000036e+00 1.117750000000000021e+00 2.056058000000000163e+01 5.280000000000000249e+00 4.166159999999999641e+00 2.056058000000000163e+01 3.520000000000000018e+00 7.214570000000000149e+00 2.056058000000000163e+01 0.000000000000000000e+00 0.000000000000000000e+00 1.125008000000000052e+01 -1.760000000000000009e+00 3.048410000000000064e+00 1.125008000000000052e+01 -3.520000000000000018e+00 6.096820000000000128e+00 1.125008000000000052e+01 3.520000000000000018e+00 0.000000000000000000e+00 1.125008000000000052e+01 1.760000000000000009e+00 3.048410000000000064e+00 1.125008000000000052e+01 0.000000000000000000e+00 6.096820000000000128e+00 1.125008000000000052e+01 7.040000000000000036e+00 0.000000000000000000e+00 1.125008000000000052e+01 5.280000000000000249e+00 3.048410000000000064e+00 1.125008000000000052e+01 3.520000000000000018e+00 6.096820000000000128e+00 1.125008000000000052e+01 1.760000000000000009e+00 2.133890000000000065e+00 1.874978000000000122e+01 0.000000000000000000e+00 5.182299999999999685e+00 1.874978000000000122e+01 -1.760000000000000009e+00 8.230710000000000193e+00 1.874978000000000122e+01 5.280000000000000249e+00 2.133890000000000065e+00 1.874978000000000122e+01 3.520000000000000018e+00 5.182299999999999685e+00 1.874978000000000122e+01 1.760000000000000009e+00 8.230710000000000193e+00 1.874978000000000122e+01 8.800000000000000711e+00 2.133890000000000065e+00 1.874978000000000122e+01 7.040000000000000036e+00 5.182299999999999685e+00 1.874978000000000122e+01 5.280000000000000249e+00 8.230710000000000193e+00 1.874978000000000122e+01
-1.119999999999999902e-03 2.031590000000000007e+00 9.440189999999999415e+00 -1.758520000000000083e+00 5.079089999999999883e+00 9.439049999999999940e+00 -3.521689999999999987e+00 8.129070000000000462e+00 9.439149999999999707e+00 3.520119999999999916e+00 2.029650000000000176e+00 9.440950000000000841e+00 1.762690000000000090e+00 5.078850000000000087e+00 9.437820000000000320e+00 3.299999999999999982e-04 8.130729999999999791e+00 9.441219999999999501e+00 7.038050000000000139e+00 2.031109999999999971e+00 9.441280000000000783e+00 5.279799999999999827e+00 5.083330000000000126e+00 9.438560000000000727e+00 3.518870000000000164e+00 8.128170000000000783e+00 9.439410000000000522e+00 -5.599999999999999509e-04 1.119550000000000045e+00 1.693905000000000172e+01 -1.759730000000000016e+00 4.164760000000000240e+00 1.694147999999999854e+01 -3.520820000000000061e+00 7.213879999999999626e+00 1.693756000000000128e+01 3.518409999999999815e+00 1.116819999999999924e+00 1.694145999999999930e+01 1.758890000000000065e+00 4.167110000000000092e+00 1.694165999999999883e+01 1.100000000000000066e-03 7.215609999999999857e+00 1.693873999999999924e+01 7.041019999999999612e+00 1.117839999999999945e+00 1.693843999999999994e+01 5.280249999999999666e+00 4.163969999999999949e+00 1.694266000000000005e+01 3.521889999999999965e+00 7.216700000000000337e+00 1.693833000000000055e+01 -1.200000000000000030e-04 2.035070000000000157e+00 1.305973999999999968e+01 -1.759759999999999991e+00 5.082889999999999908e+00 1.306314000000000064e+01 -3.519179999999999975e+00 8.131030000000000868e+00 1.306195999999999913e+01 3.521570000000000089e+00 2.029819999999999958e+00 1.306311999999999962e+01 1.758820000000000050e+00 5.081260000000000332e+00 1.305888999999999989e+01 -5.699999999999999772e-04 8.128640000000000754e+00 1.305748999999999960e+01 7.041299999999999670e+00 2.033739999999999881e+00 1.305816000000000088e+01 5.280050000000000132e+00 5.080210000000000115e+00 1.306345999999999918e+01 3.518619999999999859e+00 8.128090000000000259e+00 1.305987000000000009e+01 1.229999999999999974e-03 1.118000000000000105e+00 2.055731000000000108e+01 -1.759800000000000031e+00 4.166820000000000412e+00 2.056090999999999980e+01 -3.519350000000000200e+00 7.215209999999999901e+00 2.056255000000000166e+01 3.519340000000000135e+00 1.117150000000000087e+00 2.056054999999999922e+01 1.759319999999999995e+00 4.166159999999999641e+00 2.055976000000000070e+01 7.299999999999999632e-04 7.214819999999999567e+00 2.056197999999999837e+01 7.040020000000000167e+00 1.119250000000000078e+00 2.055924999999999869e+01 5.277300000000000324e+00 4.167609999999999815e+00 2.055858999999999881e+01 3.520970000000000155e+00 7.217139999999999667e+00 2.056028999999999840e+01 -5.277650000000000396e+00 9.142789999999999750e+00 1.124813999999999936e+01 -1.759279999999999955e+00 3.049240000000000173e+00 1.124943000000000026e+01 7.038669999999999760e+00 6.096709999999999852e+00 1.124918000000000085e+01 -1.759390000000000009e+00 9.139450000000000074e+00 1.124794999999999945e+01 1.763060000000000072e+00 3.049279999999999990e+00 1.124986999999999959e+01 -1.100000000000000066e-03 6.101849999999999774e+00 1.125089999999999968e+01 1.756280000000000063e+00 9.143610000000000682e+00 1.124840000000000018e+01 5.281030000000000335e+00 3.048200000000000021e+00 1.124802000000000035e+01 3.520490000000000119e+00 6.098419999999999952e+00 1.125342999999999982e+01 1.757800000000000029e+00 2.131149999999999878e+00 1.875039999999999907e+01 -7.799999999999999859e-04 5.180749999999999744e+00 1.874909999999999854e+01 -1.760280000000000067e+00 8.229870000000000019e+00 1.875054000000000087e+01 5.278500000000000192e+00 2.133680000000000021e+00 1.874937999999999860e+01 3.525110000000000188e+00 5.181860000000000355e+00 1.875165000000000148e+01 1.761870000000000047e+00 8.227199999999999847e+00 1.875052000000000163e+01 8.798719999999999430e+00 2.137059999999999960e+00 1.874930000000000163e+01 7.036200000000000010e+00 5.181600000000000428e+00 1.874990000000000023e+01 5.281430000000000291e+00 8.229250000000000398e+00 1.874944999999999951e+01
-2.230000000000000211e-03 2.030920000000000059e+00 9.440889999999999560e+00 -1.757039999999999935e+00 5.077510000000000190e+00 9.438610000000000610e+00 -3.523379999999999956e+00 8.129030000000000200e+00 9.438800000000000523e+00 3.520239999999999814e+00 2.027019999999999822e+00 9.442399999999999238e+00 1.765379999999999949e+00 5.077020000000000088e+00 9.436159999999999215e+00 6.700000000000000226e-04 8.132360000000000255e+00 9.442909999999999471e+00 7.036100000000000243e+00 2.029959999999999987e+00 9.443059999999999121e+00 5.279609999999999914e+00 5.085960000000000036e+00 9.437620000000000786e+00 3.517739999999999867e+00 8.127259999999999707e+00 9.439320000000000377e+00 -1.119999999999999902e-03 1.121320000000000094e+00 1.693805000000000049e+01 -1.759460000000000024e+00 4.163350000000000328e+00 1.694291000000000125e+01 -3.521630000000000038e+00 7.213180000000000369e+00 1.693507999999999925e+01 3.516830000000000123e+00 1.115879999999999983e+00 1.694285999999999959e+01 1.757789999999999964e+00 4.168050000000000033e+00 1.694328000000000145e+01 2.190000000000000106e-03 7.216619999999999813e+00 1.693743999999999872e+01 7.042040000000000077e+00 1.117899999999999894e+00 1.693684000000000012e+01 5.280509999999999593e+00 4.161760000000000126e+00 1.694526000000000110e+01 3.523779999999999912e+00 7.218799999999999883e+00 1.693661000000000172e+01 -2.300000000000000070e-04 2.037879999999999914e+00 1.305943000000000076e+01 -1.759530000000000038e+00 5.085119999999999862e+00 1.306620999999999988e+01 -3.518359999999999932e+00 8.132970000000000255e+00 1.306385000000000041e+01 3.523130000000000095e+00 2.027390000000000025e+00 1.306616999999999962e+01 1.757630000000000026e+00 5.081850000000000200e+00 1.305772999999999939e+01 -1.129999999999999928e-03 8.128199999999999648e+00 1.305494999999999983e+01 7.042589999999999684e+00 2.035219999999999807e+00 1.305626999999999960e+01 5.280100000000000016e+00 5.079760000000000275e+00 1.306686000000000014e+01 3.517230000000000079e+00 8.127119999999999678e+00 1.305967000000000056e+01 2.459999999999999947e-03 1.118249999999999966e+00 2.055405999999999977e+01 -1.759600000000000053e+00 4.167480000000000295e+00 2.056122999999999834e+01 -3.518699999999999939e+00 7.215849999999999653e+00 2.056452000000000169e+01 3.518679999999999808e+00 1.116549999999999931e+00 2.056052999999999997e+01 1.758650000000000047e+00 4.166150000000000020e+00 2.055893999999999977e+01 1.449999999999999900e-03 7.215060000000000251e+00 2.056337999999999866e+01 7.040040000000000298e+00 1.120749999999999913e+00 2.055791999999999931e+01 5.274600000000000399e+00 4.169050000000000367e+00 2.055661999999999878e+01 3.521939999999999849e+00 7.219710000000000072e+00 2.056000999999999834e+01 -5.275319999999999787e+00 9.140380000000000393e+00 1.124623000000000062e+01 -1.758550000000000058e+00 3.050069999999999837e+00 1.124878999999999962e+01 7.037340000000000373e+00 6.096610000000000085e+00 1.124830000000000041e+01 -1.758780000000000010e+00 9.133710000000000662e+00 1.124583999999999939e+01 1.766110000000000069e+00 3.050149999999999917e+00 1.124967000000000006e+01 -2.190000000000000106e-03 6.106840000000000046e+00 1.125169999999999959e+01 1.752580000000000027e+00 9.141999999999999460e+00 1.124674000000000085e+01 5.282049999999999912e+00 3.048010000000000108e+00 1.124596999999999980e+01 3.520980000000000221e+00 6.100010000000000154e+00 1.125675000000000026e+01 1.755609999999999893e+00 2.128420000000000201e+00 1.875101000000000084e+01 -1.549999999999999946e-03 5.179219999999999935e+00 1.874843999999999866e+01 -1.760559999999999903e+00 8.229029999999999845e+00 1.875129000000000090e+01 5.277000000000000135e+00 2.133459999999999912e+00 1.874898999999999916e+01 3.530180000000000096e+00 5.181440000000000268e+00 1.875350999999999857e+01 1.763740000000000085e+00 8.223710000000000520e+00 1.875125999999999848e+01 8.797449999999999548e+00 2.140210000000000168e+00 1.874881999999999849e+01 7.032420000000000115e+00 5.180909999999999904e+00 1.875003999999999849e+01 5.282869999999999955e+00 8.227790000000000603e+00 1.874911000000000172e+01
-3.320000000000000034e-03 2.030240000000000045e+00 9.441580000000000084e+00 -1.755570000000000075e+00 5.075940000000000119e+00 9.438169999999999504e+00 -3.525059999999999860e+00 8.128989999999999938e+00 9.438430000000000319e+00 3.520360000000000156e+00 2.024389999999999912e+00 9.443830000000000169e+00 1.768059999999999965e+00 5.075219999999999843e+00 9.434519999999999129e+00 9.899999999999999946e-04 8.133969999999999700e+00 9.444559999999999178e+00 7.034159999999999968e+00 2.028799999999999937e+00 9.444810000000000372e+00 5.279399999999999871e+00 5.088589999999999947e+00 9.436690000000000467e+00 3.516620000000000079e+00 8.126340000000000785e+00 9.439239999999999853e+00 -1.690000000000000096e-03 1.123070000000000013e+00 1.693705999999999889e+01 -1.759200000000000097e+00 4.161940000000000417e+00 1.694432000000000116e+01 -3.522429999999999950e+00 7.212449999999999584e+00 1.693261000000000038e+01 3.515239999999999920e+00 1.114910000000000068e+00 1.694425000000000026e+01 1.756699999999999928e+00 4.168960000000000221e+00 1.694489000000000090e+01 3.279999999999999930e-03 7.217609999999999637e+00 1.693616000000000099e+01 7.043059999999999654e+00 1.117939999999999934e+00 1.693524999999999991e+01 5.280750000000000277e+00 4.159539999999999793e+00 1.694782999999999973e+01 3.525669999999999860e+00 7.220860000000000056e+00 1.693489999999999895e+01 -3.299999999999999982e-04 2.040690000000000115e+00 1.305908999999999942e+01 -1.759300000000000086e+00 5.087349999999999817e+00 1.306925999999999988e+01 -3.517549999999999955e+00 8.134919999999999263e+00 1.306573000000000029e+01 3.524700000000000166e+00 2.024970000000000159e+00 1.306917999999999935e+01 1.756450000000000067e+00 5.082460000000000200e+00 1.305658000000000030e+01 -1.699999999999999905e-03 8.127789999999999182e+00 1.305244000000000071e+01 7.043879999999999697e+00 2.036709999999999798e+00 1.305438000000000009e+01 5.280160000000000409e+00 5.079320000000000057e+00 1.307024000000000008e+01 3.515859999999999985e+00 8.126179999999999737e+00 1.305948000000000064e+01 3.670000000000000085e-03 1.118500000000000050e+00 2.055082000000000164e+01 -1.759419999999999984e+00 4.168140000000000178e+00 2.056155000000000044e+01 -3.518050000000000122e+00 7.216470000000000162e+00 2.056647999999999854e+01 3.518019999999999925e+00 1.115960000000000063e+00 2.056050000000000111e+01 1.757989999999999942e+00 4.166150000000000020e+00 2.055810999999999922e+01 2.180000000000000080e-03 7.215290000000000425e+00 2.056475999999999971e+01 7.040049999999999919e+00 1.122239999999999904e+00 2.055658999999999992e+01 5.271919999999999717e+00 4.170469999999999899e+00 2.055468000000000117e+01 3.522920000000000051e+00 7.222260000000000346e+00 2.055974000000000146e+01 -5.273019999999999818e+00 9.138009999999999522e+00 1.124436000000000035e+01 -1.757840000000000069e+00 3.050920000000000076e+00 1.124816000000000038e+01 7.036039999999999850e+00 6.096519999999999939e+00 1.124745000000000061e+01 -1.758199999999999985e+00 9.128040000000000376e+00 1.124376999999999960e+01 1.769139999999999935e+00 3.051000000000000156e+00 1.124948000000000015e+01 -3.269999999999999903e-03 6.111769999999999925e+00 1.125247000000000064e+01 1.748920000000000030e+00 9.140420000000000655e+00 1.124511000000000038e+01 5.283039999999999736e+00 3.047849999999999948e+00 1.124398000000000053e+01 3.521469999999999878e+00 6.101580000000000226e+00 1.126002000000000081e+01 1.753449999999999953e+00 2.125719999999999832e+00 1.875159999999999982e+01 -2.330000000000000040e-03 5.177719999999999878e+00 1.874778999999999840e+01 -1.760829999999999895e+00 8.228160000000000807e+00 1.875203000000000131e+01 5.275509999999999700e+00 2.133220000000000116e+00 1.874860999999999933e+01 3.535179999999999989e+00 5.181040000000000312e+00 1.875532000000000110e+01 1.765600000000000058e+00 8.220259999999999678e+00 1.875197000000000003e+01 8.796200000000000685e+00 2.143310000000000048e+00 1.874834999999999852e+01 7.028690000000000104e+00 5.180220000000000269e+00 1.875017000000000067e+01 5.284290000000000376e+00 8.226359999999999673e+00 1.874877000000000038e+01
-4.400000000000000265e-03 2.029570000000000096e+00 9.442270000000000607e+00 -1.754110000000000058e+00 5.074390000000000178e+00 9.437730000000000175e+00 -3.526720000000000077e+00 8.128920000000000812e+00 9.438029999999999475e+00 3.520490000000000119e+00 2.021770000000000067e+00 9.445259999999999323e+00 1.770720000000000072e+00 5.073439999999999728e+00 9.432909999999999684e+00 1.309999999999999967e-03 8.135550000000000281e+00 9.446149999999999380e+00 7.032250000000000334e+00 2.027660000000000018e+00 9.446540000000000603e+00 5.279189999999999827e+00 5.091210000000000235e+00 9.435760000000000147e+00 3.515499999999999847e+00 8.125420000000000087e+00 9.439159999999999329e+00 -2.259999999999999856e-03 1.124779999999999891e+00 1.693608000000000047e+01 -1.758969999999999922e+00 4.160549999999999748e+00 1.694572000000000145e+01 -3.523229999999999862e+00 7.211700000000000443e+00 1.693017000000000039e+01 3.513650000000000162e+00 1.113930000000000087e+00 1.694564000000000092e+01 1.755649999999999933e+00 4.169850000000000279e+00 1.694651999999999958e+01 4.369999999999999753e-03 7.218569999999999709e+00 1.693488999999999933e+01 7.044059999999999988e+00 1.117960000000000065e+00 1.693370000000000175e+01 5.280990000000000073e+00 4.157309999999999839e+00 1.695035999999999987e+01 3.527569999999999872e+00 7.222879999999999967e+00 1.693320999999999898e+01 -4.200000000000000174e-04 2.043489999999999807e+00 1.305874000000000024e+01 -1.759079999999999977e+00 5.089610000000000412e+00 1.307226999999999961e+01 -3.516739999999999977e+00 8.136860000000000426e+00 1.306758999999999915e+01 3.526279999999999859e+00 2.022569999999999979e+00 1.307213999999999920e+01 1.755270000000000108e+00 5.083090000000000330e+00 1.305542999999999942e+01 -2.269999999999999882e-03 8.127409999999999357e+00 1.304997000000000007e+01 7.045160000000000089e+00 2.038199999999999790e+00 1.305249000000000059e+01 5.280219999999999914e+00 5.078899999999999970e+00 1.307358999999999938e+01 3.514489999999999892e+00 8.125280000000000058e+00 1.305929000000000073e+01 4.839999999999999684e-03 1.118730000000000002e+00 2.054760999999999882e+01 -1.759249999999999980e+00 4.168809999999999683e+00 2.056187999999999860e+01 -3.517409999999999926e+00 7.217089999999999783e+00 2.056842999999999932e+01 3.517349999999999977e+00 1.115359999999999907e+00 2.056047999999999831e+01 1.757339999999999902e+00 4.166129999999999889e+00 2.055727999999999867e+01 2.899999999999999800e-03 7.215510000000000090e+00 2.056613000000000113e+01 7.040070000000000050e+00 1.123720000000000052e+00 2.055526000000000053e+01 5.269269999999999676e+00 4.171870000000000189e+00 2.055277999999999849e+01 3.523909999999999876e+00 7.224789999999999601e+00 2.055948000000000064e+01 -5.270780000000000243e+00 9.135690000000000310e+00 1.124255999999999922e+01 -1.757130000000000081e+00 3.051779999999999937e+00 1.124755000000000038e+01 7.034749999999999837e+00 6.096449999999999925e+00 1.124663999999999930e+01 -1.757640000000000091e+00 9.122460000000000235e+00 1.124177000000000071e+01 1.772129999999999983e+00 3.051829999999999821e+00 1.124929999999999986e+01 -4.320000000000000055e-03 6.116609999999999658e+00 1.125319000000000003e+01 1.745339999999999892e+00 9.138870000000000715e+00 1.124352999999999980e+01 5.283999999999999808e+00 3.047730000000000050e+00 1.124203999999999937e+01 3.521959999999999980e+00 6.103100000000000414e+00 1.126323999999999970e+01 1.751330000000000053e+00 2.123060000000000169e+00 1.875216999999999956e+01 -3.119999999999999944e-03 5.176280000000000214e+00 1.874716000000000093e+01 -1.761090000000000044e+00 8.227280000000000371e+00 1.875274999999999892e+01 5.274029999999999774e+00 2.132960000000000189e+00 1.874823999999999913e+01 3.540080000000000116e+00 5.180679999999999730e+00 1.875707999999999842e+01 1.767439999999999900e+00 8.216870000000000118e+00 1.875265999999999877e+01 8.794969999999999288e+00 2.146349999999999980e+00 1.874787999999999855e+01 7.025039999999999729e+00 5.179549999999999876e+00 1.875031999999999854e+01 5.285709999999999908e+00 8.224959999999999383e+00 1.874840000000000018e+01
-5.449999999999999983e-03 2.028910000000000213e+00 9.442970000000000752e+00 -1.752660000000000107e+00 5.072869999999999990e+00 9.437310000000000088e+00 -3.528360000000000163e+00 8.128819999999999268e+00 9.437599999999999767e+00 3.520630000000000148e+00 2.019149999999999778e+00 9.446659999999999613e+00 1.773369999999999891e+00 5.071699999999999875e+00 9.431340000000000501e+00 1.619999999999999912e-03 8.137109999999999843e+00 9.447660000000000835e+00 7.030350000000000321e+00 2.026530000000000165e+00 9.448230000000000572e+00 5.278970000000000162e+00 5.093799999999999883e+00 9.434850000000000847e+00 3.514380000000000059e+00 8.124499999999999389e+00 9.439080000000000581e+00 -2.850000000000000103e-03 1.126460000000000017e+00 1.693511000000000166e+01 -1.758750000000000036e+00 4.159169999999999590e+00 1.694707999999999970e+01 -3.524000000000000021e+00 7.210930000000000284e+00 1.692774999999999963e+01 3.512059999999999960e+00 1.112929999999999975e+00 1.694700999999999880e+01 1.754629999999999912e+00 4.170700000000000074e+00 1.694813999999999865e+01 5.440000000000000391e-03 7.219500000000000028e+00 1.693365000000000009e+01 7.045049999999999812e+00 1.117939999999999934e+00 1.693216999999999928e+01 5.281229999999999869e+00 4.155070000000000263e+00 1.695282999999999873e+01 3.529459999999999820e+00 7.224840000000000373e+00 1.693152999999999864e+01 -4.899999999999999842e-04 2.046279999999999877e+00 1.305836000000000041e+01 -1.758869999999999933e+00 5.091870000000000118e+00 1.307522999999999946e+01 -3.515940000000000065e+00 8.138780000000000570e+00 1.306943000000000055e+01 3.527859999999999996e+00 2.020179999999999865e+00 1.307502999999999993e+01 1.754089999999999927e+00 5.083739999999999704e+00 1.305429999999999957e+01 -2.840000000000000076e-03 8.127060000000000173e+00 1.304757999999999996e+01 7.046429999999999971e+00 2.039689999999999781e+00 1.305058999999999969e+01 5.280280000000000307e+00 5.078479999999999883e+00 1.307690000000000019e+01 3.513129999999999864e+00 8.124439999999999884e+00 1.305908999999999942e+01 5.989999999999999665e-03 1.118959999999999955e+00 2.054442999999999842e+01 -1.759109999999999951e+00 4.169500000000000206e+00 2.056221000000000032e+01 -3.516770000000000174e+00 7.217690000000000161e+00 2.057036000000000087e+01 3.516690000000000094e+00 1.114770000000000039e+00 2.056046999999999869e+01 1.756699999999999928e+00 4.166120000000000267e+00 2.055645000000000167e+01 3.619999999999999954e-03 7.215709999999999624e+00 2.056747999999999976e+01 7.040079999999999671e+00 1.125180000000000069e+00 2.055392000000000152e+01 5.266639999999999766e+00 4.173230000000000217e+00 2.055095999999999989e+01 3.524910000000000210e+00 7.227289999999999992e+00 2.055923999999999907e+01 -5.268600000000000172e+00 9.133440000000000225e+00 1.124084000000000039e+01 -1.756429999999999936e+00 3.052649999999999864e+00 1.124698000000000064e+01 7.033489999999999576e+00 6.096390000000000420e+00 1.124590000000000067e+01 -1.757130000000000081e+00 9.116989999999999483e+00 1.123985000000000056e+01 1.775069999999999926e+00 3.052620000000000111e+00 1.124915000000000020e+01 -5.329999999999999669e-03 6.121310000000000251e+00 1.125384999999999991e+01 1.741840000000000055e+00 9.137370000000000658e+00 1.124201000000000050e+01 5.284909999999999997e+00 3.047649999999999970e+00 1.124019999999999975e+01 3.522460000000000147e+00 6.104560000000000208e+00 1.126637000000000022e+01 1.749279999999999946e+00 2.120460000000000012e+00 1.875270000000000081e+01 -3.910000000000000281e-03 5.174909999999999677e+00 1.874655999999999878e+01 -1.761349999999999971e+00 8.226369999999999294e+00 1.875345000000000084e+01 5.272560000000000358e+00 2.132690000000000197e+00 1.874786999999999892e+01 3.544840000000000213e+00 5.180369999999999919e+00 1.875875999999999877e+01 1.769249999999999989e+00 8.213559999999999306e+00 1.875329999999999941e+01 8.793770000000000309e+00 2.149300000000000210e+00 1.874742000000000175e+01 7.021490000000000009e+00 5.178910000000000124e+00 1.875046999999999997e+01 5.287110000000000198e+00 8.223599999999999355e+00 1.874800000000000111e+01
-6.459999999999999597e-03 2.028249999999999886e+00 9.443659999999999499e+00 -1.751209999999999933e+00 5.071390000000000065e+00 9.436899999999999622e+00 -3.529990000000000183e+00 8.128679999999999239e+00 9.437129999999999797e+00 3.520770000000000177e+00 2.016529999999999934e+00 9.448050000000000281e+00 1.775989999999999958e+00 5.070009999999999906e+00 9.429830000000000823e+00 1.920000000000000049e-03 8.138629999999999143e+00 9.449059999999999349e+00 7.028489999999999682e+00 2.025409999999999933e+00 9.449880000000000280e+00 5.278730000000000366e+00 5.096370000000000289e+00 9.433960000000000790e+00 3.513259999999999827e+00 8.123570000000000846e+00 9.439019999999999300e+00 -3.449999999999999942e-03 1.128100000000000103e+00 1.693413999999999930e+01 -1.758569999999999967e+00 4.157809999999999562e+00 1.694841999999999871e+01 -3.524760000000000115e+00 7.210130000000000372e+00 1.692536000000000129e+01 3.510470000000000201e+00 1.111909999999999954e+00 1.694837000000000060e+01 1.753649999999999931e+00 4.171529999999999738e+00 1.694978000000000051e+01 6.499999999999999702e-03 7.220379999999999576e+00 1.693243000000000009e+01 7.046020000000000394e+00 1.117879999999999985e+00 1.693068999999999846e+01 5.281450000000000422e+00 4.152820000000000178e+00 1.695523999999999987e+01 3.531359999999999832e+00 7.226750000000000007e+00 1.692988000000000071e+01 -5.400000000000000069e-04 2.049049999999999816e+00 1.305794999999999995e+01 -1.758669999999999956e+00 5.094149999999999956e+00 1.307813999999999943e+01 -3.515159999999999840e+00 8.140679999999999694e+00 1.307123999999999953e+01 3.529450000000000198e+00 2.017809999999999881e+00 1.307784999999999975e+01 1.752920000000000034e+00 5.084410000000000096e+00 1.305317999999999934e+01 -3.409999999999999837e-03 8.126749999999999474e+00 1.304526000000000074e+01 7.047679999999999723e+00 2.041180000000000216e+00 1.304870000000000019e+01 5.280359999999999943e+00 5.078079999999999927e+00 1.308015999999999934e+01 3.511789999999999967e+00 8.123659999999999215e+00 1.305888999999999989e+01 7.080000000000000356e-03 1.119180000000000064e+00 2.054129999999999967e+01 -1.758990000000000054e+00 4.170189999999999841e+00 2.056253999999999849e+01 -3.516140000000000043e+00 7.218270000000000408e+00 2.057226999999999961e+01 3.516030000000000211e+00 1.114170000000000105e+00 2.056046999999999869e+01 1.756080000000000085e+00 4.166089999999999627e+00 2.055561000000000149e+01 4.329999999999999648e-03 7.215889999999999915e+00 2.056880999999999915e+01 7.040079999999999671e+00 1.126619999999999955e+00 2.055257999999999896e+01 5.264050000000000118e+00 4.174549999999999983e+00 2.054920999999999864e+01 3.525939999999999852e+00 7.229770000000000252e+00 2.055902999999999992e+01 -5.266510000000000247e+00 9.131280000000000285e+00 1.123924000000000056e+01 -1.755749999999999922e+00 3.053549999999999986e+00 1.124643999999999977e+01 7.032269999999999577e+00 6.096350000000000158e+00 1.124522999999999939e+01 -1.756669999999999954e+00 9.111670000000000158e+00 1.123802000000000056e+01 1.777959999999999985e+00 3.053370000000000140e+00 1.124902999999999942e+01 -6.300000000000000044e-03 6.125860000000000305e+00 1.125442999999999927e+01 1.738459999999999894e+00 9.135920000000000485e+00 1.124057999999999957e+01 5.285770000000000302e+00 3.047629999999999839e+00 1.123845000000000027e+01 3.522969999999999935e+00 6.105949999999999989e+00 1.126939999999999920e+01 1.747290000000000010e+00 2.117929999999999868e+00 1.875319000000000003e+01 -4.720000000000000237e-03 5.173630000000000173e+00 1.874598999999999904e+01 -1.761600000000000055e+00 8.225429999999999353e+00 1.875411000000000072e+01 5.271099999999999675e+00 2.132379999999999942e+00 1.874753000000000114e+01 3.549430000000000085e+00 5.180130000000000123e+00 1.876034999999999897e+01 1.771039999999999948e+00 8.210340000000000416e+00 1.875388999999999839e+01 8.792609999999999815e+00 2.152169999999999916e+00 1.874698000000000064e+01 7.018060000000000187e+00 5.178289999999999615e+00 1.875064000000000064e+01 5.288509999999999600e+00 8.222289999999999210e+00 1.874756999999999962e+01