0.000000000000000000e+00 -2.105000000000000100e-03 -2.829999999999999942e-04 -1.999999999999999909e-06 -2.109000000000000197e-03 -2.829999999999999942e-04 0.000000000000000000e+00 -2.109999999999999896e-03 -2.840000000000000185e-04 -1.999999999999999909e-06 -2.108000000000000065e-03 -2.829999999999999942e-04 9.999999999999999547e-07 -2.111000000000000029e-03 -2.840000000000000185e-04 -9.999999999999999547e-07 -2.105999999999999799e-03 -2.840000000000000185e-04 9.999999999999999547e-07 -2.106999999999999932e-03 -2.809999999999999998e-04 3.000000000000000076e-06 -2.108000000000000065e-03 -2.829999999999999942e-04 -1.999999999999999909e-06 -2.106999999999999932e-03 -2.840000000000000185e-04 0.000000000000000000e+00 -5.437000000000000166e-02 3.440000000000000132e-04 0.000000000000000000e+00 -5.436599999999999766e-02 3.420000000000000188e-04 -3.000000000000000076e-06 -5.436699999999999866e-02 3.429999999999999889e-04 -1.999999999999999909e-06 -5.436400000000000260e-02 3.409999999999999945e-04 0.000000000000000000e+00 -5.436699999999999866e-02 3.429999999999999889e-04 0.000000000000000000e+00 -5.436599999999999766e-02 3.400000000000000244e-04 9.999999999999999547e-07 -5.436499999999999666e-02 3.449999999999999833e-04 0.000000000000000000e+00 -5.436699999999999866e-02 3.449999999999999833e-04 9.999999999999999547e-07 -5.436699999999999866e-02 3.409999999999999945e-04 1.999999999999999909e-06 5.642300000000000093e-02 -6.809999999999999647e-04 -3.000000000000000076e-06 5.642500000000000293e-02 -6.780000000000000002e-04 0.000000000000000000e+00 5.642400000000000193e-02 -6.769999999999999759e-04 -9.999999999999999547e-07 5.642300000000000093e-02 -6.790000000000000245e-04 0.000000000000000000e+00 5.642199999999999993e-02 -6.800000000000000488e-04 0.000000000000000000e+00 5.642599999999999699e-02 -6.790000000000000245e-04 0.000000000000000000e+00 5.642199999999999993e-02 -6.800000000000000488e-04 0.000000000000000000e+00 5.642400000000000193e-02 -6.780000000000000002e-04 -9.999999999999999547e-07 5.642500000000000293e-02 -6.780000000000000002e-04 0.000000000000000000e+00 7.020000000000000415e-04 -5.300000000000000078e-05 -1.999999999999999909e-06 7.020000000000000415e-04 -5.300000000000000078e-05 -9.999999999999999547e-07 7.010000000000000172e-04 -5.399999999999999798e-05 -1.999999999999999909e-06 7.039999999999999817e-04 -5.300000000000000078e-05 9.999999999999999547e-07 7.029999999999999574e-04 -5.500000000000000196e-05 0.000000000000000000e+00 7.020000000000000415e-04 -5.000000000000000240e-05 9.999999999999999547e-07 7.029999999999999574e-04 -5.500000000000000196e-05 9.999999999999999547e-07 7.029999999999999574e-04 -5.599999999999999916e-05 -9.999999999999999547e-07 7.029999999999999574e-04 -5.399999999999999798e-05 -5.000000000000000409e-06 1.486799999999999927e-02 -1.820000000000000003e-03 9.999999999999999547e-07 1.486400000000000048e-02 -1.822999999999999968e-03 9.999999999999999547e-07 1.486600000000000074e-02 -1.820999999999999919e-03 3.000000000000000076e-06 1.486099999999999921e-02 -1.820000000000000003e-03 9.999999999999999547e-07 1.486600000000000074e-02 -1.817000000000000039e-03 -9.999999999999999547e-07 1.486299999999999948e-02 -1.820000000000000003e-03 9.999999999999999547e-07 1.486600000000000074e-02 -1.817999999999999955e-03 -9.999999999999999547e-07 1.486400000000000048e-02 -1.820000000000000003e-03 -9.999999999999999547e-07 1.486299999999999948e-02 -1.819000000000000087e-03 -1.999999999999999909e-06 -1.554400000000000052e-02 2.420999999999999975e-03 -1.999999999999999909e-06 -1.554999999999999959e-02 2.420999999999999975e-03 -3.999999999999999819e-06 -1.553700000000000046e-02 2.419999999999999842e-03 -1.999999999999999909e-06 -1.554200000000000026e-02 2.418000000000000010e-03 9.999999999999999547e-07 -1.553999999999999999e-02 2.420999999999999975e-03 5.000000000000000409e-06 -1.554700000000000006e-02 2.419999999999999842e-03 9.999999999999999547e-07 -1.554200000000000026e-02 2.419000000000000143e-03 -1.999999999999999909e-06 -1.554200000000000026e-02 2.422000000000000108e-03 9.999999999999999547e-07 -1.554600000000000079e-02 2.422999999999999807e-03
2.384000000000000008e-02 3.367000000000000201e-03 -4.650000000000000270e-04 -9.662000000000000449e-03 2.435899999999999871e-02 8.762999999999999956e-03 1.628200000000000133e-02 -2.525799999999999920e-02 -2.732199999999999906e-02 5.433999999999999594e-03 2.609999999999999907e-03 -1.573499999999999899e-02 -1.819199999999999984e-02 3.281200000000000089e-02 3.931300000000000072e-02 -8.881999999999999271e-03 -2.882300000000000140e-02 -7.064299999999999746e-02 2.215999999999999914e-02 8.174999999999999975e-03 -3.166100000000000164e-02 -9.539999999999999869e-03 -1.928099999999999953e-02 1.193699999999999969e-02 3.298999999999999849e-03 -1.861999999999999940e-03 4.800999999999999712e-03 -8.760999999999999691e-03 -7.389400000000000135e-02 9.891999999999999751e-03 -2.149600000000000122e-02 -2.466099999999999889e-02 -2.221000000000000058e-02 1.319599999999999940e-02 -5.995899999999999841e-02 2.542499999999999968e-02 6.729999999999999871e-04 -5.556799999999999934e-02 -1.025799999999999976e-02 3.144899999999999779e-02 -6.594999999999999474e-02 5.875000000000000014e-03 -8.850000000000000228e-03 -7.095100000000000018e-02 2.239500000000000171e-02 -1.208000000000000046e-02 -6.791200000000000014e-02 3.101200000000000137e-02 -7.391000000000000000e-03 -4.753299999999999886e-02 -4.805299999999999849e-02 1.060000000000000016e-04 -8.813400000000000400e-02 1.877200000000000049e-02 1.564099999999999865e-02 2.644699999999999829e-02 -2.344299999999999856e-02 -8.404000000000000012e-03 5.089599999999999680e-02 -4.295800000000000313e-02 -8.680000000000000215e-03 2.744399999999999964e-02 -2.294600000000000112e-02 3.841999999999999929e-03 5.544299999999999923e-02 -5.996200000000000141e-02 2.716999999999999797e-03 5.920099999999999668e-02 1.045399999999999975e-02 -5.029999999999999749e-04 6.962300000000000433e-02 5.484200000000000186e-02 -9.622999999999999610e-03 3.916000000000000036e-02 7.999999999999999638e-06 5.093999999999999570e-03 5.211799999999999766e-02 -3.549700000000000077e-02 1.022400000000000045e-02 8.751499999999999557e-02 -3.635000000000000210e-03 -3.099999999999999978e-02 -7.295000000000000269e-03 3.231900000000000051e-02 -1.828099999999999864e-02 8.427999999999999728e-03 1.345999999999999974e-03 -5.609000000000000270e-03 -1.349299999999999979e-02 -1.486400000000000048e-02 -1.699999999999999987e-05 1.889000000000000054e-03 6.079000000000000202e-03 1.344099999999999982e-02 -4.464000000000000086e-03 -3.108000000000000086e-03 -3.272000000000000169e-03 -1.515299999999999980e-02 -1.752199999999999938e-02 -2.245000000000000034e-03 -1.430099999999999948e-02 -1.549000000000000030e-03 2.704399999999999860e-02 -2.895700000000000010e-02 5.400100000000000039e-02 1.167999999999999941e-02 -2.319699999999999887e-02 1.644599999999999881e-02 -4.444800000000000140e-02 5.787199999999999983e-02 5.734800000000000314e-02 -6.936999999999999590e-03 2.126099999999999865e-02 1.898800000000000140e-02 1.943399999999999989e-02 2.098399999999999918e-02 3.908199999999999869e-02 -2.574200000000000099e-02 9.046700000000000574e-02 5.212399999999999672e-02 -3.211699999999999972e-02 -1.164800000000000037e-02 1.376299999999999919e-02 2.321399999999999852e-02 -7.368299999999999850e-02 -4.215100000000000097e-02 5.874299999999999661e-02 3.915699999999999736e-02 4.102000000000000091e-02 -3.016699999999999937e-02 4.181399999999999700e-02 5.484399999999999692e-02 2.958999999999999825e-03 -2.682999999999999968e-02 -5.638399999999999662e-02 3.786400000000000182e-02 2.686300000000000146e-02 -2.068499999999999853e-02 -3.932999999999999864e-03 3.559099999999999764e-02 1.963000000000000161e-02 5.305999999999999953e-03 -2.809800000000000145e-02 -1.501800000000000010e-02 8.160000000000000586e-03 -2.625100000000000003e-02 9.114999999999999838e-03 -8.876100000000000656e-02 2.126600000000000018e-02 -4.751699999999999674e-02 -1.527500000000000038e-02 4.181100000000000094e-02 -2.560199999999999976e-02 2.089600000000000138e-02 -6.439799999999999691e-02 7.054999999999999639e-03 6.475300000000000500e-02 4.024999999999999932e-03 7.785000000000000253e-03 -7.596999999999999587e-03 1.713399999999999992e-02 -1.591700000000000059e-02
4.743100000000000094e-02 8.744000000000000036e-03 -8.390000000000000105e-04 -1.935399999999999968e-02 5.073699999999999738e-02 1.751099999999999879e-02 3.271199999999999802e-02 -4.840300000000000158e-02 -5.448700000000000071e-02 1.081299999999999970e-02 7.314000000000000189e-03 -3.105399999999999827e-02 -3.565600000000000019e-02 6.689100000000000601e-02 7.765700000000000380e-02 -1.780999999999999944e-02 -5.579599999999999838e-02 -1.420589999999999908e-01 4.446599999999999858e-02 1.845700000000000118e-02 -6.322300000000000142e-02 -1.889599999999999960e-02 -3.637399999999999661e-02 2.405900000000000052e-02 6.644999999999999865e-03 -1.623000000000000094e-03 9.811999999999999542e-03 -1.743499999999999911e-02 -9.310400000000000620e-02 1.904399999999999843e-02 -4.278099999999999958e-02 5.304999999999999820e-03 -4.517700000000000188e-02 2.618499999999999994e-02 -6.545399999999999829e-02 5.016199999999999826e-02 1.417999999999999990e-03 -5.675499999999999989e-02 -2.094100000000000128e-02 6.246700000000000169e-02 -7.751199999999999757e-02 1.081999999999999976e-02 -1.760400000000000159e-02 -8.727200000000000235e-02 4.412200000000000150e-02 -2.400400000000000103e-02 -8.102600000000000080e-02 6.101399999999999879e-02 -1.478699999999999980e-02 -4.061200000000000226e-02 -9.679200000000000303e-02 1.240000000000000054e-04 -1.210029999999999994e-01 3.658600000000000046e-02 3.117199999999999832e-02 -2.804000000000000069e-03 -4.537100000000000161e-02 -1.663399999999999948e-02 4.541400000000000298e-02 -8.448200000000000154e-02 -1.735499999999999890e-02 -1.100000000000000066e-03 -4.469399999999999762e-02 7.374000000000000346e-03 5.495099999999999985e-02 -1.177529999999999966e-01 5.414000000000000409e-03 6.192799999999999694e-02 2.147400000000000003e-02 -9.920000000000000432e-04 8.315300000000000469e-02 1.111729999999999940e-01 -1.925800000000000081e-02 2.213999999999999996e-02 1.051999999999999984e-03 9.997000000000000677e-03 4.806400000000000255e-02 -6.981900000000000606e-02 2.029299999999999854e-02 1.183440000000000047e-01 -5.941000000000000100e-03 -6.237299999999999789e-02 -1.566199999999999884e-02 6.518699999999999495e-02 -3.629700000000000287e-02 1.599400000000000127e-02 2.890000000000000208e-03 -1.125400000000000011e-02 -2.746399999999999883e-02 -2.951399999999999857e-02 1.099999999999999971e-05 2.981000000000000143e-03 1.219699999999999951e-02 2.671600000000000016e-02 -9.634999999999999468e-03 -6.048999999999999690e-03 -6.470000000000000057e-03 -3.071799999999999878e-02 -3.479800000000000254e-02 -4.512999999999999651e-03 -2.926700000000000135e-02 -2.866000000000000058e-03 5.485700000000000298e-02 -5.913299999999999806e-02 1.091410000000000019e-01 2.343399999999999997e-02 -4.695200000000000068e-02 3.308400000000000230e-02 -8.843900000000000372e-02 1.002669999999999950e-01 1.156319999999999987e-01 -1.382199999999999922e-02 2.740199999999999927e-02 3.934499999999999803e-02 3.856199999999999906e-02 2.698599999999999957e-02 7.918899999999999550e-02 -5.190100000000000269e-02 1.651140000000000108e-01 1.053250000000000020e-01 -6.388000000000000622e-02 -3.762599999999999972e-02 2.917900000000000008e-02 4.573499999999999788e-02 -1.620109999999999884e-01 -8.176700000000000634e-02 1.174199999999999966e-01 6.363099999999999312e-02 8.384700000000000486e-02 -5.998699999999999866e-02 6.859400000000000219e-02 1.106860000000000066e-01 5.983999999999999736e-03 -6.840499999999999359e-02 -1.104340000000000044e-01 7.599200000000000399e-02 6.919599999999999362e-02 -4.399700000000000139e-02 -7.945999999999999938e-03 8.618199999999999472e-02 3.676999999999999713e-02 1.064299999999999968e-02 -4.056400000000000283e-02 -3.211599999999999872e-02 1.610200000000000173e-02 -3.711500000000000216e-02 1.608700000000000060e-02 -1.776530000000000054e-01 5.826200000000000129e-02 -9.752099999999999658e-02 -3.053300000000000111e-02 9.815699999999999426e-02 -5.328600000000000003e-02 4.149699999999999916e-02 -1.132070000000000021e-01 1.200400000000000078e-02 1.292290000000000105e-01 2.338600000000000054e-02 1.312800000000000078e-02 -1.508299999999999919e-02 4.926300000000000123e-02 -3.387799999999999839e-02
7.067900000000000571e-02 1.401900000000000021e-02 -1.353000000000000036e-03 -2.910000000000000087e-02 7.691900000000000126e-02 2.583099999999999979e-02 4.920200000000000268e-02 -7.131400000000000239e-02 -8.141299999999999926e-02 1.609700000000000020e-02 1.211199999999999950e-02 -4.617399999999999977e-02 -5.246300000000000269e-02 9.989299999999999569e-02 1.144619999999999943e-01 -2.673299999999999982e-02 -8.287700000000000622e-02 -2.138420000000000043e-01 6.684600000000000264e-02 2.876700000000000090e-02 -9.466299999999999715e-02 -2.792100000000000137e-02 -5.347799999999999776e-02 3.591300000000000048e-02 1.007199999999999936e-02 -1.258000000000000004e-03 1.476799999999999988e-02 -2.587599999999999970e-02 -1.119089999999999946e-01 2.775700000000000042e-02 -6.375699999999999423e-02 3.543299999999999922e-02 -6.850299999999999445e-02 3.898000000000000076e-02 -7.081800000000000594e-02 7.443199999999999816e-02 2.309999999999999987e-03 -5.789799999999999808e-02 -3.171899999999999720e-02 9.289200000000000235e-02 -8.899100000000000066e-02 1.500600000000000024e-02 -2.625900000000000109e-02 -1.032610000000000056e-01 6.531000000000000694e-02 -3.577000000000000318e-02 -9.360699999999999577e-02 9.017400000000000415e-02 -2.216900000000000120e-02 -3.349099999999999994e-02 -1.455799999999999872e-01 -6.499999999999999431e-05 -1.528869999999999951e-01 5.365799999999999736e-02 4.650300000000000267e-02 -3.128100000000000325e-02 -6.620900000000000396e-02 -2.457499999999999962e-02 3.987799999999999678e-02 -1.250330000000000052e-01 -2.608999999999999861e-02 -2.909399999999999833e-02 -6.576500000000000401e-02 1.048600000000000053e-02 5.506599999999999689e-02 -1.737200000000000133e-01 8.137999999999999401e-03 6.449399999999999578e-02 3.247900000000000093e-02 -1.376999999999999969e-03 9.689399999999999402e-02 1.678840000000000054e-01 -2.891600000000000073e-02 5.399000000000000153e-03 2.590999999999999987e-03 1.467000000000000075e-02 4.431399999999999922e-02 -1.033509999999999984e-01 3.021300000000000027e-02 1.487620000000000053e-01 -7.505999999999999651e-03 -9.393600000000000561e-02 -2.429200000000000109e-02 9.842800000000000160e-02 -5.396399999999999808e-02 2.326999999999999902e-02 4.598999999999999790e-03 -1.692499999999999907e-02 -4.115599999999999814e-02 -4.396900000000000114e-02 8.799999999999999771e-05 3.971999999999999836e-03 1.820499999999999896e-02 3.978799999999999698e-02 -1.475699999999999928e-02 -8.831999999999999573e-03 -9.577000000000000443e-03 -4.582699999999999968e-02 -5.175199999999999939e-02 -6.799000000000000356e-03 -4.417299999999999699e-02 -3.900999999999999954e-03 8.334300000000000042e-02 -8.966200000000000558e-02 1.649120000000000030e-01 3.511700000000000238e-02 -7.052600000000000535e-02 4.969200000000000006e-02 -1.317699999999999982e-01 1.418679999999999941e-01 1.725450000000000039e-01 -2.065399999999999875e-02 3.318100000000000216e-02 5.903499999999999720e-02 5.737899999999999945e-02 3.291899999999999687e-02 1.181279999999999969e-01 -7.823499999999999899e-02 2.384830000000000005e-01 1.572989999999999944e-01 -9.518000000000000071e-02 -6.299299999999999344e-02 4.425899999999999973e-02 6.744200000000000195e-02 -2.495769999999999933e-01 -1.203990000000000060e-01 1.756709999999999938e-01 8.816200000000000425e-02 1.262870000000000104e-01 -8.923599999999999588e-02 9.484299999999999675e-02 1.652440000000000020e-01 8.961999999999999481e-03 -1.094730000000000009e-01 -1.636440000000000117e-01 1.141540000000000055e-01 1.112820000000000059e-01 -6.733000000000000096e-02 -1.190199999999999939e-02 1.357980000000000020e-01 5.372999999999999998e-02 1.593599999999999878e-02 -5.266400000000000248e-02 -4.874099999999999960e-02 2.384700000000000014e-02 -4.799699999999999800e-02 2.329200000000000020e-02 -2.661029999999999784e-01 9.520199999999999496e-02 -1.472120000000000095e-01 -4.574399999999999994e-02 1.533039999999999958e-01 -8.039399999999999324e-02 6.171800000000000203e-02 -1.616219999999999879e-01 1.724900000000000044e-02 1.929430000000000034e-01 4.237400000000000194e-02 1.843200000000000047e-02 -2.238599999999999965e-02 8.062600000000000322e-02 -5.127199999999999813e-02
9.345299999999999441e-02 1.917699999999999960e-02 -2.005999999999999971e-03 -3.894399999999999945e-02 1.027860000000000024e-01 3.370999999999999691e-02 6.563399999999999790e-02 -9.379500000000000337e-02 -1.077199999999999963e-01 2.125799999999999912e-02 1.706399999999999931e-02 -6.098200000000000148e-02 -6.859700000000000519e-02 1.315929999999999878e-01 1.495779999999999887e-01 -3.560100000000000070e-02 -1.098719999999999974e-01 -2.853180000000000160e-01 8.915800000000000114e-02 3.912600000000000106e-02 -1.256929999999999992e-01 -3.647500000000000048e-02 -7.057700000000000085e-02 4.753199999999999786e-02 1.360899999999999957e-02 -7.159999999999999481e-04 1.971399999999999889e-02 -3.399599999999999844e-02 -1.301990000000000092e-01 3.595799999999999691e-02 -8.423700000000000632e-02 6.554400000000000504e-02 -9.202100000000000557e-02 5.154299999999999854e-02 -7.599999999999999811e-02 9.813399999999999901e-02 3.416000000000000199e-03 -5.902600000000000208e-02 -4.262599999999999723e-02 1.224569999999999964e-01 -1.002559999999999979e-01 1.830400000000000083e-02 -3.478799999999999948e-02 -1.188319999999999932e-01 8.584600000000000564e-02 -4.734700000000000020e-02 -1.055510000000000059e-01 1.183369999999999977e-01 -2.948299999999999879e-02 -2.611600000000000033e-02 -1.940880000000000105e-01 -5.119999999999999768e-04 -1.836069999999999924e-01 6.986199999999999355e-02 6.151500000000000024e-02 -5.887499999999999678e-02 -8.567900000000000515e-02 -3.212500000000000078e-02 3.427899999999999697e-02 -1.644519999999999871e-01 -3.489300000000000040e-02 -5.641999999999999793e-02 -8.600499999999999812e-02 1.309800000000000027e-02 5.585099999999999787e-02 -2.275290000000000090e-01 1.092899999999999948e-02 6.684800000000000464e-02 4.341600000000000320e-02 -1.618000000000000081e-03 1.106369999999999992e-01 2.245429999999999926e-01 -3.857399999999999718e-02 -1.097599999999999965e-02 4.759000000000000209e-03 1.905000000000000096e-02 4.095200000000000229e-02 -1.359329999999999983e-01 3.994999999999999940e-02 1.784910000000000108e-01 -8.288999999999999493e-03 -1.254540000000000100e-01 -3.310300000000000048e-02 1.319059999999999955e-01 -7.113700000000000578e-02 3.014899999999999872e-02 6.426000000000000288e-03 -2.262300000000000075e-02 -5.445900000000000046e-02 -5.824900000000000216e-02 2.090000000000000115e-04 4.810000000000000039e-03 2.403299999999999881e-02 5.256799999999999667e-02 -1.973300000000000054e-02 -1.144700000000000058e-02 -1.255500000000000019e-02 -6.032400000000000262e-02 -6.835600000000000009e-02 -9.076999999999999999e-03 -5.897999999999999771e-02 -4.589000000000000197e-03 1.122989999999999960e-01 -1.203079999999999983e-01 2.208330000000000015e-01 4.661799999999999972e-02 -9.378799999999999637e-02 6.607000000000000373e-02 -1.741270000000000040e-01 1.823269999999999891e-01 2.275240000000000040e-01 -2.741599999999999940e-02 3.859100000000000030e-02 7.782600000000000628e-02 7.576199999999999601e-02 3.873000000000000054e-02 1.555159999999999876e-01 -1.044579999999999953e-01 3.100419999999999843e-01 2.075059999999999960e-01 -1.258019999999999972e-01 -8.754499999999999782e-02 5.881200000000000316e-02 8.822699999999999987e-02 -3.356720000000000259e-01 -1.577260000000000051e-01 2.330149999999999999e-01 1.125280000000000030e-01 1.678790000000000004e-01 -1.176859999999999989e-01 1.203300000000000064e-01 2.179780000000000051e-01 1.185199999999999969e-02 -1.496790000000000065e-01 -2.155950000000000089e-01 1.520100000000000062e-01 1.528220000000000134e-01 -9.042799999999999450e-02 -1.574300000000000005e-02 1.840289999999999981e-01 7.036499999999999699e-02 2.113800000000000054e-02 -6.427599999999999980e-02 -6.474100000000000688e-02 3.139399999999999830e-02 -5.883300000000000335e-02 3.068699999999999900e-02 -3.534510000000000152e-01 1.317909999999999915e-01 -1.961160000000000125e-01 -6.081799999999999706e-02 2.068899999999999906e-01 -1.066659999999999969e-01 8.142000000000000626e-02 -2.092559999999999976e-01 2.273800000000000127e-02 2.553969999999999851e-01 6.083000000000000212e-02 2.363900000000000029e-02 -2.944599999999999995e-02 1.109819999999999973e-01 -6.788199999999999790e-02
1.156370000000000037e-01 2.420800000000000035e-02 -2.743000000000000212e-03 -4.891999999999999821e-02 1.282030000000000114e-01 4.111100000000000171e-02 8.186799999999999633e-02 -1.156329999999999997e-01 -1.329790000000000139e-01 2.626099999999999962e-02 2.224900000000000141e-02 -7.535000000000000031e-02 -8.406600000000000183e-02 1.617780000000000051e-01 1.828649999999999998e-01 -4.436699999999999672e-02 -1.365770000000000040e-01 -3.557969999999999744e-01 1.112709999999999949e-01 4.956900000000000195e-02 -1.560189999999999910e-01 -4.442600000000000021e-02 -8.766599999999999393e-02 5.891199999999999909e-02 1.728899999999999881e-02 6.899999999999999667e-05 2.470800000000000080e-02 -4.168000000000000177e-02 -1.478859999999999897e-01 4.358999999999999680e-02 -1.040719999999999978e-01 9.548800000000000343e-02 -1.155790000000000012e-01 6.384399999999999797e-02 -8.096299999999999331e-02 1.211969999999999992e-01 4.818000000000000234e-03 -6.014100000000000001e-02 -5.367100000000000343e-02 1.509399999999999908e-01 -1.111830000000000040e-01 2.061100000000000085e-02 -4.315200000000000286e-02 -1.339110000000000023e-01 1.055849999999999983e-01 -5.873500000000000248e-02 -1.167799999999999949e-01 1.453760000000000052e-01 -3.667399999999999827e-02 -1.844200000000000006e-02 -2.419320000000000082e-01 -1.281000000000000021e-03 -2.130239999999999911e-01 8.512100000000000222e-02 7.610899999999999610e-02 -8.550399999999999667e-02 -1.035780000000000034e-01 -3.919899999999999773e-02 2.856600000000000111e-02 -2.025780000000000081e-01 -4.380099999999999966e-02 -8.296399999999999608e-02 -1.052949999999999997e-01 1.513199999999999962e-02 5.736700000000000133e-02 -2.789240000000000053e-01 1.383999999999999987e-02 6.890400000000000691e-02 5.425300000000000261e-02 -1.670999999999999959e-03 1.241899999999999948e-01 2.807270000000000043e-01 -4.820800000000000085e-02 -2.689599999999999977e-02 7.677999999999999929e-03 2.309200000000000141e-02 3.804300000000000043e-02 -1.674150000000000083e-01 4.949800000000000033e-02 2.072920000000000040e-01 -8.283999999999999697e-03 -1.566770000000000107e-01 -4.200500000000000067e-02 1.654680000000000040e-01 -8.770200000000000218e-02 3.654799999999999716e-02 8.344999999999999987e-03 -2.834199999999999914e-02 -6.729100000000000359e-02 -7.237300000000000677e-02 3.849999999999999798e-04 5.461999999999999841e-03 2.960000000000000131e-02 6.497799999999999410e-02 -2.447200000000000070e-02 -1.389100000000000057e-02 -1.536000000000000039e-02 -7.406100000000000183e-02 -8.453900000000000303e-02 -1.135899999999999931e-02 -7.366399999999999337e-02 -4.877000000000000259e-03 1.415150000000000019e-01 -1.508359999999999979e-01 2.763399999999999745e-01 5.781100000000000128e-02 -1.166250000000000064e-01 8.199099999999999444e-02 -2.152060000000000084e-01 2.213380000000000070e-01 2.800460000000000171e-01 -3.407400000000000012e-02 4.360900000000000193e-02 9.549699999999999855e-02 9.359299999999999564e-02 4.440600000000000103e-02 1.910010000000000041e-01 -1.303189999999999904e-01 3.793849999999999723e-01 2.554400000000000004e-01 -1.555420000000000136e-01 -1.111440000000000067e-01 7.266699999999999549e-02 1.079949999999999938e-01 -4.196369999999999822e-01 -1.934539999999999871e-01 2.889970000000000039e-01 1.365159999999999985e-01 2.081610000000000127e-01 -1.451340000000000130e-01 1.448010000000000130e-01 2.684019999999999739e-01 1.462300000000000058e-02 -1.886629999999999974e-01 -2.658690000000000220e-01 1.892500000000000016e-01 1.935330000000000106e-01 -1.130390000000000006e-01 -1.937699999999999839e-02 2.304769999999999874e-01 8.653800000000000381e-02 2.619300000000000100e-02 -7.525800000000000545e-02 -7.996499999999999442e-02 3.872899999999999954e-02 -6.953099999999999559e-02 3.822300000000000003e-02 -4.389839999999999853e-01 1.677089999999999970e-01 -2.437630000000000075e-01 -7.565399999999999903e-02 2.586060000000000025e-01 -1.318489999999999940e-01 1.004530000000000006e-01 -2.557309999999999861e-01 2.841600000000000029e-02 3.160700000000000176e-01 7.859800000000000120e-02 2.870500000000000135e-02 -3.620899999999999813e-02 1.400790000000000091e-01 -8.351999999999999702e-02
1.371169999999999889e-01 2.911100000000000146e-02 -3.508999999999999966e-03 -5.905599999999999739e-02 1.530410000000000104e-01 4.802200000000000218e-02 9.776600000000000568e-02 -1.366290000000000004e-01 -1.568199999999999872e-01 3.107400000000000093e-02 2.774499999999999883e-02 -8.917400000000000326e-02 -9.888399999999999967e-02 1.902749999999999997e-01 2.142259999999999998e-01 -5.298400000000000332e-02 -1.627889999999999893e-01 -4.245900000000000230e-01 1.330510000000000026e-01 6.013899999999999801e-02 -1.853509999999999880e-01 -5.166199999999999959e-02 -1.047450000000000048e-01 7.006199999999999928e-02 2.115099999999999966e-02 1.144999999999999967e-03 2.979599999999999957e-02 -4.883599999999999747e-02 -1.648840000000000028e-01 5.060300000000000215e-02 -1.231140000000000012e-01 1.251049999999999940e-01 -1.390039999999999887e-01 7.586400000000000088e-02 -8.567600000000000215e-02 1.435369999999999979e-01 6.576000000000000248e-03 -6.126199999999999701e-02 -6.488199999999999523e-02 1.781300000000000106e-01 -1.216499999999999942e-01 2.184300000000000130e-02 -5.132400000000000156e-02 -1.484260000000000024e-01 1.244100000000000067e-01 -6.991799999999999404e-02 -1.272300000000000098e-01 1.711660000000000126e-01 -4.368899999999999867e-02 -1.040899999999999985e-02 -2.887689999999999979e-01 -2.435000000000000098e-03 -2.410239999999999883e-01 9.934500000000000275e-02 9.018500000000000127e-02 -1.111130000000000034e-01 -1.197249999999999981e-01 -4.571599999999999969e-02 2.269300000000000136e-02 -2.392950000000000077e-01 -5.283700000000000202e-02 -1.086290000000000033e-01 -1.235080000000000067e-01 1.652299999999999949e-02 5.965700000000000169e-02 -3.276729999999999920e-01 1.692099999999999854e-02 7.059799999999999409e-02 6.494700000000000473e-02 -1.498999999999999898e-03 1.373399999999999899e-01 3.360130000000000061e-01 -5.779100000000000209e-02 -4.227999999999999814e-02 1.146400000000000023e-02 2.674299999999999941e-02 3.564200000000000007e-02 -1.976729999999999876e-01 5.885699999999999960e-02 2.349219999999999919e-01 -7.493999999999999793e-03 -1.873620000000000008e-01 -5.090399999999999786e-02 1.989470000000000127e-01 -1.035510000000000042e-01 4.237400000000000194e-02 1.031199999999999999e-02 -3.407400000000000012e-02 -7.957899999999999696e-02 -8.636199999999999433e-02 6.070000000000000092e-04 5.885999999999999739e-03 3.484199999999999797e-02 7.695000000000000451e-02 -2.889399999999999955e-02 -1.617199999999999888e-02 -1.795300000000000021e-02 -8.690499999999999614e-02 -1.002620000000000039e-01 -1.362900000000000049e-02 -8.820600000000000662e-02 -4.708000000000000379e-03 1.707559999999999911e-01 -1.809890000000000110e-01 3.308869999999999867e-01 6.857399999999999607e-02 -1.389309999999999989e-01 9.725599999999999523e-02 -2.547340000000000160e-01 2.586260000000000225e-01 3.296319999999999806e-01 -4.058300000000000102e-02 4.822599999999999804e-02 1.118569999999999981e-01 1.107630000000000003e-01 4.990699999999999997e-02 2.242669999999999941e-01 -1.555350000000000066e-01 4.460830000000000073e-01 3.006099999999999883e-01 -1.842199999999999949e-01 -1.336370000000000058e-01 8.567099999999999715e-02 1.266770000000000118e-01 -5.008439999999999559e-01 -2.273020000000000040e-01 3.431839999999999891e-01 1.599089999999999956e-01 2.466929999999999956e-01 -1.713790000000000036e-01 1.680419999999999969e-01 3.160609999999999808e-01 1.723399999999999932e-02 -2.260900000000000132e-01 -3.140789999999999971e-01 2.255449999999999955e-01 2.331479999999999941e-01 -1.349100000000000021e-01 -2.273700000000000027e-02 2.747709999999999875e-01 1.021169999999999994e-01 3.105000000000000121e-02 -8.549500000000000155e-02 -9.428200000000000469e-02 4.585000000000000187e-02 -7.999799999999999967e-02 4.584300000000000180e-02 -5.220169999999999533e-01 2.026390000000000136e-01 -2.896770000000000178e-01 -9.016200000000000603e-02 3.081630000000000202e-01 -1.557030000000000081e-01 1.186979999999999980e-01 -3.006610000000000116e-01 3.422200000000000242e-02 3.744790000000000063e-01 9.552299999999999680e-02 3.358499999999999680e-02 -4.262900000000000023e-02 1.677150000000000030e-01 -9.801200000000000190e-02