 vasp.6.1.1 19Jun20 (build Dec 21 2021 08:45:49) complex                        
  
 executed on             LinuxIFC date 2023.10.04  12:46:25
 running on   40 total cores
 distrk:  each k-point on   40 cores,    1 groups
 distr:  one band on NCORE=   1 cores,   40 groups


--------------------------------------------------------------------------------------------------------


 INCAR:
 POTCAR:   PAW_PBE Te 08Apr2002                   
 POTCAR:   PAW_PBE Mo 08Apr2002                   
 -----------------------------------------------------------------------------
|                                                                             |
|           W    W    AA    RRRRR   N    N  II  N    N   GGGG   !!!           |
|           W    W   A  A   R    R  NN   N  II  NN   N  G    G  !!!           |
|           W    W  A    A  R    R  N N  N  II  N N  N  G       !!!           |
|           W WW W  AAAAAA  RRRRR   N  N N  II  N  N N  G  GGG   !            |
|           WW  WW  A    A  R   R   N   NN  II  N   NN  G    G                |
|           W    W  A    A  R    R  N    N  II  N    N   GGGG   !!!           |
|                                                                             |
|     For optimal performance we recommend to set                             |
|       NCORE = 4 - approx SQRT(number of cores).                             |
|     NCORE specifies how many cores store one orbital (NPAR=cpu/NCORE).      |
|     This setting can greatly improve the performance of VASP for DFT.       |
|     The default, NCORE=1 might be grossly inefficient on modern             |
|     multi-core architectures or massively parallel machines. Do your        |
|     own testing!!!!                                                         |
|     Unfortunately you need to use the default for GW and RPA                |
|     calculations (for HF NCORE is supported but not extensively tested      |
|     yet).                                                                   |
|                                                                             |
 -----------------------------------------------------------------------------

 POTCAR:   PAW_PBE Te 08Apr2002                   
   VRHFIN =Te: s2p4                                                                                 
   LEXCH  = PE                                                                                      
   EATOM  =   223.2721 eV,   16.4100 Ry                                                             
                                                                                                    
   TITEL  = PAW_PBE Te 08Apr2002                                                                    
   LULTRA =        F    use ultrasoft PP ?                                                          
   IUNSCR =        1    unscreen: 0-lin 1-nonlin 2-no                                               
   RPACOR =    2.200    partial core radius                                                         
   POMASS =  127.600; ZVAL   =    6.000    mass and valenz                                          
   RCORE  =    2.300    outmost cutoff radius                                                       
   RWIGS  =    2.900; RWIGS  =    1.535    wigner-seitz radius (au A)                               
   ENMAX  =  174.982; ENMIN  =  131.236 eV                                                          
   ICORE  =        3    local potential                                                             
   LCOR   =        T    correct aug charges                                                         
   LPAW   =        T    paw PP                                                                      
   EAUG   =  368.792                                                                                
   DEXC   =    -.169                                                                                
   RMAX   =    3.486    core radius for proj-oper                                                   
   RAUG   =    1.300    factor for augmentation sphere                                              
   RDEP   =    2.397    radius for radial grids                                                     
   QCUT   =   -3.586; QGAM   =    7.172    optimization parameters                                  
                                                                                                    
   Description                                                                                      
     l     E      TYP  RCUT    TYP  RCUT                                                            
     0   .000     23  2.300                                                                         
     0   .000     23  2.300                                                                         
     1   .000     23  2.300                                                                         
     1   .000     23  2.300                                                                         
     2   .000     23  2.300                                                                         
     3  -.100     23  2.300                                                                         
  local pseudopotential read in
  partial core-charges read in
  atomic valenz-charges read in
  non local Contribution for L=           0  read in
    real space projection operators read in
  non local Contribution for L=           0  read in
    real space projection operators read in
  non local Contribution for L=           1  read in
    real space projection operators read in
  non local Contribution for L=           1  read in
    real space projection operators read in
  non local Contribution for L=           2  read in
    real space projection operators read in
    PAW grid and wavefunctions read in
 
   number of l-projection  operators is LMAX  =           5
   number of lm-projection operators is LMMAX =          13
 
 POTCAR:   PAW_PBE Mo 08Apr2002                   
   VRHFIN =Mo: 4p5s4d                                                                               
   LEXCH  = PE                                                                                      
   EATOM  =   217.5180 eV,   15.9871 Ry                                                             
                                                                                                    
   TITEL  = PAW_PBE Mo 08Apr2002                                                                    
   LULTRA =        F    use ultrasoft PP ?                                                          
   IUNSCR =        1    unscreen: 0-lin 1-nonlin 2-no                                               
   RPACOR =    2.200    partial core radius                                                         
   POMASS =   95.940; ZVAL   =    6.000    mass and valenz                                          
   RCORE  =    2.750    outmost cutoff radius                                                       
   RWIGS  =    2.750; RWIGS  =    1.455    wigner-seitz radius (au A)                               
   ENMAX  =  224.584; ENMIN  =  168.438 eV                                                          
   RCLOC  =    2.111    cutoff for local pot                                                        
   LCOR   =        T    correct aug charges                                                         
   LPAW   =        T    paw PP                                                                      
   EAUG   =  345.278                                                                                
   DEXC   =    -.088                                                                                
   RMAX   =    3.077    core radius for proj-oper                                                   
   RAUG   =    1.300    factor for augmentation sphere                                              
   RDEP   =    2.815    radius for radial grids                                                     
   QCUT   =   -4.063; QGAM   =    8.126    optimization parameters                                  
                                                                                                    
   Description                                                                                      
     l     E      TYP  RCUT    TYP  RCUT                                                            
     2   .000     23  2.500                                                                         
     2   .000     23  2.500                                                                         
     0   .000     23  2.600                                                                         
     0  1.000     23  2.600                                                                         
     1   .400     23  2.750                                                                         
     1  2.000     23  2.750                                                                         
     3   .000      7   .000                                                                         
  local pseudopotential read in
  partial core-charges read in
  atomic valenz-charges read in
  non local Contribution for L=           2  read in
    real space projection operators read in
  non local Contribution for L=           2  read in
    real space projection operators read in
  non local Contribution for L=           0  read in
    real space projection operators read in
  non local Contribution for L=           0  read in
    real space projection operators read in
  non local Contribution for L=           1  read in
    real space projection operators read in
  non local Contribution for L=           1  read in
    real space projection operators read in
    PAW grid and wavefunctions read in
 
   number of l-projection  operators is LMAX  =           6
   number of lm-projection operators is LMMAX =          18
 
 -----------------------------------------------------------------------------
|                                                                             |
|               ----> ADVICE to this user running VASP <----                  |
|                                                                             |
|     You have a (more or less) 'large supercell' and for larger cells it     |
|     might be more efficient to use real-space projection operators.         |
|     Therefore, try LREAL= Auto in the INCAR file.                           |
|     Mind: If you want to do very accurate calculations, keep the            |
|     reciprocal projection scheme (i.e. LREAL=.FALSE.).                      |
|                                                                             |
 -----------------------------------------------------------------------------

 PAW_PBE Te 08Apr2002                   :
 energy of atom  1       EATOM= -223.2721
 kinetic energy error for atom=    0.0006 (will be added to EATOM!!)
 PAW_PBE Mo 08Apr2002                   :
 energy of atom  2       EATOM= -217.5180
 kinetic energy error for atom=    0.0009 (will be added to EATOM!!)
 
 
 POSCAR: Te Mo
  positions in cartesian coordinates
  No initial velocities read in
 exchange correlation table for  LEXCH =        8
   RHO(1)=    0.500       N(1)  =     2000
   RHO(2)=  100.500       N(2)  =     4000
 


--------------------------------------------------------------------------------------------------------


 ion  position               nearest neighbor table
   1  0.222  0.111  0.683-  41 2.69  40 2.71  37 2.72   2 3.49   3 3.50   4 3.54   7 3.54   9 3.55
                             5 3.56  19 3.58
   2  0.222  0.445  0.683-  42 2.69  38 2.72  41 2.72   3 3.48   1 3.49   5 3.54   8 3.54   6 3.55
                             7 3.56  20 3.58
   3  0.221  0.777  0.683-  40 2.69  39 2.72  42 2.72   2 3.48   1 3.50   9 3.53   6 3.54   8 3.54
                             4 3.56  21 3.57
   4  0.555  0.111  0.683-  44 2.69  43 2.72  40 2.72   6 3.49   5 3.49   1 3.54   7 3.54   8 3.56
                             3 3.56  22 3.58
   5  0.556  0.445  0.683-  45 2.69  44 2.71  41 2.72   6 3.49   4 3.49   8 3.53   2 3.54   9 3.55
                             1 3.56  23 3.57
   6  0.556  0.778  0.683-  43 2.68  45 2.72  42 2.72   4 3.49   5 3.49   3 3.54   9 3.54   7 3.55
                             2 3.55  24 3.57
   7  0.889  0.111  0.683-  38 2.69  43 2.71  37 2.72   8 3.49   9 3.50   1 3.54   4 3.54   6 3.55
                             2 3.56  25 3.58
   8  0.889  0.445  0.683-  39 2.68  44 2.72  38 2.73   9 3.48   7 3.49   5 3.53   2 3.54   3 3.54
                             4 3.56  26 3.58
   9  0.889  0.777  0.683-  37 2.69  39 2.71  45 2.71   8 3.48   7 3.50   3 3.53   6 3.54   5 3.55
                             1 3.55  27 3.57
  10  0.222  0.000  0.438-  49 2.68  51 2.72  48 2.73  11 3.49  12 3.49  16 3.54  13 3.54  18 3.55
                            14 3.56  28 3.57
  11  0.222  0.333  0.438-  50 2.69  46 2.72  49 2.72  10 3.49  12 3.49  17 3.53  14 3.54  16 3.55
                            15 3.55  29 3.58
  12  0.222  0.667  0.438-  51 2.68  50 2.72  47 2.72  11 3.49  10 3.49  18 3.54  15 3.54  17 3.55
                            13 3.56  30 3.58
  13  0.556  0.000  0.438-  52 2.69  54 2.71  51 2.72  15 3.49  14 3.50  16 3.53  10 3.54  17 3.55
                            12 3.56  31 3.57
  14  0.556  0.334  0.438-  53 2.68  49 2.72  52 2.73  15 3.49  13 3.50  11 3.54  17 3.55  18 3.55
                            10 3.56  32 3.57
  15  0.556  0.667  0.438-  54 2.68  53 2.72  50 2.72  14 3.49  13 3.49  12 3.54  18 3.54  16 3.55
                            11 3.55  33 3.57
  16  0.889  0.000  0.438-  46 2.68  54 2.72  48 2.73  17 3.48  18 3.49  13 3.53  10 3.54  11 3.55
                            15 3.55  34 3.56
  17  0.889  0.333  0.438-  47 2.69  46 2.72  52 2.73  16 3.48  18 3.50  11 3.53  14 3.55  13 3.55
                            12 3.55  35 3.58
  18  0.889  0.667  0.438-  48 2.69  47 2.72  53 2.72  16 3.49  17 3.50  12 3.54  15 3.54  14 3.55
                            10 3.55  36 3.58
  19  0.222  0.111  0.562-  40 2.68  41 2.72  37 2.74  20 3.49  21 3.49  22 3.54  25 3.54  23 3.55
                            27 3.55   1 3.58
  20  0.222  0.445  0.562-  41 2.68  42 2.72  38 2.72  21 3.49  19 3.49  23 3.54  26 3.54  24 3.55
                            25 3.56   2 3.58
  21  0.222  0.777  0.562-  42 2.67  40 2.72  39 2.73  20 3.49  19 3.49  24 3.53  27 3.54  26 3.55
                            22 3.55   3 3.57
  22  0.555  0.111  0.562-  43 2.68  44 2.73  40 2.74  24 3.48  23 3.49  25 3.53  19 3.54  21 3.55
                            26 3.55   4 3.58
  23  0.555  0.444  0.562-  44 2.67  41 2.73  45 2.73  22 3.49  24 3.50  26 3.53  20 3.54  19 3.55
                            27 3.56   5 3.57
  24  0.555  0.778  0.562-  45 2.69  43 2.72  42 2.73  22 3.48  23 3.50  21 3.53  27 3.54  25 3.55
                            20 3.55   6 3.57
  25  0.888  0.111  0.562-  37 2.68  38 2.73  43 2.74  27 3.49  26 3.49  22 3.53  19 3.54  24 3.55
                            20 3.56   7 3.58
  26  0.889  0.445  0.562-  38 2.68  39 2.72  44 2.73  25 3.49  27 3.49  23 3.53  20 3.54  21 3.55
                            22 3.55   8 3.58
  27  0.889  0.778  0.562-  39 2.68  37 2.72  45 2.73  25 3.49  26 3.49  21 3.54  24 3.54  19 3.55
                            23 3.56   9 3.57
  28  0.222  0.999  0.317-  51 2.67  48 2.72  49 2.72  30 3.49  29 3.49  31 3.54  34 3.54  36 3.55
                            32 3.56  10 3.57
  29  0.222  0.333  0.317-  49 2.68  46 2.73  50 2.73  30 3.49  28 3.49  35 3.53  34 3.54  32 3.54
                            33 3.56  11 3.58
  30  0.222  0.666  0.317-  50 2.67  51 2.73  47 2.73  29 3.49  28 3.49  36 3.54  33 3.54  35 3.54
                            31 3.55  12 3.58
  31  0.555  1.000  0.317-  54 2.68  52 2.72  51 2.73  32 3.48  33 3.49  28 3.54  34 3.54  30 3.55
                            35 3.56  13 3.57
  32  0.556  0.333  0.317-  52 2.67  53 2.72  49 2.73  31 3.48  33 3.50  35 3.54  29 3.54  36 3.56
                            28 3.56  14 3.57
  33  0.556  0.667  0.317-  53 2.67  54 2.72  50 2.73  31 3.49  32 3.50  36 3.53  30 3.54  34 3.55
                            29 3.56  15 3.57
  34  0.890  0.001  0.317-  48 2.67  46 2.71  54 2.73  35 3.49  36 3.49  28 3.54  29 3.54  31 3.54
                            33 3.55  16 3.56
  35  0.889  0.334  0.317-  46 2.68  47 2.72  52 2.73  36 3.49  34 3.49  29 3.53  32 3.54  30 3.54
                            31 3.56  17 3.58
  36  0.889  0.667  0.317-  47 2.68  48 2.71  53 2.73  35 3.49  34 3.49  33 3.53  30 3.54  28 3.55
                            32 3.56  18 3.58
  37  0.999  0.000  0.622-  25 2.68   9 2.69   7 2.72  27 2.72   1 2.72  19 2.74  38 3.48
  38  0.001  0.334  0.622-  26 2.68   7 2.69   2 2.72  20 2.72  25 2.73   8 2.73  37 3.48
  39  1.000  0.667  0.623-  27 2.68   8 2.68   9 2.71   3 2.72  26 2.72  21 2.73
  40  0.332  0.000  0.622-  19 2.68   3 2.69   1 2.71   4 2.72  21 2.72  22 2.74  41 3.48
  41  0.333  0.333  0.622-  20 2.68   1 2.69   5 2.72  19 2.72   2 2.72  23 2.73  40 3.48  42 3.49

  42  0.333  0.667  0.622-  21 2.67   2 2.69  20 2.72   3 2.72   6 2.72  24 2.73  41 3.49
  43  0.666  1.000  0.623-   6 2.68  22 2.68   7 2.71   4 2.72  24 2.72  25 2.74  45 3.49
  44  0.667  0.334  0.623-  23 2.67   4 2.69   5 2.71   8 2.72  26 2.73  22 2.73  45 3.48
  45  0.667  0.667  0.622-  24 2.69   5 2.69   9 2.71   6 2.72  23 2.73  27 2.73  44 3.48  43 3.49

  46  0.000  0.222  0.378-  35 2.68  16 2.68  34 2.71  17 2.72  11 2.72  29 2.73  47 3.49
  47  1.000  0.555  0.378-  36 2.68  17 2.69  18 2.72  12 2.72  35 2.72  30 2.73  48 3.48  46 3.49

  48  1.000  0.888  0.377-  34 2.67  18 2.69  36 2.71  28 2.72  16 2.73  10 2.73  47 3.48
  49  0.333  0.222  0.378-  29 2.68  10 2.68  28 2.72  11 2.72  14 2.72  32 2.73  51 3.49
  50  0.333  0.556  0.378-  30 2.67  11 2.69  12 2.72  15 2.72  29 2.73  33 2.73  51 3.48
  51  0.333  0.888  0.378-  28 2.67  12 2.68  10 2.72  13 2.72  30 2.73  31 2.73  50 3.48  49 3.49

  52  0.667  0.222  0.377-  32 2.67  13 2.69  31 2.72  17 2.73  35 2.73  14 2.73  54 3.49
  53  0.666  0.555  0.378-  33 2.67  14 2.68  15 2.72  32 2.72  18 2.72  36 2.73  54 3.49
  54  0.666  0.889  0.378-  31 2.68  15 2.68  13 2.71  33 2.72  16 2.72  34 2.73  52 3.49  53 3.49

 

IMPORTANT INFORMATION: All symmetrisations will be switched off!
NOSYMM: (Re-)initialisation of all symmetry stuff for point group C_1.


----------------------------------------------------------------------------------------

                                     Primitive cell                                     

  volume of cell :    2864.2904

  direct lattice vectors                    reciprocal lattice vectors
    10.613772835  0.000000000  0.000000000     0.094217204  0.052820447  0.000323193
    -5.119610248  9.131981895  0.000000000     0.000000000  0.109505254 -0.001475485
    -0.324601849  0.398182527 29.551682882     0.000000000  0.000000000  0.033839020

  length of vectors
    10.613772835 10.469169137 29.556147869     0.108013821  0.109515194  0.033839020

  position of ions in fractional coordinates (direct lattice)
     0.221915794  0.111006889  0.682712418
     0.222234346  0.444806515  0.682922406
     0.221392974  0.776814322  0.682837712
     0.555071069  0.110838736  0.682892680
     0.555619586  0.444563163  0.682802566
     0.555602266  0.778004558  0.682726062
     0.888644023  0.111117414  0.682653753
     0.888555159  0.444737855  0.682967173
     0.888995624  0.777259338  0.682697374
     0.222251182  0.000104560  0.438151061
     0.222132601  0.333307188  0.438106903
     0.222207240  0.666639902  0.438116137
     0.556084608  0.000044660  0.438063733
     0.555759186  0.333766340  0.438210665
     0.555686754  0.666759937  0.438171550
     0.889048332  0.000111007  0.437997348
     0.889276737  0.332742337  0.438205948
     0.889079901  0.666596318  0.438160762
     0.222290031  0.111318369  0.561692535
     0.222355658  0.444607610  0.561842521
     0.221844128  0.777367109  0.561992055
     0.555489383  0.110720452  0.561839307
     0.555398811  0.443850770  0.561930463
     0.555333042  0.778454328  0.561805420
     0.888381539  0.111179724  0.561664978
     0.888594772  0.444645600  0.561920164
     0.888994319  0.778292125  0.561783078
     0.221839859  0.999079848  0.317337101
     0.221789273  0.332779837  0.317031767
     0.222031827  0.665894031  0.317087310
     0.555230214  0.999666877  0.317211710
     0.555637866  0.332599502  0.317337549
     0.556187763  0.667215657  0.317282268
     0.889521819  0.000730378  0.317423606
     0.889317581  0.333811991  0.317024218
     0.888922044  0.666652913  0.317187288
     0.999478735  0.000134785  0.622273462
     0.000707109  0.333524374  0.622278264
     0.999555496  0.666513696  0.622519509
     0.332499794  0.000046708  0.622412249
     0.333349591  0.333326281  0.622347651
     0.333277697  0.666541727  0.622319127
     0.666375343  0.999625188  0.622602827
     0.666786749  0.334059597  0.622545988
     0.667183566  0.667006856  0.622415912
     0.000071942  0.222140498  0.377610011
     0.999733852  0.555338163  0.377774002
     0.999893530  0.888306505  0.377410476
     0.333363660  0.221802374  0.377662153
     0.333370360  0.555915131  0.377613080
     0.333232429  0.888340515  0.377640101
     0.667104972  0.221957371  0.377407918
     0.666482722  0.555238904  0.377639716
     0.666142281  0.888554040  0.377736137

  ion indices of the primitive-cell ions
   primitive index   ion index
                 1           1
                 2           2
                 3           3
                 4           4
                 5           5
                 6           6
                 7           7
                 8           8
                 9           9
                10          10
                11          11
                12          12
                13          13
                14          14
                15          15
                16          16
                17          17
                18          18
                19          19
                20          20
                21          21
                22          22
                23          23
                24          24
                25          25
                26          26
                27          27
                28          28
                29          29
                30          30
                31          31
                32          32
                33          33
                34          34
                35          35
                36          36
                37          37
                38          38
                39          39
                40          40
                41          41
                42          42
                43          43
                44          44
                45          45
                46          46
                47          47
                48          48
                49          49
                50          50
                51          51
                52          52
                53          53
                54          54

----------------------------------------------------------------------------------------

 
 

Automatic generation of k-mesh.
 generate k-points for:    3    3    1
Space group operators:
 irot       det(A)        alpha          n_x          n_y          n_z        tau_x        tau_y        tau_z
    1     1.000000     0.000001     1.000000     0.000000     0.000000     0.000000     0.000000     0.000000
 
 Subroutine IBZKPT returns following result:
 ===========================================
 
 Found      5 irreducible k-points:
 
 Following reciprocal coordinates:
            Coordinates               Weight
  0.000000  0.000000  0.000000      1.000000
  0.333333 -0.000000  0.000000      2.000000
  0.000000  0.333333 -0.000000      2.000000
  0.333333  0.333333 -0.000000      2.000000
 -0.333333  0.333333 -0.000000      2.000000
 
 Following cartesian coordinates:
            Coordinates               Weight
  0.000000  0.000000  0.000000      1.000000
  0.031406  0.017607  0.000108      2.000000
  0.000000  0.036502 -0.000492      2.000000
  0.031406  0.054109 -0.000384      2.000000
 -0.031406  0.018895 -0.000600      2.000000
 


--------------------------------------------------------------------------------------------------------




 Dimension of arrays:
   k-points           NKPTS =      5   k-points in BZ     NKDIM =      5   number of bands    NBANDS=    200
   number of dos      NEDOS =    301   number of ions     NIONS =     54
   non local maximal  LDIM  =      6   non local SUM 2l+1 LMDIM =     18
   total plane-waves  NPLWV = ******
   max r-space proj   IRMAX =      1   max aug-charges    IRDMAX=  36347
   dimension x,y,z NGX =    84 NGY =   80 NGZ =  240
   dimension x,y,z NGXF=   168 NGYF=  160 NGZF=  480
   support grid    NGXF=   168 NGYF=  160 NGZF=  480
   ions per type =              36  18
   NGX,Y,Z   is equivalent  to a cutoff of  13.16, 12.70, 13.50 a.u.
   NGXF,Y,Z  is equivalent  to a cutoff of  26.31, 25.41, 27.00 a.u.

 SYSTEM =  dpgen_md                                
 POSCAR =  Te Mo                                   

 Startparameter for this run:
   NWRITE =      2    write-flag & timer
   PREC   = a         normal or accurate (medium, high low for compatibility)
   ISTART =      0    job   : 0-new  1-cont  2-samecut
   ICHARG =      2    charge: 1-file 2-atom 10-const
   ISPIN  =      1    spin polarized calculation?
   LNONCOLLINEAR =      F non collinear calculations
   LSORBIT =      F    spin-orbit coupling
   INIWAV =      1    electr: 0-lowe 1-rand  2-diag
   LASPH  =      F    aspherical Exc in radial PAW
   METAGGA=      F    non-selfconsistent MetaGGA calc.

 Electronic Relaxation 1
   ENCUT  =  550.0 eV  40.42 Ry    6.36 a.u.  20.30 20.02 56.52*2*pi/ulx,y,z
   ENINI  =  550.0     initial cutoff
   ENAUG  =  368.8 eV  augmentation charge cutoff
   NELM   =    100;   NELMIN=  6; NELMDL= -5     # of ELM steps 
   EDIFF  = 0.1E-05   stopping-criterion for ELM
   LREAL  =      F    real-space projection
   NLSPLINE    = F    spline interpolate recip. space projectors
   LCOMPAT=      F    compatible to vasp.4.4
   GGA_COMPAT  = T    GGA compatible to vasp.4.4-vasp.4.6
   LMAXPAW     = -100 max onsite density
   LMAXMIX     =    2 max onsite mixed and CHGCAR
   VOSKOWN=      0    Vosko Wilk Nusair interpolation
   ROPT   =    0.00000   0.00000
 Ionic relaxation
   EDIFFG = 0.1E-04   stopping-criterion for IOM
   NSW    =     10    number of steps for IOM
   NBLOCK =      1;   KBLOCK =      1    inner block; outer block 
   IBRION =      0    ionic relax: 0-MD 1-quasi-New 2-CG
   NFREE  =      0    steps in history (QN), initial steepest desc. (CG)
   ISIF   =      2    stress and relaxation
   IWAVPR =     11    prediction:  0-non 1-charg 2-wave 3-comb
   ISYM   =      0    0-nonsym 1-usesym 2-fastsym
   LCORR  =      T    Harris-Foulkes like correction to forces

   POTIM  = 2.0000    time-step for ionic-motion
   TEIN   =  100.0    initial temperature
   TEBEG  =  100.0;   TEEND  = 100.0 temperature during run
   SMASS  =   0.04    Nose mass-parameter (am)
   estimated Nose-frequenzy (Omega)   =  0.79E+14 period in steps = 0.40E+02 mass=   0.327E-28a.u.
   SCALEE = 1.0000    scale energy and forces
   NPACO  =    256;   APACO  = 16.0  distance and # of slots for P.C.
   PSTRESS=    0.0 pullay stress

  Mass of Ions in am
   POMASS = 127.60 95.94
  Ionic Valenz
   ZVAL   =   6.00  6.00
  Atomic Wigner-Seitz radii
   RWIGS  =  -1.00 -1.00
  virtual crystal weights 
   VCA    =   1.00  1.00
   NELECT =     324.0000    total number of electrons
   NUPDOWN=      -1.0000    fix difference up-down

 DOS related values:
   EMIN   =  10.00;   EMAX   =-10.00  energy-range for DOS
   EFERMI =   0.00
   ISMEAR =     0;   SIGMA  =   0.10  broadening in eV -4-tet -1-fermi 0-gaus

 Electronic relaxation 2 (details)
   IALGO  =     68    algorithm
   LDIAG  =      T    sub-space diagonalisation (order eigenvalues)
   LSUBROT=      F    optimize rotation matrix (better conditioning)
   TURBO    =      0    0=normal 1=particle mesh
   IRESTART =      0    0=no restart 2=restart with 2 vectors
   NREBOOT  =      0    no. of reboots
   NMIN     =      0    reboot dimension
   EREF     =   0.00    reference energy to select bands
   IMIX   =      4    mixing-type and parameters
     AMIX     =   0.40;   BMIX     =  1.00
     AMIX_MAG =   1.60;   BMIX_MAG =  1.00
     AMIN     =   0.10
     WC   =   100.;   INIMIX=   1;  MIXPRE=   1;  MAXMIX= -45

 Intra band minimization:
   WEIMIN = 0.0010     energy-eigenvalue tresh-hold
   EBREAK =  0.13E-08  absolut break condition
   DEPER  =   0.30     relativ break condition  

   TIME   =   0.40     timestep for ELM

  volume/ion in A,a.u.               =      53.04       357.95
  Fermi-wavevector in a.u.,A,eV,Ry     =   0.791743  1.496177  8.528904  0.626857
  Thomas-Fermi vector in A             =   1.897344
 
 Write flags
   LWAVE        =      F    write WAVECAR
   LDOWNSAMPLE  =      F    k-point downsampling of WAVECAR
   LCHARG       =      F    write CHGCAR
   LVTOT        =      F    write LOCPOT, total local potential
   LVHAR        =      F    write LOCPOT, Hartree potential only
   LELF         =      F    write electronic localiz. function (ELF)
   LORBIT       =      0    0 simple, 1 ext, 2 COOP (PROOUT), +10 PAW based schemes


 Dipole corrections
   LMONO  =      F    monopole corrections only (constant potential shift)
   LDIPOL =      F    correct potential (dipole corrections)
   IDIPOL =      0    1-x, 2-y, 3-z, 4-all directions 
   EPSILON=  1.0000000 bulk dielectric constant

 Exchange correlation treatment:
   GGA     =    --    GGA type
   LEXCH   =     8    internal setting for exchange type
   VOSKOWN=      0    Vosko Wilk Nusair interpolation
   LHFCALC =     F    Hartree Fock is set to
   LHFONE  =     F    Hartree Fock one center treatment
   AEXX    =    0.0000 exact exchange contribution

 Linear response parameters
   LEPSILON=     F    determine dielectric tensor
   LRPA    =     F    only Hartree local field effects (RPA)
   LNABLA  =     F    use nabla operator in PAW spheres
   LVEL    =     F    velocity operator in full k-point grid
   LINTERFAST=   F  fast interpolation
   KINTER  =     0    interpolate to denser k-point grid
   CSHIFT  =0.1000    complex shift for real part using Kramers Kronig
   OMEGAMAX=  -1.0    maximum frequency
   DEG_THRESHOLD= 0.2000000E-02 threshold for treating states as degnerate
   RTIME   =   -0.100 relaxation time in fs
  (WPLASMAI=    0.000 imaginary part of plasma frequency in eV, 0.658/RTIME)
   DFIELD  = 0.0000000 0.0000000 0.0000000 field for delta impulse in time
 
 Orbital magnetization related:
   ORBITALMAG=     F  switch on orbital magnetization
   LCHIMAG   =     F  perturbation theory with respect to B field
   DQ        =  0.001000  dq finite difference perturbation B field
   LLRAUG    =     F  two centre corrections for induced B field



--------------------------------------------------------------------------------------------------------


 molecular dynamics for ions
   using nose mass (canonical ensemble)
 charge density and potential will be updated during run
 non-spin polarized calculation
 RMM-DIIS sequential band-by-band and
  variant of blocked Davidson during initial phase
 perform sub-space diagonalisation
    before iterative eigenvector-optimisation
 modified Broyden-mixing scheme, WC =      100.0
 initial mixing is a Kerker type mixing with AMIX =  0.4000 and BMIX =      1.0000
 Hartree-type preconditioning will be used
 using additional bands           38
 reciprocal scheme for non local part
 use partial core corrections
 calculate Harris-corrections to forces 
   (improved forces if not selfconsistent)
 use gradient corrections 
 use of overlap-Matrix (Vanderbilt PP)
 Gauss-broadening in eV      SIGMA  =   0.10


--------------------------------------------------------------------------------------------------------


  energy-cutoff  :      550.00
  volume of cell :     2864.29
      direct lattice vectors                 reciprocal lattice vectors
    10.613772835  0.000000000  0.000000000     0.094217204  0.052820447  0.000323193
    -5.119610248  9.131981895  0.000000000     0.000000000  0.109505254 -0.001475485
    -0.324601849  0.398182527 29.551682882     0.000000000  0.000000000  0.033839020

  length of vectors
    10.613772835 10.469169137 29.556147869     0.108013821  0.109515194  0.033839020


 
 k-points in units of 2pi/SCALE and weight: read from INCAR                         
   0.00000000  0.00000000  0.00000000       0.111
   0.03140573  0.01760682  0.00010773       0.222
   0.00000000  0.03650175 -0.00049183       0.222
   0.03140573  0.05410857 -0.00038410       0.222
  -0.03140573  0.01889494 -0.00059956       0.222
 
 k-points in reciprocal lattice and weights: read from INCAR                         
   0.00000000  0.00000000  0.00000000       0.111
   0.33333333 -0.00000000  0.00000000       0.222
   0.00000000  0.33333333 -0.00000000       0.222
   0.33333333  0.33333333 -0.00000000       0.222
  -0.33333333  0.33333333 -0.00000000       0.222
 
 position of ions in fractional coordinates (direct lattice) 
   0.22191579  0.11100689  0.68271242
   0.22223435  0.44480651  0.68292241
   0.22139297  0.77681432  0.68283771
   0.55507107  0.11083874  0.68289268
   0.55561959  0.44456316  0.68280257
   0.55560227  0.77800456  0.68272606
   0.88864402  0.11111741  0.68265375
   0.88855516  0.44473786  0.68296717
   0.88899562  0.77725934  0.68269737
   0.22225118  0.00010456  0.43815106
   0.22213260  0.33330719  0.43810690
   0.22220724  0.66663990  0.43811614
   0.55608461  0.00004466  0.43806373
   0.55575919  0.33376634  0.43821066
   0.55568675  0.66675994  0.43817155
   0.88904833  0.00011101  0.43799735
   0.88927674  0.33274234  0.43820595
   0.88907990  0.66659632  0.43816076
   0.22229003  0.11131837  0.56169253
   0.22235566  0.44460761  0.56184252
   0.22184413  0.77736711  0.56199205
   0.55548938  0.11072045  0.56183931
   0.55539881  0.44385077  0.56193046
   0.55533304  0.77845433  0.56180542
   0.88838154  0.11117972  0.56166498
   0.88859477  0.44464560  0.56192016
   0.88899432  0.77829212  0.56178308
   0.22183986  0.99907985  0.31733710
   0.22178927  0.33277984  0.31703177
   0.22203183  0.66589403  0.31708731
   0.55523021  0.99966688  0.31721171
   0.55563787  0.33259950  0.31733755
   0.55618776  0.66721566  0.31728227
   0.88952182  0.00073038  0.31742361
   0.88931758  0.33381199  0.31702422
   0.88892204  0.66665291  0.31718729
   0.99947874  0.00013478  0.62227346
   0.00070711  0.33352437  0.62227826
   0.99955550  0.66651370  0.62251951
   0.33249979  0.00004671  0.62241225
   0.33334959  0.33332628  0.62234765
   0.33327770  0.66654173  0.62231913
   0.66637534  0.99962519  0.62260283
   0.66678675  0.33405960  0.62254599
   0.66718357  0.66700686  0.62241591
   0.00007194  0.22214050  0.37761001
   0.99973385  0.55533816  0.37777400
   0.99989353  0.88830650  0.37741048
   0.33336366  0.22180237  0.37766215
   0.33337036  0.55591513  0.37761308
   0.33323243  0.88834051  0.37764010
   0.66710497  0.22195737  0.37740792
   0.66648272  0.55523890  0.37763972
   0.66614228  0.88855404  0.37773614
 
 position of ions in cartesian coordinates  (Angst):
   1.56544211  1.28555705 20.17530089
  -0.14016900  4.33389281 20.18150639
  -1.84882221  7.36574837 20.17900354
   5.10227888  1.28409326 20.18062792
   3.39959097  4.33162281 20.17796490
   1.69234199  7.37657313 20.17570408
   8.64139727  1.28654301 20.17356722
   6.93234572  4.33328364 20.18282931
   5.23472790  7.36975636 20.17485629
   2.21616361  0.17541893 12.94810120
   0.50905176  3.21820172 12.94679627
  -1.19669261  6.26219371 12.94706914
   5.75973077  0.17483716 12.94552053
   4.04770418  3.22243601 12.94986260
   2.34215067  6.26331193 12.94870669
   9.29341397  0.17541661 12.94355872
   7.59282773  3.21308295 12.94972322
   5.88155097  6.26181346 12.94838788
   1.60710279  1.24021348 16.59895966
  -0.09856035  4.28386452 16.60339201
  -1.80763710  7.32267778 16.60781099
   5.14661848  1.23481176 16.60329703
   3.44013019  4.27698809 16.60599085
   1.72643293  7.33253193 16.60229562
   8.67756550  1.23893640 16.59814532
   6.97253056  4.28424236 16.60568648
   5.26867558  7.33104180 16.60163537
  -2.86334977  9.24993717  9.37784537
   0.54740880  3.16517595  9.36882224
  -1.15544966  6.20719086  9.37046362
   0.67221506  9.25524798  9.37413985
   4.09162591  3.16365090  9.37785862
   2.38437604  6.21933755  9.37622498
   9.33440698  0.13306233  9.38040174
   7.62712084  3.17459856  9.36859916
   5.91885398  6.21416076  9.37341815
  10.40555909  0.24900927 18.38922803
  -1.90200238  3.29351888 18.38936994
   6.99469364  6.33446740 18.39649911
   3.32680198  0.24826022 18.39332942
   1.62958099  3.29173753 18.39142042
  -0.07710603  6.33464358 18.39057748
   1.75296713  9.37646869 18.39896130
   5.16478857  3.29851313 18.39728162
   3.46448232  6.33892967 18.39343765
  -1.25908211  2.17894072 11.15901130
   7.64520691  5.22176106 11.16385751
   5.94235156  8.26227718 11.15311471
   2.28011462  2.17587373 11.16055218
   0.56967457  5.22696584 11.15910200
  -1.13368658  8.26267919 11.15990050
   5.82165809  2.17718793 11.15303911
   4.10870688  5.22080116 11.15988913
   2.39861862  8.26466733 11.16273853
 


--------------------------------------------------------------------------------------------------------


 k-point   1 :   0.0000 0.0000 0.0000  plane waves:   83859
 k-point   2 :   0.3333-0.0000 0.0000  plane waves:   83830
 k-point   3 :   0.0000 0.3333-0.0000  plane waves:   83902
 k-point   4 :   0.3333 0.3333-0.0000  plane waves:   83896
 k-point   5 :  -0.3333 0.3333-0.0000  plane waves:   83928

 maximum and minimum number of plane-waves per node :     83928    83830

 maximum number of plane-waves:     83928
 maximum index in each direction: 
   IXMAX=   20   IYMAX=   20   IZMAX=   56
   IXMIN=  -20   IYMIN=  -20   IZMIN=  -56


 serial   3D FFT for wavefunctions
 parallel 3D FFT for charge:
    minimum data exchange during FFTs selected (reduces bandwidth)


 total amount of memory used by VASP MPI-rank0   363357. kBytes
=======================================================================

   base      :      30000. kBytes
   nonl-proj :     193443. kBytes
   fftplans  :      18984. kBytes
   grid      :      86187. kBytes
   one-center:        839. kBytes
   wavefun   :      33904. kBytes
 
     INWAV:  cpu time    0.0001: real time    0.0001
 Broyden mixing: mesh for mixing (old mesh)
   NGX = 41   NGY = 41   NGZ =113
  (NGX  =168   NGY  =160   NGZ  =480)
  gives a total of 189953 points

 initial charge density was supplied:
 charge density of overlapping atoms calculated
 number of electron     324.0000000 magnetization 
 keeping initial charge density in first step


--------------------------------------------------------------------------------------------------------


 Maximum index for augmentation-charges         2211 (set IRDMAX)


--------------------------------------------------------------------------------------------------------


 First call to EWALD:  gamma=   0.125
 Maximum number of real-space cells 4x 4x 2
 Maximum number of reciprocal cells 2x 2x 5

    FEWALD:  cpu time    0.0022: real time    0.0023


--------------------------------------- Iteration      1(   1)  ---------------------------------------


    POTLOK:  cpu time    0.3117: real time    0.3130
    SETDIJ:  cpu time    0.0140: real time    0.0142
     EDDAV:  cpu time   47.7586: real time   47.8644
       DOS:  cpu time    0.0009: real time    0.0011
    --------------------------------------------
      LOOP:  cpu time   48.0852: real time   48.1927

 eigenvalue-minimisations  :  2000
 total energy-change (2. order) : 0.2116610E+04  (-0.1155519E+05)
 number of electron     324.0000000 magnetization 
 augmentation part      324.0000000 magnetization 

 Free energy of the ion-electron system (eV)
  ---------------------------------------------------
  alpha Z        PSCENC =       250.55636053
  Ewald energy   TEWEN  =     58573.71868234
  -Hartree energ DENC   =    -70272.35204783
  -exchange      EXHF   =         0.00000000
  -V(xc)+E(xc)   XCENC  =     -2099.46513134
  PAW double counting   =      7476.04436201    -4809.59211051
  entropy T*S    EENTRO =        -0.12958925
  eigenvalues    EBANDS =      1044.74655786
  atomic energy  EATOM  =     11953.08265402
  Solvation  Ediel_sol  =         0.00000000
  ---------------------------------------------------
  free energy    TOTEN  =      2116.60973783 eV

  energy without entropy =     2116.73932708  energy(sigma->0) =     2116.67453246


--------------------------------------------------------------------------------------------------------




--------------------------------------- Iteration      1(   2)  ---------------------------------------


     EDDAV:  cpu time   66.3144: real time   66.4856
       DOS:  cpu time    0.0006: real time    0.0006
    --------------------------------------------
      LOOP:  cpu time   66.3150: real time   66.4862

 eigenvalue-minimisations  :  3000
 total energy-change (2. order) :-0.2214717E+04  (-0.2132962E+04)
 number of electron     324.0000000 magnetization 
 augmentation part      324.0000000 magnetization 

 Free energy of the ion-electron system (eV)
  ---------------------------------------------------
  alpha Z        PSCENC =       250.55636053
  Ewald energy   TEWEN  =     58573.71868234
  -Hartree energ DENC   =    -70272.35204783
  -exchange      EXHF   =         0.00000000
  -V(xc)+E(xc)   XCENC  =     -2099.46513134
  PAW double counting   =      7476.04436201    -4809.59211051
  entropy T*S    EENTRO =        -0.00009200
  eigenvalues    EBANDS =     -1170.09948830
  atomic energy  EATOM  =     11953.08265402
  Solvation  Ediel_sol  =         0.00000000
  ---------------------------------------------------
  free energy    TOTEN  =       -98.10681107 eV

  energy without entropy =      -98.10671907  energy(sigma->0) =      -98.10676507


--------------------------------------------------------------------------------------------------------




--------------------------------------- Iteration      1(   3)  ---------------------------------------


     EDDAV:  cpu time   57.6239: real time   57.7262
       DOS:  cpu time    0.0004: real time    0.0004
    --------------------------------------------
      LOOP:  cpu time   57.6243: real time   57.7266

 eigenvalue-minimisations  :  2520
 total energy-change (2. order) :-0.2260283E+03  (-0.2226278E+03)
 number of electron     324.0000000 magnetization 
 augmentation part      324.0000000 magnetization 

 Free energy of the ion-electron system (eV)
  ---------------------------------------------------
  alpha Z        PSCENC =       250.55636053
  Ewald energy   TEWEN  =     58573.71868234
  -Hartree energ DENC   =    -70272.35204783
  -exchange      EXHF   =         0.00000000
  -V(xc)+E(xc)   XCENC  =     -2099.46513134
  PAW double counting   =      7476.04436201    -4809.59211051
  entropy T*S    EENTRO =        -0.00000000
  eigenvalues    EBANDS =     -1396.12783577
  atomic energy  EATOM  =     11953.08265402
  Solvation  Ediel_sol  =         0.00000000
  ---------------------------------------------------
  free energy    TOTEN  =      -324.13506654 eV

  energy without entropy =     -324.13506654  energy(sigma->0) =     -324.13506654


--------------------------------------------------------------------------------------------------------




--------------------------------------- Iteration      1(   4)  ---------------------------------------


     EDDAV:  cpu time   67.9833: real time   68.0965
       DOS:  cpu time    0.0004: real time    0.0004
    --------------------------------------------
      LOOP:  cpu time   67.9836: real time   68.0968

 eigenvalue-minimisations  :  3080
 total energy-change (2. order) :-0.1142219E+02  (-0.1134122E+02)
 number of electron     324.0000000 magnetization 
 augmentation part      324.0000000 magnetization 

 Free energy of the ion-electron system (eV)
  ---------------------------------------------------
  alpha Z        PSCENC =       250.55636053
  Ewald energy   TEWEN  =     58573.71868234
  -Hartree energ DENC   =    -70272.35204783
  -exchange      EXHF   =         0.00000000
  -V(xc)+E(xc)   XCENC  =     -2099.46513134
  PAW double counting   =      7476.04436201    -4809.59211051
  entropy T*S    EENTRO =        -0.00000000
  eigenvalues    EBANDS =     -1407.55002888
  atomic energy  EATOM  =     11953.08265402
  Solvation  Ediel_sol  =         0.00000000
  ---------------------------------------------------
  free energy    TOTEN  =      -335.55725965 eV

  energy without entropy =     -335.55725965  energy(sigma->0) =     -335.55725965


--------------------------------------------------------------------------------------------------------




--------------------------------------- Iteration      1(   5)  ---------------------------------------


     EDDAV:  cpu time   65.6515: real time   65.7794
       DOS:  cpu time    0.0004: real time    0.0004
    CHARGE:  cpu time    1.1568: real time    1.1620
    MIXING:  cpu time    0.0072: real time    0.0076
    --------------------------------------------
      LOOP:  cpu time   66.8158: real time   66.9494

 eigenvalue-minimisations  :  2960
 total energy-change (2. order) :-0.3166446E+00  (-0.3161276E+00)
 number of electron     324.0000001 magnetization 
 augmentation part      -25.4280499 magnetization 

 Broyden mixing:
  rms(total) = 0.18896E+01    rms(broyden)= 0.18896E+01
  rms(prec ) = 0.20013E+01
  weight for this iteration     100.00

 Free energy of the ion-electron system (eV)
  ---------------------------------------------------
  alpha Z        PSCENC =       250.55636053
  Ewald energy   TEWEN  =     58573.71868234
  -Hartree energ DENC   =    -70272.35204783
  -exchange      EXHF   =         0.00000000
  -V(xc)+E(xc)   XCENC  =     -2099.46513134
  PAW double counting   =      7476.04436201    -4809.59211051
  entropy T*S    EENTRO =        -0.00000000
  eigenvalues    EBANDS =     -1407.86667349
  atomic energy  EATOM  =     11953.08265402
  Solvation  Ediel_sol  =         0.00000000
  ---------------------------------------------------
  free energy    TOTEN  =      -335.87390426 eV

  energy without entropy =     -335.87390426  energy(sigma->0) =     -335.87390426


--------------------------------------------------------------------------------------------------------




--------------------------------------- Iteration      1(   6)  ---------------------------------------


    POTLOK:  cpu time    0.2765: real time    0.2768
    SETDIJ:  cpu time    0.0121: real time    0.0121
    EDDIAG:  cpu time    2.5257: real time    2.5410
  RMM-DIIS:  cpu time   41.5324: real time   41.6174
    ORTHCH:  cpu time    0.2293: real time    0.2295
       DOS:  cpu time    0.0006: real time    0.0006
    CHARGE:  cpu time    1.1635: real time    1.1646
    MIXING:  cpu time    0.0071: real time    0.0072
    --------------------------------------------
      LOOP:  cpu time   45.7471: real time   45.8492

 eigenvalue-minimisations  :  2135
 total energy-change (2. order) : 0.8732453E+01  (-0.5049846E+01)
 number of electron     324.0000002 magnetization 
 augmentation part      -20.0820532 magnetization 

 Broyden mixing:
  rms(total) = 0.70251E+00    rms(broyden)= 0.70251E+00
  rms(prec ) = 0.80926E+00
  weight for this iteration     100.00

 eigenvalues of (default mixing * dielectric matrix)
  average eigenvalue GAMMA=   1.0706
  1.0706

 Free energy of the ion-electron system (eV)
  ---------------------------------------------------
  alpha Z        PSCENC =       250.55636053
  Ewald energy   TEWEN  =     58573.71868234
  -Hartree energ DENC   =    -70251.97154711
  -exchange      EXHF   =         0.00000000
  -V(xc)+E(xc)   XCENC  =     -2092.90858315
  PAW double counting   =      7710.55019935    -5055.83987402
  entropy T*S    EENTRO =        -0.00000000
  eigenvalues    EBANDS =     -1414.32934324
  atomic energy  EATOM  =     11953.08265402
  Solvation  Ediel_sol  =         0.00000000
  ---------------------------------------------------
  free energy    TOTEN  =      -327.14145127 eV

  energy without entropy =     -327.14145127  energy(sigma->0) =     -327.14145127


--------------------------------------------------------------------------------------------------------




--------------------------------------- Iteration      1(   7)  ---------------------------------------


    POTLOK:  cpu time    0.2696: real time    0.2742
    SETDIJ:  cpu time    0.0120: real time    0.0120
    EDDIAG:  cpu time    2.5294: real time    2.5319
  RMM-DIIS:  cpu time   38.1209: real time   38.2070
    ORTHCH:  cpu time    0.2170: real time    0.2175
       DOS:  cpu time    0.0004: real time    0.0004
    CHARGE:  cpu time    1.1612: real time    1.1662
    MIXING:  cpu time    0.0071: real time    0.0071
    --------------------------------------------
      LOOP:  cpu time   42.3176: real time   42.4164

 eigenvalue-minimisations  :  2007
 total energy-change (2. order) : 0.3050770E+01  (-0.9827233E+00)
 number of electron     324.0000002 magnetization 
 augmentation part      -21.7058975 magnetization 

 Broyden mixing:
  rms(total) = 0.46145E+00    rms(broyden)= 0.46145E+00
  rms(prec ) = 0.48960E+00
  weight for this iteration     100.00

 eigenvalues of (default mixing * dielectric matrix)
  average eigenvalue GAMMA=   1.4928
  0.7501  2.2355

 Free energy of the ion-electron system (eV)
  ---------------------------------------------------
  alpha Z        PSCENC =       250.55636053
  Ewald energy   TEWEN  =     58573.71868234
  -Hartree energ DENC   =    -70336.86804195
  -exchange      EXHF   =         0.00000000
  -V(xc)+E(xc)   XCENC  =     -2091.38033353
  PAW double counting   =      8017.74898469    -5368.45676236
  entropy T*S    EENTRO =        -0.00000000
  eigenvalues    EBANDS =     -1322.49222523
  atomic energy  EATOM  =     11953.08265402
  Solvation  Ediel_sol  =         0.00000000
  ---------------------------------------------------
  free energy    TOTEN  =      -324.09068148 eV

  energy without entropy =     -324.09068148  energy(sigma->0) =     -324.09068148


--------------------------------------------------------------------------------------------------------




--------------------------------------- Iteration      1(   8)  ---------------------------------------


    POTLOK:  cpu time    0.2752: real time    0.2754
    SETDIJ:  cpu time    0.0120: real time    0.0120
    EDDIAG:  cpu time    2.5151: real time    2.5178
  RMM-DIIS:  cpu time   38.5903: real time   38.6734
    ORTHCH:  cpu time    0.2126: real time    0.2129
       DOS:  cpu time    0.0004: real time    0.0004
    CHARGE:  cpu time    1.1624: real time    1.1635
    MIXING:  cpu time    0.0071: real time    0.0071
    --------------------------------------------
      LOOP:  cpu time   42.7752: real time   42.8626

 eigenvalue-minimisations  :  2020
 total energy-change (2. order) : 0.4199946E+00  (-0.7262747E+00)
 number of electron     324.0000002 magnetization 
 augmentation part      -21.5470998 magnetization 

 Broyden mixing:
  rms(total) = 0.14193E+00    rms(broyden)= 0.14193E+00
  rms(prec ) = 0.16484E+00
  weight for this iteration     100.00

 eigenvalues of (default mixing * dielectric matrix)
  average eigenvalue GAMMA=   1.2329
  2.1910  0.7539  0.7539

 Free energy of the ion-electron system (eV)
  ---------------------------------------------------
  alpha Z        PSCENC =       250.55636053
  Ewald energy   TEWEN  =     58573.71868234
  -Hartree energ DENC   =    -70397.63538060
  -exchange      EXHF   =         0.00000000
  -V(xc)+E(xc)   XCENC  =     -2087.42134423
  PAW double counting   =      8348.34576695    -5705.68260270
  entropy T*S    EENTRO =        -0.00000000
  eigenvalues    EBANDS =     -1258.63482317
  atomic energy  EATOM  =     11953.08265402
  Solvation  Ediel_sol  =         0.00000000
  ---------------------------------------------------
  free energy    TOTEN  =      -323.67068685 eV

  energy without entropy =     -323.67068685  energy(sigma->0) =     -323.67068685


--------------------------------------------------------------------------------------------------------




--------------------------------------- Iteration      1(   9)  ---------------------------------------


    POTLOK:  cpu time    0.2679: real time    0.2681
    SETDIJ:  cpu time    0.0120: real time    0.0120
    EDDIAG:  cpu time    2.5156: real time    2.5221
  RMM-DIIS:  cpu time   43.3966: real time   43.4877
    ORTHCH:  cpu time    0.2287: real time    0.2448
       DOS:  cpu time    0.0004: real time    0.0004
    CHARGE:  cpu time    1.1630: real time    1.1641
    MIXING:  cpu time    0.0073: real time    0.0073
    --------------------------------------------
      LOOP:  cpu time   47.5915: real time   47.7067

 eigenvalue-minimisations  :  2233
 total energy-change (2. order) :-0.1975563E-01  (-0.1222140E+00)
 number of electron     324.0000002 magnetization 
 augmentation part      -21.2463217 magnetization 

 Broyden mixing:
  rms(total) = 0.10115E+00    rms(broyden)= 0.10115E+00
  rms(prec ) = 0.11363E+00
  weight for this iteration     100.00

 eigenvalues of (default mixing * dielectric matrix)
  average eigenvalue GAMMA=   1.1482
  2.0299  1.3894  0.7688  0.4049

 Free energy of the ion-electron system (eV)
  ---------------------------------------------------
  alpha Z        PSCENC =       250.55636053
  Ewald energy   TEWEN  =     58573.71868234
  -Hartree energ DENC   =    -70394.73275730
  -exchange      EXHF   =         0.00000000
  -V(xc)+E(xc)   XCENC  =     -2087.16746445
  PAW double counting   =      8345.18670851    -5702.58609820
  entropy T*S    EENTRO =        -0.00000000
  eigenvalues    EBANDS =     -1261.74852793
  atomic energy  EATOM  =     11953.08265402
  Solvation  Ediel_sol  =         0.00000000
  ---------------------------------------------------
  free energy    TOTEN  =      -323.69044247 eV

  energy without entropy =     -323.69044247  energy(sigma->0) =     -323.69044247


--------------------------------------------------------------------------------------------------------




--------------------------------------- Iteration      1(  10)  ---------------------------------------


    POTLOK:  cpu time    0.2743: real time    0.2787
    SETDIJ:  cpu time    0.0120: real time    0.0120
    EDDIAG:  cpu time    2.5382: real time    2.5409
  RMM-DIIS:  cpu time   43.2250: real time   43.3136
    ORTHCH:  cpu time    0.2271: real time    0.2274
       DOS:  cpu time    0.0004: real time    0.0004
    CHARGE:  cpu time    1.1555: real time    1.1567
    MIXING:  cpu time    0.0085: real time    0.0086
    --------------------------------------------
      LOOP:  cpu time   47.4412: real time   47.5384

 eigenvalue-minimisations  :  2244
 total energy-change (2. order) : 0.4310815E-02  (-0.4422711E-01)
 number of electron     324.0000002 magnetization 
 augmentation part      -20.9874404 magnetization 

 Broyden mixing:
  rms(total) = 0.70228E-01    rms(broyden)= 0.70228E-01
  rms(prec ) = 0.78780E-01
  weight for this iteration     100.00

 eigenvalues of (default mixing * dielectric matrix)
  average eigenvalue GAMMA=   1.2855
  2.3972  1.7730  0.9372  0.9372  0.3830

 Free energy of the ion-electron system (eV)
  ---------------------------------------------------
  alpha Z        PSCENC =       250.55636053
  Ewald energy   TEWEN  =     58573.71868234
  -Hartree energ DENC   =    -70394.49087382
  -exchange      EXHF   =         0.00000000
  -V(xc)+E(xc)   XCENC  =     -2086.94018182
  PAW double counting   =      8352.12688783    -5709.46663465
  entropy T*S    EENTRO =        -0.00000000
  eigenvalues    EBANDS =     -1262.27302609
  atomic energy  EATOM  =     11953.08265402
  Solvation  Ediel_sol  =         0.00000000
  ---------------------------------------------------
  free energy    TOTEN  =      -323.68613166 eV

  energy without entropy =     -323.68613166  energy(sigma->0) =     -323.68613166


--------------------------------------------------------------------------------------------------------




--------------------------------------- Iteration      1(  11)  ---------------------------------------


    POTLOK:  cpu time    0.2755: real time    0.2758
    SETDIJ:  cpu time    0.0119: real time    0.0119
    EDDIAG:  cpu time    2.5156: real time    2.5267
  RMM-DIIS:  cpu time   40.5289: real time   40.6253
    ORTHCH:  cpu time    0.2128: real time    0.2132
       DOS:  cpu time    0.0004: real time    0.0004
    CHARGE:  cpu time    1.1936: real time    1.1947
    MIXING:  cpu time    0.0077: real time    0.0077
    --------------------------------------------
      LOOP:  cpu time   44.7466: real time   44.8557

 eigenvalue-minimisations  :  2116
 total energy-change (2. order) : 0.1322160E-01  (-0.1465902E-01)
 number of electron     324.0000002 magnetization 
 augmentation part      -21.2531426 magnetization 

 Broyden mixing:
  rms(total) = 0.34248E-01    rms(broyden)= 0.34248E-01
  rms(prec ) = 0.39691E-01
  weight for this iteration     100.00

 eigenvalues of (default mixing * dielectric matrix)
  average eigenvalue GAMMA=   1.2038
  2.5625  1.7123  1.2133  0.8128  0.5428  0.3792

 Free energy of the ion-electron system (eV)
  ---------------------------------------------------
  alpha Z        PSCENC =       250.55636053
  Ewald energy   TEWEN  =     58573.71868234
  -Hartree energ DENC   =    -70411.96555065
  -exchange      EXHF   =         0.00000000
  -V(xc)+E(xc)   XCENC  =     -2086.63971767
  PAW double counting   =      8403.12452671    -5760.77123363
  entropy T*S    EENTRO =        -0.00000000
  eigenvalues    EBANDS =     -1244.77863172
  atomic energy  EATOM  =     11953.08265402
  Solvation  Ediel_sol  =         0.00000000
  ---------------------------------------------------
  free energy    TOTEN  =      -323.67291006 eV

  energy without entropy =     -323.67291006  energy(sigma->0) =     -323.67291006


--------------------------------------------------------------------------------------------------------




--------------------------------------- Iteration      1(  12)  ---------------------------------------


    POTLOK:  cpu time    0.2739: real time    0.2741
    SETDIJ:  cpu time    0.0120: real time    0.0120
    EDDIAG:  cpu time    2.5151: real time    2.5257
  RMM-DIIS:  cpu time   49.8199: real time   49.9121
    ORTHCH:  cpu time    0.2142: real time    0.2146
       DOS:  cpu time    0.0004: real time    0.0004
    CHARGE:  cpu time    1.1782: real time    1.1791
    MIXING:  cpu time    0.0104: real time    0.0104
    --------------------------------------------
      LOOP:  cpu time   54.0240: real time   54.1286

 eigenvalue-minimisations  :  2584
 total energy-change (2. order) :-0.1279176E-02  (-0.4552531E-02)
 number of electron     324.0000002 magnetization 
 augmentation part      -21.2803344 magnetization 

 Broyden mixing:
  rms(total) = 0.26310E-01    rms(broyden)= 0.26310E-01
  rms(prec ) = 0.30391E-01
  weight for this iteration     100.00

 eigenvalues of (default mixing * dielectric matrix)
  average eigenvalue GAMMA=   1.1846
  2.4906  1.6931  1.6931  0.8184  0.8184  0.4073  0.3715

 Free energy of the ion-electron system (eV)
  ---------------------------------------------------
  alpha Z        PSCENC =       250.55636053
  Ewald energy   TEWEN  =     58573.71868234
  -Hartree energ DENC   =    -70415.96214841
  -exchange      EXHF   =         0.00000000
  -V(xc)+E(xc)   XCENC  =     -2086.54280236
  PAW double counting   =      8409.01051248    -5766.69490002
  entropy T*S    EENTRO =        -0.00000000
  eigenvalues    EBANDS =     -1240.84254783
  atomic energy  EATOM  =     11953.08265402
  Solvation  Ediel_sol  =         0.00000000
  ---------------------------------------------------
  free energy    TOTEN  =      -323.67418924 eV

  energy without entropy =     -323.67418924  energy(sigma->0) =     -323.67418924


--------------------------------------------------------------------------------------------------------




--------------------------------------- Iteration      1(  13)  ---------------------------------------


    POTLOK:  cpu time    0.2778: real time    0.2780
    SETDIJ:  cpu time    0.0119: real time    0.0119
    EDDIAG:  cpu time    2.5038: real time    2.5189
  RMM-DIIS:  cpu time   44.9996: real time   45.1184
    ORTHCH:  cpu time    0.2200: real time    0.2202
       DOS:  cpu time    0.0004: real time    0.0004
    CHARGE:  cpu time    1.1849: real time    1.1860
    MIXING:  cpu time    0.0105: real time    0.0105
    --------------------------------------------
      LOOP:  cpu time   49.2088: real time   49.3443

 eigenvalue-minimisations  :  2327
 total energy-change (2. order) : 0.1705494E-02  (-0.2250076E-02)
 number of electron     324.0000002 magnetization 
 augmentation part      -21.1755432 magnetization 

 Broyden mixing:
  rms(total) = 0.90550E-02    rms(broyden)= 0.90549E-02
  rms(prec ) = 0.12202E-01
  weight for this iteration     100.00

 eigenvalues of (default mixing * dielectric matrix)
  average eigenvalue GAMMA=   1.2616
  2.4119  2.4119  1.7877  1.0987  0.8011  0.8011  0.3714  0.4090

 Free energy of the ion-electron system (eV)
  ---------------------------------------------------
  alpha Z        PSCENC =       250.55636053
  Ewald energy   TEWEN  =     58573.71868234
  -Hartree energ DENC   =    -70417.87695991
  -exchange      EXHF   =         0.00000000
  -V(xc)+E(xc)   XCENC  =     -2086.47514726
  PAW double counting   =      8403.40346818    -5761.04347600
  entropy T*S    EENTRO =        -0.00000000
  eigenvalues    EBANDS =     -1239.03806566
  atomic energy  EATOM  =     11953.08265402
  Solvation  Ediel_sol  =         0.00000000
  ---------------------------------------------------
  free energy    TOTEN  =      -323.67248374 eV

  energy without entropy =     -323.67248374  energy(sigma->0) =     -323.67248374


--------------------------------------------------------------------------------------------------------




--------------------------------------- Iteration      1(  14)  ---------------------------------------


    POTLOK:  cpu time    0.2786: real time    0.2789
    SETDIJ:  cpu time    0.0120: real time    0.0120
    EDDIAG:  cpu time    2.5168: real time    2.5196
  RMM-DIIS:  cpu time   49.6877: real time   49.7879
    ORTHCH:  cpu time    0.2233: real time    0.2235
       DOS:  cpu time    0.0005: real time    0.0005
    CHARGE:  cpu time    1.1687: real time    1.1770
    MIXING:  cpu time    0.0124: real time    0.0124
    --------------------------------------------
      LOOP:  cpu time   53.8999: real time   54.0117

 eigenvalue-minimisations  :  2555
 total energy-change (2. order) :-0.9593856E-03  (-0.7769556E-03)
 number of electron     324.0000002 magnetization 
 augmentation part      -21.1552155 magnetization 

 Broyden mixing:
  rms(total) = 0.95739E-02    rms(broyden)= 0.95739E-02
  rms(prec ) = 0.11971E-01
  weight for this iteration     100.00

 eigenvalues of (default mixing * dielectric matrix)
  average eigenvalue GAMMA=   1.2971
  3.1707  2.5397  1.5196  1.5196  0.8053  0.8053  0.5373  0.4051  0.3713

 Free energy of the ion-electron system (eV)
  ---------------------------------------------------
  alpha Z        PSCENC =       250.55636053
  Ewald energy   TEWEN  =     58573.71868234
  -Hartree energ DENC   =    -70424.30087596
  -exchange      EXHF   =         0.00000000
  -V(xc)+E(xc)   XCENC  =     -2086.43478572
  PAW double counting   =      8401.02302757    -5758.59024312
  entropy T*S    EENTRO =        -0.00000000
  eigenvalues    EBANDS =     -1232.72826280
  atomic energy  EATOM  =     11953.08265402
  Solvation  Ediel_sol  =         0.00000000
  ---------------------------------------------------
  free energy    TOTEN  =      -323.67344313 eV

  energy without entropy =     -323.67344313  energy(sigma->0) =     -323.67344313


--------------------------------------------------------------------------------------------------------




--------------------------------------- Iteration      1(  15)  ---------------------------------------


    POTLOK:  cpu time    0.2799: real time    0.2801
    SETDIJ:  cpu time    0.0121: real time    0.0121
    EDDIAG:  cpu time    2.5416: real time    2.5442
  RMM-DIIS:  cpu time   42.9832: real time   43.0695
    ORTHCH:  cpu time    0.2231: real time    0.2233
       DOS:  cpu time    0.0005: real time    0.0005
    CHARGE:  cpu time    1.1819: real time    1.1831
    MIXING:  cpu time    0.0126: real time    0.0126
    --------------------------------------------
      LOOP:  cpu time   47.2348: real time   47.3253

 eigenvalue-minimisations  :  2227
 total energy-change (2. order) :-0.1422866E-03  (-0.1807915E-03)
 number of electron     324.0000002 magnetization 
 augmentation part      -21.1766631 magnetization 

 Broyden mixing:
  rms(total) = 0.48259E-02    rms(broyden)= 0.48259E-02
  rms(prec ) = 0.62719E-02
  weight for this iteration     100.00

 eigenvalues of (default mixing * dielectric matrix)
  average eigenvalue GAMMA=   1.2582
  3.4467  2.4662  1.6057  1.6057  0.8080  0.8080  0.6715  0.4112  0.3699  0.3892

 Free energy of the ion-electron system (eV)
  ---------------------------------------------------
  alpha Z        PSCENC =       250.55636053
  Ewald energy   TEWEN  =     58573.71868234
  -Hartree energ DENC   =    -70429.06312120
  -exchange      EXHF   =         0.00000000
  -V(xc)+E(xc)   XCENC  =     -2086.41274441
  PAW double counting   =      8401.54094182    -5759.07829859
  entropy T*S    EENTRO =        -0.00000000
  eigenvalues    EBANDS =     -1228.01805994
  atomic energy  EATOM  =     11953.08265402
  Solvation  Ediel_sol  =         0.00000000
  ---------------------------------------------------
  free energy    TOTEN  =      -323.67358541 eV

  energy without entropy =     -323.67358541  energy(sigma->0) =     -323.67358541


--------------------------------------------------------------------------------------------------------




--------------------------------------- Iteration      1(  16)  ---------------------------------------


    POTLOK:  cpu time    0.2738: real time    0.2741
    SETDIJ:  cpu time    0.0119: real time    0.0119
    EDDIAG:  cpu time    2.5291: real time    2.5357
  RMM-DIIS:  cpu time   48.1461: real time   48.2629
    ORTHCH:  cpu time    0.2243: real time    0.2245
       DOS:  cpu time    0.0004: real time    0.0004
    CHARGE:  cpu time    1.1559: real time    1.1611
    MIXING:  cpu time    0.0171: real time    0.0171
    --------------------------------------------
      LOOP:  cpu time   52.3585: real time   52.4877

 eigenvalue-minimisations  :  2464
 total energy-change (2. order) :-0.5454338E-03  (-0.9074721E-04)
 number of electron     324.0000002 magnetization 
 augmentation part      -21.1898139 magnetization 

 Broyden mixing:
  rms(total) = 0.35438E-02    rms(broyden)= 0.35437E-02
  rms(prec ) = 0.45021E-02
  weight for this iteration     100.00

 eigenvalues of (default mixing * dielectric matrix)
  average eigenvalue GAMMA=   1.3067
  3.5063  2.2539  2.0419  2.0419  1.1415  0.8063  0.8063  0.6249  0.4068  0.3673
  0.3771

 Free energy of the ion-electron system (eV)
  ---------------------------------------------------
  alpha Z        PSCENC =       250.55636053
  Ewald energy   TEWEN  =     58573.71868234
  -Hartree energ DENC   =    -70430.91457759
  -exchange      EXHF   =         0.00000000
  -V(xc)+E(xc)   XCENC  =     -2086.40380909
  PAW double counting   =      8401.82719862    -5759.36423950
  entropy T*S    EENTRO =        -0.00000000
  eigenvalues    EBANDS =     -1226.17640019
  atomic energy  EATOM  =     11953.08265402
  Solvation  Ediel_sol  =         0.00000000
  ---------------------------------------------------
  free energy    TOTEN  =      -323.67413085 eV

  energy without entropy =     -323.67413085  energy(sigma->0) =     -323.67413085


--------------------------------------------------------------------------------------------------------




--------------------------------------- Iteration      1(  17)  ---------------------------------------


    POTLOK:  cpu time    0.2741: real time    0.2744
    SETDIJ:  cpu time    0.0122: real time    0.0122
    EDDIAG:  cpu time    2.5158: real time    2.5184
  RMM-DIIS:  cpu time   39.4029: real time   39.4688
    ORTHCH:  cpu time    0.2186: real time    0.2190
       DOS:  cpu time    0.0004: real time    0.0004
    CHARGE:  cpu time    1.1552: real time    1.1561
    MIXING:  cpu time    0.0089: real time    0.0089
    --------------------------------------------
      LOOP:  cpu time   43.5882: real time   43.6583

 eigenvalue-minimisations  :  2042
 total energy-change (2. order) :-0.1557859E-02  (-0.3031135E-04)
 number of electron     324.0000002 magnetization 
 augmentation part      -21.1841201 magnetization 

 Broyden mixing:
  rms(total) = 0.17999E-02    rms(broyden)= 0.17999E-02
  rms(prec ) = 0.24653E-02
  weight for this iteration     100.00

 eigenvalues of (default mixing * dielectric matrix)
  average eigenvalue GAMMA=   1.3607
  4.1125  2.5644  2.5644  1.5013  1.5013  0.8032  0.8032  0.7565  0.5709  0.4074
  0.3681  0.3754

 Free energy of the ion-electron system (eV)
  ---------------------------------------------------
  alpha Z        PSCENC =       250.55636053
  Ewald energy   TEWEN  =     58573.71868234
  -Hartree energ DENC   =    -70433.75931158
  -exchange      EXHF   =         0.00000000
  -V(xc)+E(xc)   XCENC  =     -2086.38514231
  PAW double counting   =      8400.81118423    -5758.36382243
  entropy T*S    EENTRO =        -0.00000000
  eigenvalues    EBANDS =     -1223.33629353
  atomic energy  EATOM  =     11953.08265402
  Solvation  Ediel_sol  =         0.00000000
  ---------------------------------------------------
  free energy    TOTEN  =      -323.67568871 eV

  energy without entropy =     -323.67568871  energy(sigma->0) =     -323.67568871


--------------------------------------------------------------------------------------------------------




--------------------------------------- Iteration      1(  18)  ---------------------------------------


    POTLOK:  cpu time    0.2740: real time    0.2742
    SETDIJ:  cpu time    0.0118: real time    0.0118
    EDDIAG:  cpu time    2.5326: real time    2.5392
  RMM-DIIS:  cpu time   42.1251: real time   42.2099
    ORTHCH:  cpu time    0.2219: real time    0.2221
       DOS:  cpu time    0.0004: real time    0.0004
    CHARGE:  cpu time    1.1569: real time    1.1581
    MIXING:  cpu time    0.0095: real time    0.0095
    --------------------------------------------
      LOOP:  cpu time   46.3322: real time   46.4253

 eigenvalue-minimisations  :  2179
 total energy-change (2. order) :-0.7865049E-03  (-0.2248884E-04)
 number of electron     324.0000002 magnetization 
 augmentation part      -21.1830594 magnetization 

 Broyden mixing:
  rms(total) = 0.16519E-02    rms(broyden)= 0.16519E-02
  rms(prec ) = 0.19645E-02
  weight for this iteration     100.00

 eigenvalues of (default mixing * dielectric matrix)
  average eigenvalue GAMMA=   1.4142
  5.1479  2.8417  2.3241  1.6413  1.6413  0.9810  0.8127  0.8127  0.6093  0.4239
  0.4085  0.3734  0.3669

 Free energy of the ion-electron system (eV)
  ---------------------------------------------------
  alpha Z        PSCENC =       250.55636053
  Ewald energy   TEWEN  =     58573.71868234
  -Hartree energ DENC   =    -70435.64419050
  -exchange      EXHF   =         0.00000000
  -V(xc)+E(xc)   XCENC  =     -2086.37825383
  PAW double counting   =      8400.25433994    -5757.80532268
  entropy T*S    EENTRO =        -0.00000000
  eigenvalues    EBANDS =     -1221.46074505
  atomic energy  EATOM  =     11953.08265402
  Solvation  Ediel_sol  =         0.00000000
  ---------------------------------------------------
  free energy    TOTEN  =      -323.67647521 eV

  energy without entropy =     -323.67647521  energy(sigma->0) =     -323.67647521


--------------------------------------------------------------------------------------------------------




--------------------------------------- Iteration      1(  19)  ---------------------------------------


    POTLOK:  cpu time    0.2879: real time    0.2896
    SETDIJ:  cpu time    0.0160: real time    0.0161
    EDDIAG:  cpu time    2.5268: real time    2.5335
  RMM-DIIS:  cpu time   43.4998: real time   43.5973
    ORTHCH:  cpu time    0.2194: real time    0.2196
       DOS:  cpu time    0.0004: real time    0.0004
    CHARGE:  cpu time    1.1529: real time    1.1541
    MIXING:  cpu time    0.0095: real time    0.0095
    --------------------------------------------
      LOOP:  cpu time   47.7128: real time   47.8201

 eigenvalue-minimisations  :  2213
 total energy-change (2. order) :-0.4423528E-03  (-0.9281558E-05)
 number of electron     324.0000002 magnetization 
 augmentation part      -21.1849528 magnetization 

 Broyden mixing:
  rms(total) = 0.91744E-03    rms(broyden)= 0.91744E-03
  rms(prec ) = 0.11614E-02
  weight for this iteration     100.00

 eigenvalues of (default mixing * dielectric matrix)
  average eigenvalue GAMMA=   1.5415
  6.4674  3.0638  2.3183  1.8750  1.8750  1.0934  1.0934  0.8092  0.8092  0.6117
  0.4181  0.4062  0.3738  0.3659

 Free energy of the ion-electron system (eV)
  ---------------------------------------------------
  alpha Z        PSCENC =       250.55636053
  Ewald energy   TEWEN  =     58573.71868234
  -Hartree energ DENC   =    -70436.74058606
  -exchange      EXHF   =         0.00000000
  -V(xc)+E(xc)   XCENC  =     -2086.37793874
  PAW double counting   =      8400.16597353    -5757.71023047
  entropy T*S    EENTRO =        -0.00000000
  eigenvalues    EBANDS =     -1220.37183273
  atomic energy  EATOM  =     11953.08265402
  Solvation  Ediel_sol  =         0.00000000
  ---------------------------------------------------
  free energy    TOTEN  =      -323.67691757 eV

  energy without entropy =     -323.67691757  energy(sigma->0) =     -323.67691757


--------------------------------------------------------------------------------------------------------




--------------------------------------- Iteration      1(  20)  ---------------------------------------


    POTLOK:  cpu time    0.2778: real time    0.2781
    SETDIJ:  cpu time    0.0119: real time    0.0119
    EDDIAG:  cpu time    2.5230: real time    2.5256
  RMM-DIIS:  cpu time   39.7403: real time   39.8230
    ORTHCH:  cpu time    0.2077: real time    0.2079
       DOS:  cpu time    0.0004: real time    0.0004
    CHARGE:  cpu time    1.1506: real time    1.1517
    MIXING:  cpu time    0.0176: real time    0.0176
    --------------------------------------------
      LOOP:  cpu time   43.9294: real time   44.0163

 eigenvalue-minimisations  :  2050
 total energy-change (2. order) :-0.4316400E-03  (-0.6434529E-05)
 number of electron     324.0000002 magnetization 
 augmentation part      -21.1836282 magnetization 

 Broyden mixing:
  rms(total) = 0.34492E-03    rms(broyden)= 0.34492E-03
  rms(prec ) = 0.45341E-03
  weight for this iteration     100.00

 eigenvalues of (default mixing * dielectric matrix)
  average eigenvalue GAMMA=   1.5417
  6.7760  3.2107  2.4525  1.7848  1.7848  1.2573  1.2573  0.8094  0.8094  0.8037
  0.6168  0.4180  0.4060  0.3738  0.3657

 Free energy of the ion-electron system (eV)
  ---------------------------------------------------
  alpha Z        PSCENC =       250.55636053
  Ewald energy   TEWEN  =     58573.71868234
  -Hartree energ DENC   =    -70437.18416428
  -exchange      EXHF   =         0.00000000
  -V(xc)+E(xc)   XCENC  =     -2086.37893973
  PAW double counting   =      8400.58063061    -5758.12555769
  entropy T*S    EENTRO =        -0.00000000
  eigenvalues    EBANDS =     -1219.92701501
  atomic energy  EATOM  =     11953.08265402
  Solvation  Ediel_sol  =         0.00000000
  ---------------------------------------------------
  free energy    TOTEN  =      -323.67734921 eV

  energy without entropy =     -323.67734921  energy(sigma->0) =     -323.67734921


--------------------------------------------------------------------------------------------------------




--------------------------------------- Iteration      1(  21)  ---------------------------------------


    POTLOK:  cpu time    0.2820: real time    0.2826
    SETDIJ:  cpu time    0.0119: real time    0.0119
    EDDIAG:  cpu time    2.5271: real time    2.5339
  RMM-DIIS:  cpu time   42.2487: real time   42.3252
    ORTHCH:  cpu time    0.2231: real time    0.2233
       DOS:  cpu time    0.0004: real time    0.0004
    CHARGE:  cpu time    1.1835: real time    1.1928
    MIXING:  cpu time    0.0109: real time    0.0109
    --------------------------------------------
      LOOP:  cpu time   46.4876: real time   46.5811

 eigenvalue-minimisations  :  2092
 total energy-change (2. order) :-0.1057129E-03  (-0.1865063E-05)
 number of electron     324.0000002 magnetization 
 augmentation part      -21.1835040 magnetization 

 Broyden mixing:
  rms(total) = 0.39843E-03    rms(broyden)= 0.39843E-03
  rms(prec ) = 0.48635E-03
  weight for this iteration     100.00

 eigenvalues of (default mixing * dielectric matrix)
  average eigenvalue GAMMA=   1.5418
  6.9723  3.3562  2.5466  1.9258  1.9258  1.6390  1.1519  0.9684  0.8070  0.8070
  0.6150  0.4196  0.4062  0.3656  0.3733  0.3891

 Free energy of the ion-electron system (eV)
  ---------------------------------------------------
  alpha Z        PSCENC =       250.55636053
  Ewald energy   TEWEN  =     58573.71868234
  -Hartree energ DENC   =    -70437.32583843
  -exchange      EXHF   =         0.00000000
  -V(xc)+E(xc)   XCENC  =     -2086.37886500
  PAW double counting   =      8400.67612602    -5758.22323538
  entropy T*S    EENTRO =        -0.00000000
  eigenvalues    EBANDS =     -1219.78333902
  atomic energy  EATOM  =     11953.08265402
  Solvation  Ediel_sol  =         0.00000000
  ---------------------------------------------------
  free energy    TOTEN  =      -323.67745492 eV

  energy without entropy =     -323.67745492  energy(sigma->0) =     -323.67745492


--------------------------------------------------------------------------------------------------------




--------------------------------------- Iteration      1(  22)  ---------------------------------------


    POTLOK:  cpu time    0.2826: real time    0.2829
    SETDIJ:  cpu time    0.0141: real time    0.0141
    EDDIAG:  cpu time    2.5064: real time    2.5089
  RMM-DIIS:  cpu time   31.0323: real time   31.0852
    ORTHCH:  cpu time    0.2291: real time    0.2374
       DOS:  cpu time    0.0005: real time    0.0005
    CHARGE:  cpu time    1.1714: real time    1.1725
    MIXING:  cpu time    0.0103: real time    0.0103
    --------------------------------------------
      LOOP:  cpu time   35.2468: real time   35.3117

 eigenvalue-minimisations  :  1526
 total energy-change (2. order) :-0.6681242E-04  (-0.5511234E-06)
 number of electron     324.0000002 magnetization 
 augmentation part      -21.1838930 magnetization 

 Broyden mixing:
  rms(total) = 0.18977E-03    rms(broyden)= 0.18977E-03
  rms(prec ) = 0.24501E-03
  weight for this iteration     100.00

[...]
 -0.000   0.000   0.000  -0.000  -0.000   0.011   0.000   0.000
 -0.000   0.000  -0.000   0.000  -0.000   0.000   0.011   0.000
  0.000   0.000  -0.000  -0.000   0.000   0.000   0.000   0.011
 -0.000   0.000  -0.001  -0.000   0.000   0.000   0.000   0.000
  0.000   0.000  -0.016  -0.000  -0.000  -0.000   0.000   0.000
 -0.009  -0.000   0.000  -0.020   0.000  -0.000  -0.000  -0.000
  0.000   0.000  -0.000  -0.001  -0.016   0.000   0.000  -0.000
 -0.000  -0.000   0.001  -0.000  -0.001   0.000   0.000   0.000
 total augmentation occupancy for first ion, spin component:           1
  1.931   0.234   0.001   0.199  -0.005   0.001   0.045   0.002   0.001   0.000   0.006   0.001  -0.000
  0.234   1.374  -0.006  -0.958   0.007   0.010   0.383   0.008  -0.001   0.000  -0.021  -0.001  -0.002
  0.001  -0.006   1.333  -0.001   0.007  -0.498  -0.003  -0.006   0.004  -0.120  -0.000  -0.002  -0.045
  0.199  -0.958  -0.001   1.512   0.009  -0.003  -0.546  -0.001  -0.004  -0.001  -0.037  -0.002   0.001
 -0.005   0.007   0.007   0.009   1.345  -0.006  -0.000  -0.493  -0.047  -0.002  -0.002  -0.120  -0.002
  0.001   0.010  -0.498  -0.003  -0.006   0.315   0.001  -0.000   0.001   0.041  -0.001   0.001   0.007
  0.045   0.383  -0.003  -0.546  -0.000   0.001   0.300  -0.000  -0.000   0.001   0.048   0.001  -0.000
  0.002   0.008  -0.006  -0.001  -0.493  -0.000  -0.000   0.309   0.009   0.001  -0.001   0.041   0.002
  0.001  -0.001   0.004  -0.004  -0.047   0.001  -0.000   0.009   0.021   0.000  -0.000  -0.001   0.000
  0.000   0.000  -0.120  -0.001  -0.002   0.041   0.001   0.001   0.000   0.020   0.000   0.000  -0.001
  0.006  -0.021  -0.000  -0.037  -0.002  -0.001   0.048  -0.001  -0.000   0.000   0.021   0.000   0.000
  0.001  -0.001  -0.002  -0.002  -0.120   0.001   0.001   0.041  -0.001   0.000   0.000   0.019   0.000
 -0.000  -0.002  -0.045   0.001  -0.002   0.007  -0.000   0.002   0.000  -0.001   0.000   0.000   0.021


------------------------ aborting loop because EDIFF is reached ----------------------------------------


    CHARGE:  cpu time    1.1790: real time    1.1801
    FORLOC:  cpu time    0.0866: real time    0.0867
    FORNL :  cpu time   13.5848: real time   13.6090
    STRESS:  cpu time   69.4192: real time   69.5502
    FORCOR:  cpu time    0.3291: real time    0.3293
    FORHAR:  cpu time    0.1287: real time    0.1288
    MIXING:  cpu time    0.0078: real time    0.0078
    OFIELD:  cpu time    0.0000: real time    0.0000

  Number of pair interactions contributing to vdW energy:  273552
  Edisp (eV):  -19.19865
    FORVDW:  cpu time    0.0305: real time    0.0306

  FORCE on cell =-STRESS in cart. coord.  units (eV):
  Direction    XX          YY          ZZ          XY          YZ          ZX
  --------------------------------------------------------------------------------------
  Alpha Z   250.55636   250.55636   250.55636
  Ewald   67737.16025 67785.41186-76925.61186   -30.98815    -9.45523    13.21237
  Hartree 70079.35816 70093.07765-69709.38915   -10.71911     2.09193    -0.47621
  E(xc)   -1357.85299 -1358.34411 -1377.39920     0.25074     1.04229    -0.92958
  Local  ************************141562.46780    40.61534     7.90651   -12.84076
  n-local  3563.77168  3564.71084  3749.08801     2.74147    -7.88843     6.87205
  augment  -760.54187  -760.03648  -801.21365    -1.10448     1.54875    -1.26876
  Kinetic  3287.85600  3293.26691  3282.32041    -9.77521    -0.97361     1.85517
  Fock        0.00000     0.00000     0.00000     0.00000     0.00000     0.00000
  vdW       -13.15756   -12.96256    -9.51394    -0.15051     1.08856    -0.73263
  -------------------------------------------------------------------------------------
  Total       2.21475    10.83655    21.30477    -9.12993    -4.63924     5.69165
  in kB       1.23885     6.06156    11.91709    -5.10694    -2.59502     3.18370
  external pressure =        6.41 kB  Pullay stress =        0.00 kB

  kinetic pressure (ideal gas correction) =      0.22 kB
  total pressure  =      6.62 kB
  Total+kin.     1.472       6.284      12.107      -5.061      -2.592       3.206

 VOLUME and BASIS-vectors are now :
 -----------------------------------------------------------------------------
  energy-cutoff  :      550.00
  volume of cell :     2864.29
      direct lattice vectors                 reciprocal lattice vectors
    10.613772835  0.000000000  0.000000000     0.094217204  0.052820447  0.000323193
    -5.119610248  9.131981895  0.000000000     0.000000000  0.109505254 -0.001475485
    -0.324601849  0.398182527 29.551682882     0.000000000  0.000000000  0.033839020

  length of vectors
    10.613772835 10.469169137 29.556147869     0.108013821  0.109515194  0.033839020


 FORCES acting on ions
    electron-ion (+dipol)            ewald-force                    non-local-force                 convergence-correction
 -----------------------------------------------------------------------------------------------
   -.177E+01 -.166E+01 -.823E+03   0.172E+01 0.166E+01 0.829E+03   0.365E+00 0.449E-01 -.505E+01   0.156E-03 -.117E-02 0.106E-02
   0.985E+00 -.278E+00 -.823E+03   -.103E+01 0.298E+00 0.829E+03   0.179E+00 -.559E-01 -.521E+01   0.157E-03 0.147E-02 0.176E-02
   -.137E+01 0.208E+01 -.825E+03   0.138E+01 -.199E+01 0.830E+03   0.150E+00 -.417E+00 -.537E+01   -.552E-03 -.444E-03 0.466E-04
   0.257E+01 -.774E-01 -.823E+03   -.258E+01 0.133E+00 0.828E+03   -.157E+00 -.165E+00 -.546E+01   -.600E-03 0.147E-02 0.386E-03
   -.612E+00 0.988E+00 -.826E+03   0.599E+00 -.980E+00 0.831E+03   0.199E+00 -.283E-01 -.531E+01   0.198E-02 0.132E-03 -.769E-05
   0.118E+01 0.872E+00 -.824E+03   -.119E+01 -.860E+00 0.830E+03   0.427E-01 -.154E+00 -.507E+01   -.627E-04 -.932E-03 0.984E-03
   0.251E+00 -.437E+00 -.823E+03   -.265E+00 0.448E+00 0.829E+03   0.279E+00 -.590E-01 -.499E+01   0.429E-03 -.841E-03 0.198E-02
   0.169E+00 0.253E+01 -.823E+03   -.175E+00 -.249E+01 0.828E+03   0.171E+00 -.284E+00 -.540E+01   -.211E-02 0.917E-03 -.142E-03
   0.242E+01 0.334E+00 -.823E+03   -.243E+01 -.282E+00 0.828E+03   -.933E-01 -.467E-01 -.526E+01   0.645E-03 -.739E-03 -.300E-03
   0.134E+01 -.575E-01 0.102E+03   -.135E+01 0.145E+00 -.965E+02   0.105E+00 -.408E+00 -.531E+01   0.329E-03 0.122E-03 -.688E-03
   -.216E+01 -.404E+00 0.107E+03   0.218E+01 0.452E+00 -.102E+03   0.227E+00 -.147E+00 -.554E+01   0.107E-02 0.172E-03 -.359E-03
   -.261E+01 0.207E+01 0.102E+03   0.265E+01 -.211E+01 -.965E+02   0.464E+00 -.334E+00 -.497E+01   0.796E-03 0.950E-03 0.677E-04
   0.206E+01 -.331E-01 0.100E+03   -.204E+01 0.852E-01 -.949E+02   -.108E+00 -.378E+00 -.501E+01   -.647E-03 -.548E-03 -.267E-03
   0.941E+00 -.624E+00 0.103E+03   -.987E+00 0.646E+00 -.980E+02   0.229E+00 -.307E+00 -.532E+01   -.722E-03 0.155E-03 -.398E-03
   -.879E+00 0.510E+01 0.103E+03   0.812E+00 -.517E+01 -.970E+02   0.222E+00 -.424E+00 -.533E+01   0.613E-04 -.339E-03 -.598E-03
   -.232E+01 0.162E+01 0.103E+03   0.232E+01 -.158E+01 -.977E+02   0.245E+00 -.282E+00 -.511E+01   0.291E-03 -.775E-03 0.179E-03
   0.271E+01 0.154E+01 0.101E+03   -.271E+01 -.157E+01 -.957E+02   -.427E-01 -.473E+00 -.521E+01   -.365E-03 -.198E-03 0.108E-02
   0.283E+01 0.263E+01 0.104E+03   -.289E+01 -.262E+01 -.981E+02   0.114E+00 -.371E+00 -.540E+01   -.839E-03 0.454E-03 0.338E-03
   0.591E+00 -.178E+01 -.102E+03   -.567E+00 0.178E+01 0.970E+02   -.234E+00 0.206E+00 0.531E+01   0.185E-03 -.106E-02 -.572E-03
   0.102E+01 0.367E-01 -.102E+03   -.103E+01 -.111E+00 0.961E+02   -.782E-01 0.307E+00 0.525E+01   0.275E-03 0.142E-02 -.126E-02
   -.563E+00 -.144E+01 -.101E+03   0.586E+00 0.156E+01 0.955E+02   -.145E+00 0.693E-01 0.517E+01   -.516E-03 -.370E-03 0.514E-03
   0.307E+00 0.591E+00 -.108E+03   -.259E+00 -.560E+00 0.102E+03   -.253E+00 -.969E-01 0.528E+01   -.747E-03 0.153E-02 0.291E-03
   -.252E+00 -.187E+01 -.103E+03   0.263E+00 0.189E+01 0.975E+02   -.617E-01 0.394E+00 0.506E+01   0.194E-02 0.827E-04 0.621E-03
   -.111E+01 -.295E+01 -.103E+03   0.112E+01 0.297E+01 0.979E+02   0.141E+00 0.419E+00 0.511E+01   -.126E-03 -.933E-03 -.310E-03
   0.353E+01 -.711E+00 -.102E+03   -.359E+01 0.695E+00 0.967E+02   -.157E+00 0.271E+00 0.546E+01   0.545E-03 -.912E-03 -.125E-02
   0.246E+01 0.465E+01 -.105E+03   -.248E+01 -.467E+01 0.993E+02   -.208E+00 -.273E+00 0.498E+01   -.220E-02 0.103E-02 0.772E-03
   0.496E+01 -.461E+00 -.102E+03   -.504E+01 0.484E+00 0.969E+02   -.302E+00 0.181E+00 0.525E+01   0.613E-03 -.636E-03 0.890E-03
   0.173E+01 -.267E+00 0.824E+03   -.167E+01 0.281E+00 -.830E+03   -.135E+00 0.733E-01 0.520E+01   0.345E-03 0.162E-03 0.459E-03
   -.108E+00 0.260E+01 0.822E+03   0.184E+00 -.263E+01 -.828E+03   -.228E+00 -.167E+00 0.537E+01   0.103E-02 0.202E-03 0.737E-04
   0.346E+01 -.133E+01 0.824E+03   -.344E+01 0.129E+01 -.830E+03   -.258E+00 0.347E+00 0.487E+01   0.870E-03 0.911E-03 -.199E-03
   0.139E+01 -.192E+01 0.827E+03   -.132E+01 0.188E+01 -.833E+03   -.204E+00 0.338E+00 0.498E+01   -.615E-03 -.566E-03 -.137E-03
   0.231E+01 0.142E+00 0.824E+03   -.224E+01 -.191E+00 -.830E+03   -.340E+00 0.106E-01 0.504E+01   -.739E-03 0.137E-03 0.130E-03
   -.566E+00 0.551E+00 0.824E+03   0.621E+00 -.555E+00 -.830E+03   -.227E+00 0.104E+00 0.513E+01   0.592E-04 -.274E-03 0.324E-03
   0.369E+00 0.978E+00 0.823E+03   -.313E+00 -.900E+00 -.829E+03   -.377E+00 -.155E+00 0.499E+01   0.253E-03 -.708E-03 -.439E-03
   0.280E+01 -.903E+00 0.825E+03   -.270E+01 0.828E+00 -.831E+03   -.367E+00 0.132E+00 0.499E+01   -.314E-03 -.312E-03 -.132E-02
   -.575E+00 0.104E+01 0.822E+03   0.613E+00 -.102E+01 -.828E+03   0.105E+00 -.926E-01 0.542E+01   -.912E-03 0.518E-03 -.398E-03
   0.116E+01 0.481E+00 -.463E+03   -.120E+01 -.557E+00 0.463E+03   -.178E+00 -.667E-01 -.136E+00   0.761E-03 -.175E-02 0.280E-03
   0.596E+00 0.710E+00 -.464E+03   -.599E+00 -.755E+00 0.464E+03   -.227E+00 -.777E-02 0.332E-01   -.122E-02 0.941E-03 0.360E-03
   -.240E+01 -.775E+00 -.459E+03   0.252E+01 0.931E+00 0.460E+03   0.187E+00 0.151E+00 0.565E+00   -.951E-03 0.354E-04 0.475E-03
   -.521E+01 -.298E+01 -.465E+03   0.529E+01 0.302E+01 0.465E+03   0.316E+00 0.397E+00 0.855E-01   -.152E-03 -.373E-03 0.293E-03
   -.161E+01 0.785E+00 -.465E+03   0.157E+01 -.857E+00 0.465E+03   -.649E-01 -.183E+00 0.358E-01   0.146E-02 0.234E-03 0.270E-03
   0.520E+00 -.589E+00 -.462E+03   -.601E+00 0.564E+00 0.462E+03   -.340E+00 -.154E+00 0.388E+00   -.497E-03 0.539E-03 0.354E-03
   -.500E+00 -.124E+01 -.466E+03   0.546E+00 0.120E+01 0.466E+03   -.161E+00 -.942E-01 -.335E+00   -.677E-03 -.154E-03 0.288E-03
   -.234E+01 0.481E+00 -.463E+03   0.240E+01 -.424E+00 0.463E+03   0.854E-01 0.825E-01 0.394E+00   -.210E-03 0.111E-02 0.377E-03
   -.305E+01 -.329E+00 -.465E+03   0.313E+01 0.273E+00 0.465E+03   0.948E-01 -.974E-01 -.448E-01   0.138E-02 -.692E-03 0.291E-03
   -.554E+01 -.196E+01 0.464E+03   0.563E+01 0.208E+01 -.464E+03   0.446E+00 0.249E+00 0.501E-01   0.860E-03 -.407E-03 -.168E-03
   0.381E+01 -.141E+01 0.463E+03   -.394E+01 0.148E+01 -.464E+03   -.524E+00 0.172E+00 -.197E+00   -.113E-03 0.820E-03 -.141E-03
   -.232E+01 -.462E+00 0.459E+03   0.240E+01 0.551E+00 -.459E+03   0.935E-01 0.979E-01 -.934E-01   0.166E-03 0.133E-03 -.217E-03
   0.512E+00 -.289E+01 0.468E+03   -.486E+00 0.297E+01 -.468E+03   -.181E+00 0.277E+00 0.191E+00   0.225E-03 0.414E-04 -.643E-04
   -.478E+01 0.304E+01 0.462E+03   0.489E+01 -.305E+01 -.462E+03   0.403E-01 -.289E-01 0.347E+00   0.867E-03 0.300E-03 -.114E-03
   0.741E+00 -.232E+01 0.460E+03   -.729E+00 0.246E+01 -.460E+03   -.172E+00 -.106E-03 -.197E+00   0.205E-05 0.351E-03 -.195E-03
   -.729E+00 -.336E+01 0.467E+03   0.823E+00 0.341E+01 -.467E+03   0.966E-01 0.303E+00 0.211E+00   -.110E-02 -.459E-03 -.130E-03
   -.187E+01 -.873E+00 0.461E+03   0.188E+01 0.955E+00 -.461E+03   0.625E-01 0.205E+00 0.148E+00   -.819E-03 0.847E-04 -.123E-03
   -.368E+01 0.153E+01 0.466E+03   0.373E+01 -.150E+01 -.466E+03   0.322E+00 -.947E-01 -.656E-01   -.222E-03 -.804E-03 -.157E-03
 -----------------------------------------------------------------------------------------------
   0.835E+00 0.101E+01 0.493E-01   -.355E-14 0.933E-14 0.512E-12   -.841E+00 -.101E+01 -.526E-01   -.292E-03 0.530E-04 0.500E-02
 
 
 POSITION                                       TOTAL-FORCE (eV/Angst)
 -----------------------------------------------------------------------------------
      1.54331      1.26417     20.16911         0.301691      0.041831      0.418303
     -0.13693      4.33815     20.17425         0.128868     -0.026270      0.243389
     -1.85520      7.36512     20.19724         0.146096     -0.319315     -0.020257
      5.11911      1.27352     20.19228        -0.164144     -0.107240      0.048846
      3.38788      4.30899     20.19965         0.176638     -0.019915      0.113767
      1.70292      7.37116     20.18009         0.033801     -0.139182      0.366540
      8.64907      1.28536     20.17003         0.259141     -0.044931      0.470498
      6.92866      4.33821     20.18333         0.149795     -0.228812      0.037376
      5.26008      7.34878     20.17797        -0.099066     -0.000044      0.155810
      2.22208      0.18144     12.96463         0.109196     -0.338674      0.230411
      0.49203      3.18812     12.93640         0.244383     -0.127937      0.086916
     -1.20985      6.27253     12.94095         0.511283     -0.385011      0.610666
      5.77627      0.19717     12.94484        -0.070227     -0.336273      0.519556
      4.03789      3.21014     12.94614         0.186154     -0.308623      0.218502
      2.33034      6.28326     12.95173         0.158165     -0.500707      0.238003
      4.14091      9.29541     12.93853         0.242638     -0.270951      0.490251
      7.58804      3.23572     12.95381        -0.025326     -0.506634      0.342736
      5.89257      6.25817     12.96014         0.064609     -0.384848      0.194829
      1.60875      1.24309     16.59384        -0.220427      0.223889     -0.243095
     -0.10393      4.28478     16.59198        -0.100767      0.251336     -0.321445
     -1.81431      7.32622     16.58116        -0.139716      0.211992     -0.345511
      5.14332      1.25041     16.62976        -0.216895     -0.044733     -0.398406
      3.41295      4.26917     16.61182        -0.067958      0.423113     -0.495429
      1.71239      7.32501     16.60851         0.135844      0.452694     -0.437639
      8.68993      1.23881     16.58263        -0.223003      0.269373     -0.090401
      6.97704      4.31575     16.62031        -0.234226     -0.259948     -0.668888
      5.26613      7.33350     16.59194        -0.389689      0.225988     -0.302887
     -2.87009      9.23582      9.37158        -0.071565      0.074607     -0.248026
      0.54168      3.18850      9.36845        -0.154555     -0.180665     -0.203788
     -1.14488      6.20769      9.39183        -0.225764      0.298877     -0.602543
      0.65706      9.23428      9.36688        -0.142080      0.282289     -0.434293
      4.09915      3.18514      9.37050        -0.266855     -0.038626     -0.464616
      2.38662      6.22166      9.37111        -0.168645      0.098129     -0.359261
      9.34059      0.13859      9.39324        -0.313021     -0.077265     -0.520718
      7.62873      3.18560      9.37668        -0.265073      0.053349     -0.496380
      5.90186      6.23092      9.37262         0.135440     -0.072100     -0.073324
     -0.18585      0.25319     18.38841        -0.221902     -0.145665     -0.155501
     -1.88420      3.30240     18.38585        -0.235762     -0.047430      0.067073
      6.99894      6.33030     18.35185         0.313089      0.297250      0.788425
     -1.80642      9.34514     18.39016         0.428805      0.467786      0.147767
      1.63599      3.30208     18.39027        -0.085261     -0.262264      0.134244
     -0.05487      6.35630     18.36377        -0.423125     -0.188669      0.571893
      6.90191      0.25864     18.41413        -0.130091     -0.119459     -0.460302
      5.15966      3.29355     18.37699         0.158141      0.128233      0.571980
      3.45930      6.33775     18.39732         0.200859     -0.145955     -0.023605
      9.31884      2.15935     11.15960         0.578498      0.374057      0.063555
     -2.92042      5.21690     11.17468        -0.683279      0.256039     -0.370069
      5.94283      8.25996     11.18044         0.179863      0.176129     -0.080785
      2.29790      2.14966     11.14073        -0.178699      0.380812      0.140411
      0.58100      5.22676     11.14506         0.169884     -0.063209      0.552731
     -1.11625      8.26554     11.18179        -0.168386      0.136158     -0.267738
      5.81907      2.16676     11.14213         0.187575      0.363880      0.205616
      4.11310      5.21179     11.15938         0.082353      0.292846      0.229728
      2.38310      8.27150     11.15973         0.396798     -0.091292     -0.173137
 -----------------------------------------------------------------------------------
    total drift:                               -0.005902     -0.001988      0.001785


--------------------------------------------------------------------------------------------------------



  FREE ENERGIE OF THE ION-ELECTRON SYSTEM (eV)
  ---------------------------------------------------
  free  energy   TOTEN  =      -342.73322809 eV

  energy  without entropy=     -342.73322809  energy(sigma->0) =     -342.73322809
 
 d Force =-0.2214529E-01[-0.243E-01,-0.200E-01]  d Energy =-0.2215813E-01 0.128E-04
 d Force = 0.3016793E+01[ 0.301E+01, 0.302E+01]  d Ewald  = 0.3016794E+01-0.156E-05


--------------------------------------------------------------------------------------------------------


    POTLOK:  cpu time    0.2832: real time    0.2835


--------------------------------------------------------------------------------------------------------


           RANDOM_SEED =         149665211              324                0
   IONSTEP:  cpu time    0.0001: real time    0.0001

  ENERGY OF THE ELECTRON-ION-THERMOSTAT SYSTEM (eV)
  ---------------------------------------------------
% ion-electron   TOTEN  =      -342.733228  see above
  kinetic energy EKIN   =         0.569995
  kin. lattice  EKIN_LAT=         0.000000  (temperature   83.20 K)
  nose potential ES     =        -0.029282
  nose kinetic   EPS    =         0.003647
  ---------------------------------------------------
  total energy   ETOTAL =      -342.188867 eV

  maximum distance moved by ions :      0.53E-03


 mean value of Nose-termostat <S>:     0.970 mean value of <T> :    83.201
 mean temperature <T/S>/<1/S>  :    83.201

    WAVPRE:  cpu time    0.1040: real time    0.1074
    FEWALD:  cpu time    0.0015: real time    0.0015
    ORTHCH:  cpu time    7.7580: real time    7.7701
    POTLOK:  cpu time    0.2953: real time    0.2956
    EDDIAG:  cpu time    2.4986: real time    2.5091
     LOOP+:  cpu time  461.3827: real time  462.4071
    4ORBIT:  cpu time    0.0000: real time    0.0000

 total amount of memory used by VASP MPI-rank0   363357. kBytes
=======================================================================

   base      :      30000. kBytes
   nonl-proj :     193443. kBytes
   fftplans  :      18984. kBytes
   grid      :      86187. kBytes
   one-center:        839. kBytes
   wavefun   :      33904. kBytes
 
  
  
 General timing and accounting informations for this job:
 ========================================================
  
                  Total CPU time used (sec):     5602.068
                            User time (sec):     5588.715
                          System time (sec):       13.352
                         Elapsed time (sec):     5615.122
  
                   Maximum memory used (kb):      804420.
                   Average memory used (kb):           0.
  
                          Minor page faults:       354505
                          Major page faults:            0
                 Voluntary context switches:         1918
