0.000000000000000000e+00 2.032270000000000021e+00 9.245029999999999859e+00 -1.760000000000000009e+00 5.080680000000000085e+00 9.245029999999999859e+00 -3.520000000000000018e+00 8.129089999999999705e+00 9.245029999999999859e+00 3.520000000000000018e+00 2.032270000000000021e+00 9.245029999999999859e+00 1.760000000000000009e+00 5.080680000000000085e+00 9.245029999999999859e+00 0.000000000000000000e+00 8.129089999999999705e+00 9.245029999999999859e+00 7.040000000000000036e+00 2.032270000000000021e+00 9.245029999999999859e+00 5.280000000000000249e+00 5.080680000000000085e+00 9.245029999999999859e+00 3.520000000000000018e+00 8.129089999999999705e+00 9.245029999999999859e+00 0.000000000000000000e+00 1.727430000000000021e+00 1.713447999999999993e+01 -1.760000000000000009e+00 4.775839999999999641e+00 1.713447999999999993e+01 -3.520000000000000018e+00 7.824250000000000149e+00 1.713447999999999993e+01 3.520000000000000018e+00 1.727430000000000021e+00 1.713447999999999993e+01 1.760000000000000009e+00 4.775839999999999641e+00 1.713447999999999993e+01 0.000000000000000000e+00 7.824250000000000149e+00 1.713447999999999993e+01 7.040000000000000036e+00 1.727430000000000021e+00 1.713447999999999993e+01 5.280000000000000249e+00 4.775839999999999641e+00 1.713447999999999993e+01 3.520000000000000018e+00 7.824250000000000149e+00 1.713447999999999993e+01 0.000000000000000000e+00 2.032270000000000021e+00 1.286552999999999969e+01 -1.760000000000000009e+00 5.080680000000000085e+00 1.286552999999999969e+01 -3.520000000000000018e+00 8.129089999999999705e+00 1.286552999999999969e+01 3.520000000000000018e+00 2.032270000000000021e+00 1.286552999999999969e+01 1.760000000000000009e+00 5.080680000000000085e+00 1.286552999999999969e+01 0.000000000000000000e+00 8.129089999999999705e+00 1.286552999999999969e+01 7.040000000000000036e+00 2.032270000000000021e+00 1.286552999999999969e+01 5.280000000000000249e+00 5.080680000000000085e+00 1.286552999999999969e+01 3.520000000000000018e+00 8.129089999999999705e+00 1.286552999999999969e+01 0.000000000000000000e+00 1.727430000000000021e+00 2.075499999999999901e+01 -1.760000000000000009e+00 4.775839999999999641e+00 2.075499999999999901e+01 -3.520000000000000018e+00 7.824250000000000149e+00 2.075499999999999901e+01 3.520000000000000018e+00 1.727430000000000021e+00 2.075499999999999901e+01 1.760000000000000009e+00 4.775839999999999641e+00 2.075499999999999901e+01 0.000000000000000000e+00 7.824250000000000149e+00 2.075499999999999901e+01 7.040000000000000036e+00 1.727430000000000021e+00 2.075499999999999901e+01 5.280000000000000249e+00 4.775839999999999641e+00 2.075499999999999901e+01 3.520000000000000018e+00 7.824250000000000149e+00 2.075499999999999901e+01 0.000000000000000000e+00 0.000000000000000000e+00 1.105504999999999960e+01 -1.760000000000000009e+00 3.048410000000000064e+00 1.105504999999999960e+01 -3.520000000000000018e+00 6.096820000000000128e+00 1.105504999999999960e+01 3.520000000000000018e+00 0.000000000000000000e+00 1.105504999999999960e+01 1.760000000000000009e+00 3.048410000000000064e+00 1.105504999999999960e+01 0.000000000000000000e+00 6.096820000000000128e+00 1.105504999999999960e+01 7.040000000000000036e+00 0.000000000000000000e+00 1.105504999999999960e+01 5.280000000000000249e+00 3.048410000000000064e+00 1.105504999999999960e+01 3.520000000000000018e+00 6.096820000000000128e+00 1.105504999999999960e+01 1.760000000000000009e+00 2.743570000000000064e+00 1.894495999999999825e+01 0.000000000000000000e+00 5.791979999999999684e+00 1.894495999999999825e+01 -1.760000000000000009e+00 8.840389999999999304e+00 1.894495999999999825e+01 5.280000000000000249e+00 2.743570000000000064e+00 1.894495999999999825e+01 3.520000000000000018e+00 5.791979999999999684e+00 1.894495999999999825e+01 1.760000000000000009e+00 8.840389999999999304e+00 1.894495999999999825e+01 8.800000000000000711e+00 2.743570000000000064e+00 1.894495999999999825e+01 7.040000000000000036e+00 5.791979999999999684e+00 1.894495999999999825e+01 5.280000000000000249e+00 8.840389999999999304e+00 1.894495999999999825e+01
-1.799999999999999951e-03 2.034100000000000019e+00 9.246819999999999595e+00 -1.759589999999999987e+00 5.080300000000000260e+00 9.244849999999999568e+00 -3.519390000000000018e+00 8.130549999999999500e+00 9.246130000000000848e+00 3.518429999999999946e+00 2.031670000000000087e+00 9.242150000000000531e+00 1.761519999999999975e+00 5.080650000000000333e+00 9.245210000000000150e+00 -4.040000000000000188e-03 8.130000000000000782e+00 9.245169999999999888e+00 7.039579999999999949e+00 2.028799999999999937e+00 9.245380000000000820e+00 5.277650000000000396e+00 5.081140000000000434e+00 9.243750000000000355e+00 3.520249999999999879e+00 8.129020000000000579e+00 9.243909999999999627e+00 3.490000000000000047e-03 1.730599999999999916e+00 1.713347999999999871e+01 -1.761900000000000022e+00 4.774210000000000065e+00 1.713013000000000119e+01 -3.520640000000000214e+00 7.822320000000000384e+00 1.713582999999999856e+01 3.518559999999999910e+00 1.727109999999999923e+00 1.713441999999999865e+01 1.759050000000000002e+00 4.776410000000000267e+00 1.713328999999999880e+01 -5.100000000000000366e-04 7.825090000000000323e+00 1.713251999999999953e+01 7.040009999999999657e+00 1.727230000000000043e+00 1.713515999999999906e+01 5.280569999999999986e+00 4.773869999999999614e+00 1.713290999999999897e+01 3.517619999999999969e+00 7.826139999999999652e+00 1.713173000000000101e+01 -5.299999999999999807e-04 2.032700000000000173e+00 1.286725999999999992e+01 -1.755609999999999893e+00 5.080289999999999750e+00 1.286408999999999914e+01 -3.521770000000000067e+00 8.127119999999999678e+00 1.286503000000000085e+01 3.519829999999999792e+00 2.031429999999999847e+00 1.286890000000000001e+01 1.758099999999999996e+00 5.082910000000000039e+00 1.286565000000000047e+01 -2.099999999999999870e-03 8.127639999999999532e+00 1.286580999999999975e+01 7.041979999999999684e+00 2.033949999999999925e+00 1.286680999999999919e+01 5.280429999999999957e+00 5.080519999999999925e+00 1.286698999999999948e+01 3.520290000000000141e+00 8.127959999999999852e+00 1.286679999999999957e+01 5.100000000000000366e-04 1.724869999999999903e+00 2.075461999999999918e+01 -1.757789999999999964e+00 4.775079999999999991e+00 2.075441999999999965e+01 -3.518019999999999925e+00 7.823719999999999786e+00 2.075626000000000104e+01 3.521310000000000162e+00 1.728290000000000104e+00 2.075420000000000087e+01 1.761060000000000070e+00 4.776250000000000107e+00 2.075403000000000020e+01 -1.240000000000000000e-03 7.825510000000000410e+00 2.075509999999999877e+01 7.041929999999999801e+00 1.728359999999999896e+00 2.075685999999999964e+01 5.283500000000000085e+00 4.775809999999999889e+00 2.075724999999999909e+01 3.520739999999999981e+00 7.822409999999999641e+00 2.075347000000000008e+01 5.279749999999999943e+00 9.144320000000000448e+00 1.105463999999999913e+01 8.796939999999999316e+00 3.050289999999999946e+00 1.105474000000000068e+01 -3.522310000000000052e+00 6.100950000000000095e+00 1.105340999999999951e+01 -1.761330000000000062e+00 9.144849999999999923e+00 1.105563000000000073e+01 1.759060000000000068e+00 3.047620000000000218e+00 1.105423000000000044e+01 -1.030000000000000100e-03 6.097949999999999982e+00 1.105585999999999913e+01 7.041109999999999758e+00 1.250000000000000026e-03 1.105503999999999998e+01 5.282729999999999926e+00 3.050180000000000113e+00 1.105617999999999945e+01 3.519589999999999996e+00 6.099429999999999907e+00 1.105640000000000001e+01 1.760790000000000077e+00 2.742080000000000073e+00 1.894585999999999970e+01 -1.490000000000000005e-03 5.790969999999999729e+00 1.894826000000000121e+01 -1.763970000000000038e+00 8.837759999999999394e+00 1.894460000000000122e+01 5.283559999999999590e+00 2.744120000000000115e+00 1.894680999999999926e+01 3.523390000000000022e+00 5.791769999999999641e+00 1.894547000000000025e+01 1.759910000000000085e+00 8.841070000000000206e+00 1.894356000000000151e+01 8.801589999999999137e+00 2.744499999999999940e+00 1.894346000000000174e+01 7.040740000000000443e+00 5.790449999999999875e+00 1.894256000000000029e+01 5.279029999999999667e+00 8.838939999999999131e+00 1.894863000000000142e+01
-3.599999999999999901e-03 2.035919999999999952e+00 9.248599999999999710e+00 -1.759190000000000031e+00 5.079920000000000435e+00 9.244659999999999656e+00 -3.518780000000000019e+00 8.132009999999999295e+00 9.247220000000000439e+00 3.516869999999999941e+00 2.031070000000000153e+00 9.239280000000000825e+00 1.763039999999999941e+00 5.080630000000000202e+00 9.245400000000000063e+00 -8.080000000000000376e-03 8.130910000000000082e+00 9.245319999999999538e+00 7.039150000000000240e+00 2.025339999999999918e+00 9.245720000000000383e+00 5.275299999999999656e+00 5.081610000000000404e+00 9.242480000000000473e+00 3.520500000000000185e+00 8.128949999999999676e+00 9.242789999999999395e+00 6.980000000000000093e-03 1.733740000000000059e+00 1.713249000000000066e+01 -1.763789999999999969e+00 4.772579999999999600e+00 1.712580000000000169e+01 -3.521279999999999966e+00 7.820389999999999731e+00 1.713716000000000150e+01 3.517129999999999868e+00 1.726790000000000047e+00 1.713436000000000092e+01 1.758099999999999996e+00 4.776980000000000004e+00 1.713212000000000046e+01 -1.020000000000000073e-03 7.825929999999999609e+00 1.713056999999999874e+01 7.040029999999999788e+00 1.727030000000000065e+00 1.713584000000000174e+01 5.281139999999999723e+00 4.771899999999999586e+00 1.713134000000000157e+01 3.515239999999999920e+00 7.828020000000000422e+00 1.712900000000000134e+01 -1.059999999999999961e-03 2.033129999999999882e+00 1.286899000000000015e+01 -1.751239999999999908e+00 5.079900000000000304e+00 1.286265000000000036e+01 -3.523540000000000116e+00 8.125149999999999650e+00 1.286453999999999986e+01 3.519670000000000076e+00 2.030590000000000117e+00 1.287226000000000070e+01 1.756210000000000049e+00 5.085130000000000372e+00 1.286575999999999986e+01 -4.199999999999999740e-03 8.126189999999999358e+00 1.286609999999999943e+01 7.043960000000000221e+00 2.035620000000000207e+00 1.286810000000000009e+01 5.280850000000000044e+00 5.080370000000000275e+00 1.286844999999999928e+01 3.520570000000000199e+00 8.126829999999999998e+00 1.286808000000000085e+01 1.020000000000000073e-03 1.722320000000000073e+00 2.075423999999999936e+01 -1.755589999999999984e+00 4.774320000000000341e+00 2.075384999999999991e+01 -3.516049999999999898e+00 7.823179999999999801e+00 2.075752999999999915e+01 3.522619999999999862e+00 1.729149999999999965e+00 2.075339999999999918e+01 1.762129999999999974e+00 4.776659999999999684e+00 2.075306000000000139e+01 -2.490000000000000026e-03 7.826760000000000161e+00 2.075521000000000171e+01 7.043870000000000076e+00 1.729279999999999928e+00 2.075872000000000028e+01 5.286990000000000300e+00 4.775780000000000136e+00 2.075948999999999955e+01 3.521479999999999944e+00 7.820570000000000022e+00 2.075194000000000116e+01 5.279499999999999638e+00 9.143409999999999371e+00 1.105423000000000044e+01 8.793900000000000716e+00 3.052160000000000206e+00 1.105442999999999998e+01 -3.524599999999999955e+00 6.105059999999999931e+00 1.105179000000000045e+01 -1.762659999999999894e+00 9.144489999999999341e+00 1.105621000000000009e+01 1.758140000000000036e+00 3.046839999999999993e+00 1.105341999999999913e+01 -2.050000000000000173e-03 6.099090000000000344e+00 1.105664999999999942e+01 7.042209999999999859e+00 2.480000000000000000e-03 1.105503000000000036e+01 5.285429999999999851e+00 3.051940000000000097e+00 1.105729000000000006e+01 3.519179999999999975e+00 6.102020000000000444e+00 1.105775000000000041e+01 1.761570000000000080e+00 2.740600000000000147e+00 1.894675000000000153e+01 -2.969999999999999984e-03 5.789970000000000283e+00 1.895151999999999859e+01 -1.767919999999999936e+00 8.835140000000000882e+00 1.894425000000000026e+01 5.287099999999999689e+00 2.744660000000000100e+00 1.894865000000000066e+01 3.526759999999999895e+00 5.791559999999999597e+00 1.894595999999999947e+01 1.759819999999999940e+00 8.841749999999999332e+00 1.894217000000000084e+01 8.803179999999999339e+00 2.745420000000000194e+00 1.894197000000000131e+01 7.041479999999999961e+00 5.788920000000000066e+00 1.894018000000000157e+01 5.278069999999999595e+00 8.837500000000000355e+00 1.895225999999999900e+01
-5.409999999999999878e-03 2.037739999999999885e+00 9.250370000000000203e+00 -1.758799999999999919e+00 5.079550000000000232e+00 9.244479999999999364e+00 -3.518190000000000150e+00 8.133480000000000487e+00 9.248290000000000788e+00 3.515320000000000000e+00 2.030470000000000219e+00 9.236439999999999984e+00 1.764539999999999997e+00 5.080610000000000070e+00 9.245580000000000354e+00 -1.209000000000000005e-02 8.131809999999999761e+00 9.245459999999999567e+00 7.038719999999999644e+00 2.021900000000000031e+00 9.246050000000000324e+00 5.272949999999999804e+00 5.082069999999999865e+00 9.241220000000000212e+00 3.520739999999999981e+00 8.128880000000000550e+00 9.241669999999999163e+00 1.046000000000000055e-02 1.736860000000000070e+00 1.713150999999999868e+01 -1.765660000000000007e+00 4.770950000000000024e+00 1.712147999999999826e+01 -3.521939999999999849e+00 7.818459999999999965e+00 1.713849000000000089e+01 3.515709999999999891e+00 1.726460000000000106e+00 1.713431999999999888e+01 1.757149999999999990e+00 4.777540000000000120e+00 1.713097000000000136e+01 -1.529999999999999893e-03 7.826749999999999652e+00 1.712864000000000075e+01 7.040049999999999919e+00 1.726830000000000087e+00 1.713651000000000124e+01 5.281699999999999839e+00 4.769929999999999559e+00 1.712978000000000023e+01 3.512880000000000003e+00 7.829880000000000173e+00 1.712628000000000128e+01 -1.600000000000000077e-03 2.033549999999999969e+00 1.287071000000000076e+01 -1.746909999999999963e+00 5.079519999999999591e+00 1.286121999999999943e+01 -3.525310000000000166e+00 8.123200000000000642e+00 1.286406000000000027e+01 3.519509999999999916e+00 2.029770000000000074e+00 1.287560000000000038e+01 1.754320000000000102e+00 5.087340000000000195e+00 1.286588000000000065e+01 -6.289999999999999584e-03 8.124769999999999825e+00 1.286639000000000088e+01 7.045930000000000248e+00 2.037279999999999980e+00 1.286938999999999922e+01 5.281279999999999752e+00 5.080230000000000246e+00 1.286991000000000085e+01 3.520859999999999879e+00 8.125719999999999388e+00 1.286935000000000073e+01 1.520000000000000084e-03 1.719780000000000086e+00 2.075386999999999915e+01 -1.753409999999999913e+00 4.773550000000000182e+00 2.075328000000000017e+01 -3.514100000000000001e+00 7.822619999999999685e+00 2.075880000000000081e+01 3.523919999999999941e+00 1.729999999999999982e+00 2.075261000000000067e+01 1.763200000000000101e+00 4.777059999999999640e+00 2.075209999999999866e+01 -3.729999999999999809e-03 7.828020000000000422e+00 2.075531000000000148e+01 7.045819999999999972e+00 1.730199999999999960e+00 2.076058000000000092e+01 5.290479999999999627e+00 4.775750000000000384e+00 2.076172000000000040e+01 3.522209999999999841e+00 7.818730000000000402e+00 2.075043000000000148e+01 5.279239999999999711e+00 9.142530000000000712e+00 1.105383999999999922e+01 8.790889999999999205e+00 3.054009999999999891e+00 1.105411999999999928e+01 -3.526860000000000106e+00 6.109099999999999753e+00 1.105016999999999960e+01 -1.763989999999999947e+00 9.144149999999999778e+00 1.105680000000000085e+01 1.757230000000000070e+00 3.046069999999999833e+00 1.105264000000000024e+01 -3.040000000000000167e-03 6.100209999999999688e+00 1.105739999999999945e+01 7.043289999999999829e+00 3.700000000000000164e-03 1.105503000000000036e+01 5.288090000000000401e+00 3.053669999999999884e+00 1.105838999999999928e+01 3.518780000000000019e+00 6.104589999999999961e+00 1.105907999999999980e+01 1.762350000000000083e+00 2.739149999999999974e+00 1.894763999999999982e+01 -4.440000000000000370e-03 5.788979999999999571e+00 1.895470999999999862e+01 -1.771819999999999951e+00 8.832560000000000855e+00 1.894388999999999967e+01 5.290600000000000414e+00 2.745200000000000085e+00 1.895046999999999926e+01 3.530110000000000081e+00 5.791339999999999932e+00 1.894641999999999982e+01 1.759730000000000016e+00 8.842420000000000613e+00 1.894080999999999904e+01 8.804769999999999541e+00 2.746319999999999872e+00 1.894048000000000087e+01 7.042220000000000368e+00 5.787379999999999747e+00 1.893783000000000172e+01 5.277120000000000033e+00 8.836069999999999425e+00 1.895580999999999960e+01
-7.219999999999999855e-03 2.039540000000000131e+00 9.252129999999999299e+00 -1.758429999999999938e+00 5.079200000000000159e+00 9.244279999999999831e+00 -3.517599999999999838e+00 8.134949999999999903e+00 9.249320000000000874e+00 3.513790000000000191e+00 2.029889999999999972e+00 9.233650000000000801e+00 1.766029999999999989e+00 5.080599999999999561e+00 9.245779999999999887e+00 -1.607000000000000095e-02 8.132720000000000837e+00 9.245609999999999218e+00 7.038289999999999935e+00 2.018489999999999895e+00 9.246359999999999246e+00 5.270620000000000083e+00 5.082539999999999836e+00 9.239969999999999573e+00 3.520980000000000221e+00 8.128819999999999268e+00 9.240560000000000329e+00 1.392000000000000008e-02 1.739940000000000042e+00 1.713053999999999988e+01 -1.767509999999999915e+00 4.769339999999999691e+00 1.711718000000000117e+01 -3.522619999999999862e+00 7.816539999999999822e+00 1.713980000000000103e+01 3.514320000000000110e+00 1.726140000000000008e+00 1.713429000000000002e+01 1.756219999999999892e+00 4.778100000000000236e+00 1.712985000000000113e+01 -2.060000000000000199e-03 7.827549999999999564e+00 1.712675000000000125e+01 7.040079999999999671e+00 1.726639999999999953e+00 1.713716000000000150e+01 5.282269999999999577e+00 4.767960000000000420e+00 1.712821999999999889e+01 3.510549999999999837e+00 7.831730000000000302e+00 1.712359000000000009e+01 -2.139999999999999975e-03 2.033980000000000121e+00 1.287238999999999933e+01 -1.742629999999999901e+00 5.079170000000000407e+00 1.285979999999999990e+01 -3.527070000000000149e+00 8.121270000000000877e+00 1.286359999999999992e+01 3.519350000000000200e+00 2.028960000000000097e+00 1.287889999999999979e+01 1.752450000000000063e+00 5.089529999999999887e+00 1.286599000000000004e+01 -8.359999999999999376e-03 8.123369999999999536e+00 1.286668000000000056e+01 7.047889999999999766e+00 2.038940000000000197e+00 1.287068000000000012e+01 5.281710000000000349e+00 5.080110000000000348e+00 1.287134999999999962e+01 3.521139999999999937e+00 8.124629999999999797e+00 1.287063000000000024e+01 2.030000000000000120e-03 1.717260000000000009e+00 2.075350999999999857e+01 -1.751249999999999973e+00 4.772780000000000022e+00 2.075272999999999968e+01 -3.512160000000000171e+00 7.822049999999999947e+00 2.076006999999999891e+01 3.525230000000000086e+00 1.730830000000000091e+00 2.075181999999999860e+01 1.764270000000000005e+00 4.777449999999999974e+00 2.075114999999999910e+01 -4.959999999999999999e-03 7.829270000000000174e+00 2.075540000000000163e+01 7.047769999999999868e+00 1.731100000000000083e+00 2.076241999999999877e+01 5.293969999999999843e+00 4.775730000000000253e+00 2.076395000000000124e+01 3.522920000000000051e+00 7.816900000000000404e+00 2.074895000000000067e+01 5.278970000000000162e+00 9.141669999999999519e+00 1.105347000000000079e+01 8.787919999999999732e+00 3.055820000000000203e+00 1.105382999999999960e+01 -3.529090000000000060e+00 6.113059999999999938e+00 1.104859000000000080e+01 -1.765330000000000066e+00 9.143829999999999458e+00 1.105739999999999945e+01 1.756350000000000078e+00 3.045319999999999805e+00 1.105189999999999984e+01 -4.009999999999999676e-03 6.101329999999999920e+00 1.105809999999999960e+01 7.044340000000000046e+00 4.870000000000000197e-03 1.105507000000000062e+01 5.290680000000000049e+00 3.055349999999999788e+00 1.105946999999999925e+01 3.518380000000000063e+00 6.107109999999999594e+00 1.106038999999999994e+01 1.763139999999999930e+00 2.737740000000000062e+00 1.894849999999999923e+01 -5.910000000000000323e-03 5.788020000000000387e+00 1.895777999999999963e+01 -1.775649999999999951e+00 8.830019999999999314e+00 1.894351999999999947e+01 5.294069999999999609e+00 2.745730000000000004e+00 1.895225999999999900e+01 3.533440000000000136e+00 5.791109999999999758e+00 1.894682999999999851e+01 1.759630000000000027e+00 8.843090000000000117e+00 1.893947999999999965e+01 8.806350000000000122e+00 2.747209999999999930e+00 1.893900999999999968e+01 7.042970000000000397e+00 5.785840000000000316e+00 1.893552999999999997e+01 5.276189999999999714e+00 8.834649999999999892e+00 1.895925000000000082e+01
-9.029999999999999832e-03 2.041319999999999801e+00 9.253880000000000550e+00 -1.758070000000000022e+00 5.078870000000000218e+00 9.244089999999999918e+00 -3.517030000000000101e+00 8.136419999999999320e+00 9.250310000000000699e+00 3.512290000000000134e+00 2.029310000000000169e+00 9.230900000000000105e+00 1.767509999999999915e+00 5.080599999999999561e+00 9.245990000000000819e+00 -2.001999999999999960e-02 8.133620000000000516e+00 9.245760000000000645e+00 7.037849999999999717e+00 2.015120000000000022e+00 9.246660000000000323e+00 5.268299999999999983e+00 5.083020000000000316e+00 9.238730000000000331e+00 3.521220000000000017e+00 8.128759999999999764e+00 9.239440000000000097e+00 1.736000000000000043e-02 1.742960000000000065e+00 1.712959999999999994e+01 -1.769320000000000004e+00 4.767750000000000377e+00 1.711291999999999902e+01 -3.523330000000000073e+00 7.814630000000000187e+00 1.714107999999999876e+01 3.512950000000000017e+00 1.725800000000000001e+00 1.713429000000000002e+01 1.755290000000000017e+00 4.778660000000000352e+00 1.712877999999999901e+01 -2.599999999999999881e-03 7.828319999999999723e+00 1.712489000000000061e+01 7.040110000000000312e+00 1.726450000000000040e+00 1.713781000000000176e+01 5.282829999999999693e+00 4.765990000000000393e+00 1.712667000000000073e+01 3.508249999999999869e+00 7.833569999999999922e+00 1.712093000000000131e+01 -2.690000000000000117e-03 2.034409999999999830e+00 1.287405000000000044e+01 -1.738429999999999920e+00 5.078850000000000087e+00 1.285838999999999999e+01 -3.528820000000000068e+00 8.119369999999999976e+00 1.286317000000000021e+01 3.519200000000000106e+00 2.028160000000000185e+00 1.288213999999999970e+01 1.750599999999999934e+00 5.091689999999999827e+00 1.286609999999999943e+01 -1.041000000000000085e-02 8.121999999999999886e+00 1.286697000000000024e+01 7.049830000000000041e+00 2.040579999999999838e+00 1.287198000000000064e+01 5.282130000000000436e+00 5.080009999999999692e+00 1.287278000000000056e+01 3.521409999999999929e+00 8.123580000000000467e+00 1.287190999999999974e+01 2.530000000000000131e-03 1.714760000000000062e+00 2.075318000000000040e+01 -1.749120000000000008e+00 4.772009999999999863e+00 2.075219999999999843e+01 -3.510250000000000092e+00 7.821449999999999569e+00 2.076135000000000019e+01 3.526539999999999786e+00 1.731640000000000068e+00 2.075103999999999971e+01 1.765360000000000040e+00 4.777840000000000309e+00 2.075020999999999916e+01 -6.190000000000000190e-03 7.830530000000000435e+00 2.075549000000000177e+01 7.049739999999999895e+00 1.731989999999999919e+00 2.076424000000000092e+01 5.297450000000000436e+00 4.775710000000000122e+00 2.076616999999999891e+01 3.523600000000000065e+00 7.815080000000000027e+00 2.074749999999999872e+01 5.278669999999999973e+00 9.140840000000000742e+00 1.105312999999999946e+01 8.785000000000000142e+00 3.057580000000000187e+00 1.105354999999999954e+01 -3.531260000000000066e+00 6.116900000000000226e+00 1.104704000000000086e+01 -1.766680000000000028e+00 9.143560000000000798e+00 1.105803000000000047e+01 1.755509999999999904e+00 3.044610000000000039e+00 1.105123000000000033e+01 -4.939999999999999947e-03 6.102439999999999642e+00 1.105871999999999922e+01 7.045350000000000001e+00 6.000000000000000125e-03 1.105513999999999974e+01 5.293190000000000062e+00 3.056979999999999809e+00 1.106052000000000035e+01 3.517990000000000173e+00 6.109580000000000233e+00 1.106168000000000085e+01 1.763910000000000089e+00 2.736390000000000100e+00 1.894934999999999903e+01 -7.349999999999999763e-03 5.787079999999999558e+00 1.896069999999999922e+01 -1.779390000000000027e+00 8.827540000000000830e+00 1.894314999999999927e+01 5.297469999999999679e+00 2.746249999999999858e+00 1.895400000000000063e+01 3.536719999999999864e+00 5.790869999999999962e+00 1.894716999999999985e+01 1.759509999999999907e+00 8.843740000000000379e+00 1.893819999999999837e+01 8.807919999999999305e+00 2.748069999999999791e+00 1.893756000000000128e+01 7.043730000000000047e+00 5.784299999999999997e+00 1.893328999999999951e+01 5.275290000000000035e+00 8.833259999999999224e+00 1.896255000000000024e+01
-1.084000000000000068e-02 2.043089999999999851e+00 9.255599999999999383e+00 -1.757749999999999924e+00 5.078570000000000029e+00 9.243890000000000384e+00 -3.516480000000000050e+00 8.137900000000000134e+00 9.251250000000000639e+00 3.510819999999999830e+00 2.028760000000000119e+00 9.228220000000000312e+00 1.768960000000000088e+00 5.080610000000000070e+00 9.246209999999999596e+00 -2.392000000000000029e-02 8.134520000000000195e+00 9.245929999999999538e+00 7.037410000000000387e+00 2.011800000000000033e+00 9.246940000000000381e+00 5.265990000000000393e+00 5.083510000000000417e+00 9.237519999999999953e+00 3.521440000000000126e+00 8.128709999999999880e+00 9.238340000000000884e+00 2.077000000000000027e-02 1.745919999999999916e+00 1.712867999999999924e+01 -1.771090000000000053e+00 4.766169999999999796e+00 1.710868999999999929e+01 -3.524080000000000101e+00 7.812730000000000175e+00 1.714233000000000118e+01 3.511629999999999807e+00 1.725459999999999994e+00 1.713430999999999926e+01 1.754380000000000051e+00 4.779219999999999580e+00 1.712777000000000172e+01 -3.170000000000000075e-03 7.829060000000000130e+00 1.712308000000000163e+01 7.040160000000000196e+00 1.726269999999999971e+00 1.713842999999999961e+01 5.283380000000000187e+00 4.764020000000000366e+00 1.712512999999999863e+01 3.505999999999999783e+00 7.835370000000000168e+00 1.711832000000000065e+01 -3.249999999999999851e-03 2.034829999999999917e+00 1.287565999999999988e+01 -1.734299999999999953e+00 5.078560000000000407e+00 1.285698999999999970e+01 -3.530569999999999986e+00 8.117499999999999716e+00 1.286276999999999937e+01 3.519050000000000011e+00 2.027390000000000025e+00 1.288532999999999973e+01 1.748769999999999936e+00 5.093829999999999636e+00 1.286619999999999919e+01 -1.243999999999999967e-02 8.120670000000000499e+00 1.286725999999999992e+01 7.051759999999999806e+00 2.042219999999999924e+00 1.287327999999999939e+01 5.282560000000000144e+00 5.079939999999999678e+00 1.287419000000000047e+01 3.521679999999999922e+00 8.122560000000000002e+00 1.287320000000000064e+01 3.030000000000000141e-03 1.712299999999999933e+00 2.075285999999999831e+01 -1.747020000000000017e+00 4.771230000000000082e+00 2.075168999999999997e+01 -3.508370000000000211e+00 7.820809999999999818e+00 2.076263000000000147e+01 3.527849999999999930e+00 1.732420000000000071e+00 2.075027000000000044e+01 1.766459999999999919e+00 4.778220000000000134e+00 2.074928999999999846e+01 -7.409999999999999920e-03 7.831780000000000186e+00 2.075557999999999836e+01 7.051739999999999675e+00 1.732869999999999910e+00 2.076604999999999990e+01 5.300930000000000142e+00 4.775699999999999612e+00 2.076836000000000126e+01 3.524249999999999883e+00 7.813270000000000159e+00 2.074608999999999881e+01 5.278360000000000163e+00 9.140060000000000073e+00 1.105283000000000015e+01 8.782149999999999679e+00 3.059280000000000221e+00 1.105329000000000050e+01 -3.533370000000000122e+00 6.120610000000000106e+00 1.104551999999999978e+01 -1.768040000000000056e+00 9.143340000000000245e+00 1.105868000000000073e+01 1.754709999999999992e+00 3.043919999999999959e+00 1.105062999999999995e+01 -5.830000000000000113e-03 6.103530000000000122e+00 1.105926000000000009e+01 7.046310000000000073e+00 7.069999999999999896e-03 1.105524999999999913e+01 5.295589999999999797e+00 3.058539999999999814e+00 1.106152999999999942e+01 3.517599999999999838e+00 6.111989999999999590e+00 1.106295000000000073e+01 1.764690000000000092e+00 2.735100000000000087e+00 1.895016999999999996e+01 -8.779999999999999610e-03 5.786190000000000389e+00 1.896342999999999890e+01 -1.783020000000000049e+00 8.825129999999999697e+00 1.894277999999999906e+01 5.300799999999999734e+00 2.746760000000000090e+00 1.895570000000000022e+01 3.539960000000000218e+00 5.790610000000000035e+00 1.894744000000000028e+01 1.759379999999999944e+00 8.844379999999999242e+00 1.893696999999999875e+01 8.809499999999999886e+00 2.748889999999999834e+00 1.893612999999999857e+01 7.044489999999999696e+00 5.782750000000000057e+00 1.893113999999999919e+01 5.274409999999999599e+00 8.831879999999999953e+00 1.896566999999999936e+01