-3.345493973900000242e+02
-3.345491946000000212e+02
-3.345431615800000031e+02
-3.345319402800000148e+02
-3.345156428500000061e+02
-3.344945726700000250e+02
-3.344696698899999774e+02
-3.344415958899999737e+02
-3.344108937799999808e+02
-3.343779596399999718e+02
-3.341172597799999835e+02
-3.341194594199999983e+02
-3.341172723999999903e+02
-3.341110557700000072e+02
-3.341007461199999966e+02
-3.340868425900000034e+02
-3.340697606400000268e+02
-3.340504602799999816e+02
-3.340294119399999886e+02
-3.340073927600000161e+02
-3.334960928099999933e+02
-3.334920874300000264e+02
-3.334840057499999944e+02
-3.334720747800000140e+02
-3.334567630799999733e+02
-3.334385648400000264e+02
-3.334182702800000015e+02
-3.333964056500000197e+02
-3.333735256499999764e+02
-3.333502974900000027e+02
-3.337395601399999805e+02
-3.337380942799999843e+02
-3.337344476200000258e+02
-3.337286284900000055e+02
-3.337209960100000217e+02
-3.337118458400000236e+02
-3.337017595099999880e+02
-3.336910731099999907e+02
-3.336805206299999895e+02
-3.336702584700000216e+02
-3.339814691299999936e+02
-3.339807510200000138e+02
-3.339757395899999892e+02
-3.339662572099999807e+02
-3.339525754900000152e+02
-3.339351712000000134e+02
-3.339144393700000251e+02
-3.338909205799999995e+02
-3.338652903199999855e+02
-3.338380932900000175e+02
-3.333912694800000054e+02
-3.334030522599999813e+02
-3.334155642100000136e+02
-3.334287004600000159e+02
-3.334425257099999840e+02
-3.334569904699999938e+02
-3.334718525000000113e+02
-3.334869562900000233e+02
-3.335021893399999726e+02
-3.335175886900000251e+02
-3.332443899400000191e+02
-3.332484274899999832e+02
-3.332473134300000197e+02
-3.332412775999999894e+02
-3.332305122000000210e+02
-3.332156502899999850e+02
-3.331971550000000093e+02
-3.331759513499999912e+02
-3.331527644700000224e+02
-3.331283600599999772e+02
-3.344183273699999859e+02
-3.344173621499999740e+02
-3.344114484199999993e+02
-3.344009225500000184e+02
-3.343864031200000113e+02
-3.343677577199999860e+02
-3.343453569700000116e+02
-3.343197713999999792e+02
-3.342916304999999966e+02
-3.342614951699999892e+02
-3.331435842899999784e+02
-3.331418371999999977e+02
-3.331425054000000046e+02
-3.331458098699999937e+02
-3.331513324200000170e+02
-3.331591974799999889e+02
-3.331692338500000119e+02
-3.331814246299999809e+02
-3.331956380999999965e+02
-3.332118692299999907e+02
-3.337207138800000052e+02
-3.337235663399999908e+02
-3.337241435299999921e+02
-3.337222425900000076e+02
-3.337176929099999825e+02
-3.337110881799999902e+02
-3.337024874100000034e+02
-3.336919304499999726e+02
-3.336794709900000271e+02
-3.336654003799999941e+02
-3.341041146300000264e+02
-3.340989334199999803e+02
-3.340899181600000247e+02
-3.340774633899999913e+02
-3.340612725299999966e+02
-3.340418429399999809e+02
-3.340200598399999876e+02
-3.339964591400000131e+02
-3.339716056600000229e+02
-3.339460825799999952e+02
-3.339927513299999760e+02
-3.339981925199999750e+02
-3.339998497099999781e+02
-3.339978430300000127e+02
-3.339923161699999810e+02
-3.339834022000000004e+02
-3.339715912099999855e+02
-3.339571395400000142e+02
-3.339408131299999809e+02
-3.339229648699999871e+02
-3.335483643900000175e+02
-3.335471479199999862e+02
-3.335427533899999730e+02
-3.335351223299999788e+02
-3.335248233099999879e+02
-3.335120749600000067e+02
-3.334973130100000276e+02
-3.334810556200000065e+02
-3.334638524200000234e+02
-3.334464253699999858e+02
-3.334895076199999835e+02
-3.334846593899999903e+02
-3.334753304199999775e+02
-3.334620206700000153e+02
-3.334450891999999840e+02
-3.334250890899999717e+02
-3.334024789000000055e+02
-3.333777625899999748e+02
-3.333516482499999825e+02
-3.333249280800000065e+02
-3.338375049599999898e+02
-3.338418646000000081e+02
-3.338430442599999992e+02
-3.338408999399999857e+02
-3.338359954399999765e+02
-3.338284694399999921e+02
-3.338189926900000160e+02
-3.338079716699999722e+02
-3.337962176199999931e+02
-3.337842742899999848e+02
-3.333770252200000073e+02
-3.333776348100000178e+02
-3.333738545699999918e+02
-3.333660019800000214e+02
-3.333543122400000129e+02
-3.333391277299999729e+02
-3.333206683399999974e+02
-3.332996476499999972e+02
-3.332762459900000067e+02
-3.332512119699999857e+02
-3.343873245300000008e+02
-3.343818871899999863e+02
-3.343713012100000128e+02
-3.343561512300000231e+02
-3.343372728400000256e+02
-3.343146394600000235e+02
-3.342887287600000263e+02
-3.342604972500000144e+02
-3.342303768400000195e+02
-3.341987705500000061e+02
-3.337282161100000053e+02
-3.337282946299999935e+02
-3.337244696600000111e+02
-3.337170855800000027e+02
-3.337063358400000084e+02
-3.336926351500000010e+02
-3.336762095899999849e+02
-3.336577854899999807e+02
-3.336378103399999873e+02
-3.336169719000000100e+02
-3.339694474199999945e+02
-3.339683860499999923e+02
-3.339621997699999838e+02
-3.339510159999999814e+02
-3.339350773099999969e+02
-3.339146764600000097e+02
-3.338905227299999865e+02
-3.338631782300000168e+02
-3.338335405299999934e+02
-3.338020530100000087e+02
-3.321643919499999811e+02
-3.321717306900000040e+02
-3.321845127700000262e+02
-3.322027587499999868e+02
-3.322263615599999866e+02
-3.322552575099999785e+02
-3.322893545200000176e+02
-3.323285690800000225e+02
-3.323728579400000172e+02
-3.324220372400000088e+02
-3.342501945700000192e+02
-3.342489643800000181e+02
-3.342433741899999973e+02
-3.342337935799999968e+02
-3.342204115399999864e+02
-3.342032889000000182e+02
-3.341830241800000181e+02
-3.341599012099999868e+02
-3.341345801599999845e+02
-3.341074967100000208e+02
-3.332034407200000032e+02
-3.332021202500000072e+02
-3.331987449999999740e+02
-3.331938305200000059e+02
-3.331884168799999770e+02
-3.331827239899999995e+02
-3.331775586300000214e+02
-3.331734867100000201e+02
-3.331710499399999890e+02
-3.331709961999999905e+02
-3.341364745600000106e+02
-3.341338893899999789e+02
-3.341264498300000128e+02
-3.341143976399999929e+02
-3.340976984999999786e+02
-3.340766435599999795e+02
-3.340517747000000099e+02
-3.340239505600000030e+02
-3.339937298899999973e+02
-3.339617759199999796e+02
-3.333705248599999891e+02
-3.333688461699999834e+02
-3.333663079599999719e+02
-3.333629832899999883e+02
-3.333590758099999789e+02
-3.333547630099999992e+02
-3.333502263999999968e+02
-3.333459405400000151e+02
-3.333418059399999720e+02
-3.333380462700000066e+02
-3.323694382900000051e+02
-3.323627154600000040e+02
-3.323574121500000160e+02
-3.323534895500000061e+02
-3.323516435399999978e+02
-3.323523451099999875e+02
-3.323560516300000245e+02
-3.323633166299999857e+02
-3.323744601199999806e+02
-3.323901877999999783e+02
-3.339605260299999827e+02
-3.339609292999999752e+02
-3.339570094900000186e+02
-3.339488519399999973e+02
-3.339367727599999967e+02
-3.339211065499999904e+02
-3.339024691399999938e+02
-3.338815524199999913e+02
-3.338587235599999872e+02
-3.338347883100000217e+02
-3.322181202500000268e+02
-3.322263337100000058e+02
-3.322388731899999925e+02
-3.322560025000000223e+02
-3.322776026199999819e+02
-3.323035290799999757e+02
-3.323340403799999763e+02
-3.323688011500000243e+02
-3.324078269099999829e+02
-3.324510354899999811e+02
-3.339863119500000153e+02
-3.339854474399999731e+02
-3.339817428200000222e+02
-3.339750219900000161e+02
-3.339654326699999842e+02
-3.339532575700000052e+02
-3.339385941499999717e+02
-3.339217444600000135e+02
-3.339031466000000137e+02
-3.338831222399999774e+02
-3.341745762300000138e+02
-3.341767505000000256e+02
-3.341751605800000107e+02
-3.341699941399999716e+02
-3.341613877199999934e+02
-3.341497719999999845e+02
-3.341356423099999802e+02
-3.341195738700000106e+02
-3.341019400299999802e+02
-3.340834213800000043e+02
-3.338236586400000192e+02
-3.338215827099999728e+02
-3.338196643699999981e+02
-3.338179070499999739e+02
-3.338162392799999907e+02
-3.338149328399999831e+02
-3.338141693599999940e+02
-3.338138695800000164e+02
-3.338144380100000035e+02
-3.338158848599999828e+02
-3.338458231800000249e+02
-3.338442024400000037e+02
-3.338378398199999992e+02
-3.338267328200000179e+02
-3.338116813099999831e+02
-3.337928384699999924e+02
-3.337708939799999825e+02
-3.337463029699999879e+02
-3.337197036200000184e+02
-3.336920860199999765e+02
-3.339483152399999994e+02
-3.339463946500000020e+02
-3.339401208400000201e+02
-3.339299643900000092e+02
-3.339162436799999796e+02
-3.338994470499999920e+02
-3.338801480700000184e+02
-3.338588697199999729e+02
-3.338361741599999846e+02
-3.338125287699999717e+02
-3.326172139099999754e+02
-3.326322014200000012e+02
-3.326521146000000044e+02
-3.326763355900000079e+02
-3.327044775900000104e+02
-3.327363937299999748e+02
-3.327717367899999772e+02
-3.328101208900000074e+02
-3.328512438500000030e+02
-3.328943195599999854e+02
-3.336187647599999764e+02
-3.336247659499999827e+02
-3.336288461899999902e+02
-3.336308957800000030e+02
-3.336311931899999763e+02
-3.336299990200000138e+02
-3.336274153599999863e+02
-3.336235728899999913e+02
-3.336193298900000173e+02
-3.336148147000000108e+02
-3.337189132899999890e+02
-3.337211136099999749e+02
-3.337214576599999987e+02
-3.337199658299999783e+02
-3.337166796399999953e+02
-3.337121921899999961e+02
-3.337069246899999939e+02
-3.337013922400000183e+02
-3.336959173600000099e+02
-3.336912119899999993e+02
-3.342264989399999990e+02
-3.342292336400000181e+02
-3.342284931099999881e+02
-3.342246976000000132e+02
-3.342175372799999877e+02
-3.342073713600000247e+02
-3.341945550799999864e+02
-3.341795914599999833e+02
-3.341627424399999882e+02
-3.341448177999999984e+02
-3.333109415999999783e+02
-3.333121850399999744e+02
-3.333150116900000057e+02
-3.333191789800000038e+02
-3.333251500700000065e+02
-3.333329778199999964e+02
-3.333429034000000115e+02
-3.333550880299999903e+02
-3.333696231999999782e+02
-3.333867985599999884e+02
-3.340102947500000141e+02
-3.340020437599999923e+02
-3.339907547700000237e+02
-3.339766444699999965e+02
-3.339599134800000115e+02
-3.339411485200000129e+02
-3.339207840299999930e+02
-3.338995009500000037e+02
-3.338777504399999998e+02
-3.338561992799999985e+02
-3.327620752299999936e+02
-3.327766115800000080e+02
-3.327926116300000103e+02
-3.328100086800000099e+02
-3.328288417699999968e+02
-3.328493707800000152e+02
-3.328719810200000211e+02
-3.328968840000000000e+02
-3.329241724600000225e+02
-3.329537042599999950e+02
-3.339747733799999878e+02
-3.339774631399999976e+02
-3.339775969600000280e+02
-3.339753434099999936e+02
-3.339708692199999973e+02
-3.339644015800000147e+02
-3.339560804199999779e+02
-3.339464496499999768e+02
-3.339358985200000234e+02
-3.339246889400000100e+02
-3.314409418299999857e+02
-3.314440902900000196e+02
-3.314507927299999892e+02
-3.314611715600000252e+02
-3.314748081600000091e+02
-3.314918480200000204e+02
-3.315123062600000026e+02
-3.315360243200000241e+02
-3.315630769800000053e+02
-3.315935736299999803e+02
-3.338021702699999764e+02
-3.338078437600000257e+02
-3.338112786099999880e+02
-3.338124990800000091e+02
-3.338117028300000015e+02
-3.338089420900000164e+02
-3.338047101500000053e+02
-3.337997193400000242e+02
-3.337943695299999831e+02
-3.337893406700000014e+02
-3.327917695300000105e+02
-3.328106903799999827e+02
-3.328330364500000087e+02
-3.328585265099999901e+02
-3.328869596000000115e+02
-3.329180598699999791e+02
-3.329513721199999736e+02
-3.329862908399999810e+02
-3.330226906400000075e+02
-3.330600331200000142e+02
-3.339601348699999903e+02
-3.339665653800000200e+02
-3.339717443800000183e+02
-3.339759253199999876e+02
-3.339791608699999870e+02
-3.339814736199999743e+02
-3.339827159899999742e+02
-3.339833565100000214e+02
-3.339836064400000168e+02
-3.339834243500000071e+02
-3.338543676799999957e+02
-3.338514829499999905e+02
-3.338449243000000024e+02
-3.338349247200000036e+02
-3.338216206100000250e+02
-3.338056518199999800e+02
-3.337872595200000205e+02
-3.337670181699999716e+02
-3.337455122800000140e+02
-3.337234816900000283e+02
-3.336806929399999717e+02
-3.336744595100000197e+02
-3.336653732999999988e+02
-3.336535085900000013e+02
-3.336391632200000004e+02
-3.336225227699999891e+02
-3.336039800799999853e+02
-3.335841371800000275e+02
-3.335632306300000209e+02
-3.335415876499999968e+02
-3.333958736999999815e+02
-3.333898135599999932e+02
-3.333811072699999727e+02
-3.333700476000000208e+02
-3.333572293799999784e+02
-3.333432685600000127e+02
-3.333286381899999924e+02
-3.333137960999999905e+02
-3.332996261100000197e+02
-3.332867668499999922e+02
-3.329953014600000074e+02
-3.329987094200000115e+02
-3.330009736200000248e+02
-3.330021288099999879e+02
-3.330024324099999831e+02
-3.330023214099999791e+02
-3.330024884399999792e+02
-3.330033441900000071e+02
-3.330055466100000103e+02
-3.330096040500000072e+02
-3.343884792800000127e+02
-3.343875949900000251e+02
-3.343822059699999727e+02
-3.343720436899999982e+02
-3.343575035599999978e+02
-3.343391442999999867e+02
-3.343173009000000206e+02
-3.342925981500000034e+02
-3.342654277699999739e+02
-3.342363969699999870e+02
-3.341553625700000225e+02
-3.341543242899999768e+02
-3.341509834299999966e+02
-3.341453677299999754e+02
-3.341380349400000114e+02
-3.341292612999999960e+02
-3.341191220700000031e+02
-3.341079293199999825e+02
-3.340960240499999827e+02
-3.340838676299999861e+02
-3.333074346099999730e+02
-3.333301945700000033e+02
-3.333539769700000193e+02
-3.333781122299999993e+02
-3.334024216199999842e+02
-3.334266474600000265e+02
-3.334502849900000001e+02
-3.334730216400000131e+02
-3.334950863500000082e+02
-3.335164128399999868e+02
-3.334285824799999887e+02
-3.334395860100000277e+02
-3.334505139699999745e+02
-3.334613316400000258e+02
-3.334719109900000262e+02
-3.334822033500000202e+02
-3.334923213100000225e+02
-3.335026612400000090e+02
-3.335130164199999854e+02
-3.335239016699999866e+02
-3.344339981100000045e+02
-3.344306668300000069e+02
-3.344222703600000273e+02
-3.344089874699999996e+02
-3.343912697200000252e+02
-3.343699927200000275e+02
-3.343452609700000266e+02
-3.343175322700000152e+02
-3.342873685000000137e+02
-3.342553189899999779e+02
-3.338454263799999922e+02
-3.338468654000000129e+02
-3.338438425400000256e+02
-3.338362841200000162e+02
-3.338245970099999909e+02
-3.338088444100000061e+02
-3.337896371699999918e+02
-3.337675019700000121e+02
-3.337428272299999890e+02
-3.337163171000000261e+02
-3.337119173799999885e+02
-3.337173549799999819e+02
-3.337205995300000154e+02
-3.337216294400000152e+02
-3.337206190100000072e+02
-3.337179034299999785e+02
-3.337135044600000242e+02
-3.337077711100000101e+02
-3.337008268399999906e+02
-3.336933050200000253e+02
-3.339745563299999844e+02
-3.339768350300000179e+02
-3.339748337099999844e+02
-3.339687110500000244e+02
-3.339584933799999931e+02
-3.339444467499999973e+02
-3.339270713000000228e+02
-3.339067638899999793e+02
-3.338841235400000187e+02
-3.338595749799999908e+02
-3.341020818900000222e+02
-3.341013547900000162e+02
-3.340962300599999821e+02
-3.340866985200000272e+02
-3.340731149000000073e+02
-3.340560894500000018e+02
-3.340358424699999773e+02
-3.340129199099999937e+02
-3.339883253200000013e+02
-3.339628045700000030e+02
-3.335526838800000178e+02
-3.335584834599999908e+02
-3.335634754800000223e+02
-3.335675755999999978e+02
-3.335710896900000080e+02
-3.335744283999999880e+02
-3.335775919899999735e+02
-3.335810667800000147e+02
-3.335854255899999998e+02
-3.335911692199999834e+02
-3.339944346300000007e+02
-3.339927630799999747e+02
-3.339870108299999742e+02
-3.339772965000000227e+02
-3.339641341399999988e+02
-3.339479389599999877e+02
-3.339294088099999840e+02
-3.339088613200000282e+02
-3.338868301900000120e+02
-3.338640879000000155e+02
-3.320218304100000069e+02
-3.320307407999999896e+02
-3.320400242800000115e+02
-3.320498715499999776e+02
-3.320606780200000117e+02
-3.320724092199999973e+02
-3.320854509800000187e+02
-3.321001410399999827e+02
-3.321163297699999930e+02
-3.321343770400000039e+02
-3.332310057000000256e+02
-3.332391844599999899e+02
-3.332496158800000217e+02
-3.332623151700000221e+02
-3.332768389099999808e+02
-3.332930176699999834e+02
-3.333104848500000230e+02
-3.333294145400000161e+02
-3.333495984699999894e+02
-3.333708914800000116e+02
-3.332201853299999925e+02
-3.332142917200000056e+02
-3.332081610999999839e+02
-3.332017794899999785e+02
-3.331955395499999781e+02
-3.331895616799999971e+02
-3.331843075200000044e+02
-3.331796909600000163e+02
-3.331762700300000120e+02
-3.331738593900000183e+02
-3.337549177700000200e+02
-3.337527964299999894e+02
-3.337484056700000110e+02
-3.337419496499999809e+02
-3.337334077200000024e+02
-3.337231566400000133e+02
-3.337115683600000011e+02
-3.336993168999999853e+02
-3.336864625800000113e+02
-3.336738450700000271e+02
-3.333561928500000136e+02
-3.333541936199999896e+02
-3.333515866399999936e+02
-3.333485249700000281e+02
-3.333455577500000118e+02
-3.333430238600000166e+02
-3.333410945499999798e+02
-3.333402658499999802e+02
-3.333409712399999876e+02
-3.333435739000000240e+02
-3.343268999699999995e+02
-3.343249138499999731e+02
-3.343192977599999836e+02
-3.343100101300000233e+02
-3.342973498599999971e+02
-3.342813308099999858e+02
-3.342627752199999804e+02
-3.342421160499999928e+02
-3.342198291000000268e+02
-3.341961612000000059e+02
-3.339618668699999944e+02
-3.339605348299999719e+02
-3.339557805200000189e+02
-3.339478548899999737e+02
-3.339367174299999874e+02
-3.339228504100000237e+02
-3.339064849399999844e+02
-3.338878814199999852e+02
-3.338679829600000062e+02
-3.338470282600000019e+02
-3.338089546100000007e+02
-3.338015937100000201e+02
-3.337917230799999970e+02
-3.337797203900000227e+02
-3.337658556299999759e+02
-3.337504354199999739e+02
-3.337340459999999780e+02
-3.337175215500000149e+02
-3.337011917099999891e+02
-3.336856115400000249e+02
-3.343128570000000082e+02
-3.343123855800000115e+02
-3.343081526400000030e+02
-3.343001203000000032e+02
-3.342889812700000221e+02
-3.342746926899999949e+02
-3.342579128799999921e+02
-3.342388695700000198e+02
-3.342183978300000149e+02
-3.341966975700000262e+02
-3.334783756300000164e+02
-3.334752308500000026e+02
-3.334719512600000257e+02
-3.334691337799999928e+02
-3.334670928699999877e+02
-3.334660053200000220e+02
-3.334661671200000228e+02
-3.334676475699999969e+02
-3.334705370300000027e+02
-3.334748210100000279e+02
-3.340481702199999745e+02
-3.340426566599999774e+02
-3.340332622199999832e+02
-3.340199191400000132e+02
-3.340031233799999768e+02
-3.339836492800000087e+02
-3.339615191899999900e+02
-3.339376611999999795e+02
-3.339128831500000274e+02
-3.338876593300000195e+02
-3.338467479700000240e+02
-3.338458612000000016e+02
-3.338411073899999906e+02
-3.338326023399999940e+02
-3.338205760100000248e+02
-3.338056612799999812e+02
-3.337881170100000077e+02
-3.337686353700000268e+02
-3.337476423499999783e+02
-3.337256419999999935e+02
-3.341594825700000229e+02
-3.341554688100000021e+02
-3.341465388099999814e+02
-3.341330761699999812e+02
-3.341153126099999895e+02
-3.340935382700000105e+02
-3.340685398400000281e+02
-3.340406432199999927e+02
-3.340105624899999839e+02
-3.339789232300000208e+02
-3.339600416900000255e+02
-3.339630020800000239e+02
-3.339618291300000124e+02
-3.339568037500000059e+02
-3.339481220700000108e+02
-3.339367037499999924e+02
-3.339232107799999767e+02
-3.339081756200000086e+02
-3.338920993400000157e+02
-3.338754698000000189e+02
-3.338613207399999965e+02
-3.338652791200000252e+02
-3.338689832599999932e+02
-3.338722473799999761e+02
-3.338754000199999723e+02
-3.338784619099999986e+02
-3.338815198899999928e+02
-3.338849620699999718e+02
-3.338886574300000234e+02
-3.338926449599999842e+02
-3.335413465099999826e+02
-3.335415503799999897e+02
-3.335394426899999871e+02
-3.335351634300000114e+02
-3.335292100699999764e+02
-3.335218138199999771e+02
-3.335131059899999855e+02
-3.335030750999999896e+02
-3.334925569200000268e+02
-3.334815419999999904e+02
-3.333053350499999965e+02
-3.333022367699999791e+02
-3.332941405299999929e+02
-3.332814218699999742e+02
-3.332646176200000241e+02
-3.332442864299999883e+02
-3.332213628200000244e+02
-3.331967764500000158e+02
-3.331715224800000215e+02
-3.331464857999999936e+02
-3.337167517699999735e+02
-3.337228541399999813e+02
-3.337264447599999926e+02
-3.337272565100000179e+02
-3.337254971500000238e+02
-3.337215213800000129e+02
-3.337155932699999994e+02
-3.337081551699999977e+02
-3.336995028700000034e+02
-3.336903794099999914e+02
-3.336993751100000054e+02
-3.337049956700000166e+02
-3.337109478400000171e+02
-3.337170839400000091e+02
-3.337233850800000141e+02
-3.337297122300000183e+02
-3.337363707399999839e+02
-3.337431883200000016e+02
-3.337503785100000187e+02
-3.337580578899999750e+02
-3.336968532399999958e+02
-3.336941327900000260e+02
-3.336873509600000034e+02
-3.336760418299999742e+02
-3.336607410400000049e+02
-3.336424602000000164e+02
-3.336216590099999735e+02
-3.335987779399999908e+02
-3.335746518299999934e+02
-3.335497610599999803e+02
-3.338282264700000042e+02
-3.338263043300000277e+02
-3.338179901600000221e+02
-3.338036707399999727e+02
-3.337837886500000195e+02
-3.337587665099999867e+02
-3.337295552200000088e+02
-3.336968041100000164e+02
-3.336615254299999833e+02
-3.336245708700000137e+02
-3.336938357099999735e+02
-3.336871340899999723e+02
-3.336766377700000135e+02
-3.336628847299999734e+02
-3.336460015299999782e+02
-3.336264801899999952e+02
-3.336047321600000259e+02
-3.335812825300000100e+02
-3.335567267100000208e+02
-3.335316303299999845e+02
-3.338207487099999753e+02
-3.338164204700000255e+02
-3.338093143500000224e+02
-3.337994283400000199e+02
-3.337868833699999982e+02
-3.337723255099999733e+02
-3.337561457699999892e+02
-3.337391339000000130e+02
-3.337214866799999982e+02
-3.337036416199999849e+02
-3.331210429700000191e+02
-3.331298786199999995e+02
-3.331392403799999897e+02
-3.331493434399999956e+02
-3.331600424200000248e+02
-3.331715218900000082e+02
-3.331836512300000095e+02
-3.331963836699999888e+02
-3.332099386900000013e+02
-3.332241906799999924e+02
-3.337742837999999779e+02
-3.337780258600000138e+02
-3.337791682299999820e+02
-3.337775909100000149e+02
-3.337734676300000274e+02
-3.337669680800000265e+02
-3.337583522900000048e+02
-3.337482917899999961e+02
-3.337370428799999900e+02
-3.337250257100000113e+02
-3.337950436500000251e+02
-3.337956625799999983e+02
-3.337949410599999851e+02
-3.337930336000000011e+02
-3.337891286199999854e+02
-3.337842169699999886e+02
-3.337784693500000230e+02
-3.337720405300000266e+02
-3.337651804800000264e+02
-3.337582878499999879e+02
-3.342348665000000096e+02
-3.342312183099999743e+02
-3.342238259700000071e+02
-3.342131546599999865e+02
-3.341991277899999773e+02
-3.341820894300000191e+02
-3.341630568499999754e+02
-3.341425035699999739e+02
-3.341208490199999801e+02
-3.340990412300000116e+02
-3.331031726200000094e+02
-3.331123419599999806e+02
-3.331236848899999927e+02
-3.331370509800000264e+02
-3.331524338799999896e+02
-3.331696859300000142e+02
-3.331886851200000024e+02
-3.332096696400000155e+02
-3.332326164899999981e+02
-3.332577331699999945e+02
-3.330901727500000220e+02
-3.330888158500000031e+02
-3.330839492800000130e+02
-3.330759043900000052e+02
-3.330650189899999987e+02
-3.330516999700000156e+02
-3.330364118499999790e+02
-3.330192821900000126e+02
-3.330012796600000229e+02
-3.329832699599999728e+02
-3.339510931400000118e+02
-3.339465646599999786e+02
-3.339386523599999919e+02
-3.339276493799999912e+02
-3.339139137899999810e+02
-3.338981074600000056e+02
-3.338807241700000077e+02
-3.338628033699999946e+02
-3.338448781100000247e+02
-3.338274809499999947e+02
-3.336571229599999810e+02
-3.336523718199999848e+02
-3.336446776500000055e+02
-3.336342891799999961e+02
-3.336219004000000155e+02
-3.336080026000000203e+02
-3.335932271300000025e+02
-3.335782616899999766e+02
-3.335637045999999941e+02
-3.335501376099999788e+02
-3.330159874899999863e+02
-3.330331641199999808e+02
-3.330547207899999762e+02
-3.330803473000000281e+02
-3.331099445699999819e+02
-3.331430249599999911e+02
-3.331794455200000016e+02
-3.332189520599999923e+02
-3.332611788599999727e+02
-3.333057526800000119e+02
-3.333868922999999995e+02
-3.333861945799999944e+02
-3.333854878700000199e+02
-3.333852633100000276e+02
-3.333859186799999748e+02
-3.333875644500000135e+02
-3.333907674100000236e+02
-3.333962387799999760e+02
-3.334044032900000047e+02
-3.334156470799999852e+02
-3.332497852299999863e+02
-3.332486212100000103e+02
-3.332463540100000046e+02
-3.332432942400000115e+02
-3.332397488199999884e+02
-3.332360593099999733e+02
-3.332327657999999815e+02
-3.332304664100000196e+02
-3.332293288899999766e+02
-3.332298264199999949e+02
-3.330527741500000047e+02
-3.330598324499999876e+02
-3.330703990399999839e+02
-3.330846328299999755e+02
-3.331023148200000037e+02
-3.331232424199999969e+02
-3.331473193900000069e+02
-3.331746513100000016e+02
-3.332048773000000210e+02
-3.332374735800000281e+02
-3.339754728699999760e+02
-3.339772595599999931e+02
-3.339774546900000018e+02
-3.339762167100000170e+02
-3.339735293300000194e+02
-3.339695699700000091e+02
-3.339643598700000098e+02
-3.339580372099999863e+02
-3.339513016700000207e+02
-3.339444654800000194e+02
-3.342581421900000009e+02
-3.342517713099999810e+02
-3.342406296300000008e+02
-3.342249640399999748e+02
-3.342050740099999757e+02
-3.341816977600000200e+02
-3.341554647799999884e+02
-3.341273643999999763e+02
-3.340979366700000242e+02
-3.340681192700000111e+02
-3.330833250300000259e+02
-3.330894365300000004e+02
-3.330926152499999944e+02
-3.330926919099999850e+02
-3.330898067100000048e+02
-3.330844545599999833e+02
-3.330768300099999806e+02
-3.330672751700000163e+02
-3.330562382900000102e+02
-3.330444518300000141e+02
-3.336949183699999821e+02
-3.337039846000000125e+02
-3.337099186099999883e+02
-3.337133103400000209e+02
-3.337137332500000184e+02
-3.337113272400000028e+02
-3.337063587299999767e+02
-3.336992076399999974e+02
-3.336901171900000236e+02
-3.336794462099999805e+02
-3.329811377600000242e+02
-3.329766684699999928e+02
-3.329686005600000271e+02
-3.329570580000000177e+02
-3.329423934299999814e+02
-3.329250921600000197e+02
-3.329055263700000182e+02
-3.328846381700000165e+02
-3.328632751700000085e+02
-3.328419805099999849e+02
-3.318685003200000097e+02
-3.318911487600000214e+02
-3.319223314999999843e+02
-3.319614512499999819e+02
-3.320082967899999744e+02
-3.320621374300000070e+02
-3.321219255799999814e+02
-3.321869405900000061e+02
-3.322565529500000139e+02
-3.323295480599999792e+02
