2.300000000000000002e-05 -2.579999999999999828e-04 -1.156599999999999989e-02 1.599999999999999928e-05 -2.610000000000000015e-04 -1.156899999999999942e-02 2.099999999999999884e-05 -2.629999999999999959e-04 -1.156699999999999916e-02 6.000000000000000152e-06 -2.649999999999999903e-04 -1.154699999999999997e-02 1.699999999999999987e-05 -2.689999999999999791e-04 -1.154600000000000071e-02 9.000000000000000228e-06 -2.640000000000000202e-04 -1.154999999999999950e-02 -7.999999999999999638e-06 -2.770000000000000110e-04 -1.156500000000000063e-02 -1.200000000000000030e-05 -2.730000000000000222e-04 -1.156100000000000010e-02 -9.000000000000000228e-06 -2.829999999999999942e-04 -1.156000000000000083e-02 1.599999999999999928e-05 -7.258999999999999828e-03 -1.158900000000000034e-02 1.599999999999999928e-05 -7.259999999999999960e-03 -1.158999999999999961e-02 1.800000000000000046e-05 -7.261000000000000093e-03 -1.158999999999999961e-02 1.200000000000000030e-05 -7.263999999999999624e-03 -1.157399999999999922e-02 1.299999999999999920e-05 -7.261000000000000093e-03 -1.157599999999999948e-02 1.299999999999999920e-05 -7.262000000000000226e-03 -1.157500000000000022e-02 -5.000000000000000409e-06 -7.274000000000000084e-03 -1.158499999999999981e-02 -6.000000000000000152e-06 -7.270999999999999686e-03 -1.158499999999999981e-02 -6.999999999999999895e-06 -7.275000000000000216e-03 -1.158600000000000081e-02 2.599999999999999840e-05 7.497000000000000192e-03 1.160800000000000026e-02 1.800000000000000046e-05 7.494999999999999926e-03 1.161099999999999979e-02 2.199999999999999943e-05 7.493999999999999793e-03 1.160800000000000026e-02 6.000000000000000152e-06 7.491000000000000263e-03 1.158700000000000008e-02 1.599999999999999928e-05 7.485999999999999599e-03 1.158600000000000081e-02 1.000000000000000082e-05 7.491000000000000263e-03 1.159100000000000061e-02 -9.000000000000000228e-06 7.478000000000000272e-03 1.160699999999999926e-02 -1.200000000000000030e-05 7.480999999999999803e-03 1.160199999999999947e-02 -9.000000000000000228e-06 7.472000000000000343e-03 1.160100000000000020e-02 1.500000000000000038e-05 2.339999999999999958e-04 1.147899999999999962e-02 1.500000000000000038e-05 2.329999999999999986e-04 1.148000000000000062e-02 1.699999999999999987e-05 2.339999999999999958e-04 1.148000000000000062e-02 1.200000000000000030e-05 2.310000000000000042e-04 1.146199999999999997e-02 1.299999999999999920e-05 2.329999999999999986e-04 1.146600000000000050e-02 1.099999999999999971e-05 2.329999999999999986e-04 1.146499999999999950e-02 -5.000000000000000409e-06 2.220000000000000022e-04 1.147399999999999982e-02 -6.999999999999999895e-06 2.220000000000000022e-04 1.147600000000000009e-02 -6.999999999999999895e-06 2.210000000000000050e-04 1.147600000000000009e-02 -1.299999999999999920e-05 2.841000000000000209e-03 -2.770000000000000110e-04 -1.200000000000000030e-05 2.841999999999999908e-03 -2.799999999999999755e-04 -1.599999999999999928e-05 2.843000000000000041e-03 -2.829999999999999942e-04 -6.000000000000000152e-06 2.850000000000000103e-03 -2.880000000000000073e-04 -1.999999999999999909e-06 2.847999999999999837e-03 -2.910000000000000260e-04 -1.999999999999999909e-06 2.847000000000000138e-03 -2.849999999999999886e-04 -2.599999999999999840e-05 2.831000000000000183e-03 -2.869999999999999830e-04 -3.100000000000000135e-05 2.835999999999999979e-03 -2.849999999999999886e-04 -2.799999999999999958e-05 2.833000000000000015e-03 -2.900000000000000017e-04 -3.999999999999999819e-06 -2.922000000000000118e-03 3.330000000000000169e-04 -5.000000000000000409e-06 -2.919000000000000154e-03 3.280000000000000038e-04 -5.000000000000000409e-06 -2.916999999999999888e-03 3.310000000000000225e-04 -2.599999999999999840e-05 -2.933999999999999976e-03 3.289999999999999739e-04 -2.599999999999999840e-05 -2.931000000000000012e-03 3.299999999999999982e-04 -2.599999999999999840e-05 -2.931000000000000012e-03 3.330000000000000169e-04 -1.500000000000000038e-05 -2.926999999999999914e-03 3.260000000000000094e-04 -1.500000000000000038e-05 -2.925000000000000083e-03 3.249999999999999851e-04 -1.399999999999999979e-05 -2.923999999999999950e-03 3.229999999999999907e-04
-1.775000000000000102e-03 -1.476200000000000082e-02 -2.362399999999999917e-02 -1.940499999999999864e-02 1.965300000000000033e-02 -1.168499999999999921e-02 -1.380200000000000003e-02 3.804999999999999789e-03 -4.478900000000000242e-02 2.417100000000000151e-02 1.160500000000000073e-02 3.907399999999999762e-02 -1.633799999999999836e-02 9.296000000000000443e-03 1.155999999999999910e-03 3.422100000000000142e-02 -2.531999999999999963e-03 -3.321000000000000167e-03 -3.964999999999999775e-03 3.534500000000000142e-02 -2.314300000000000038e-02 1.215499999999999914e-02 4.826999999999999694e-03 7.699000000000000114e-03 -4.741000000000000422e-03 4.922000000000000160e-03 -4.656999999999999681e-03 -2.103500000000000161e-02 -5.381199999999999872e-02 1.191099999999999971e-02 3.085999999999999854e-02 9.249999999999999542e-03 2.198800000000000060e-02 -2.471100000000000033e-02 4.220999999999999926e-03 -2.968200000000000005e-02 2.710299999999999862e-02 -8.552999999999999839e-03 1.211699999999999930e-02 9.726999999999999535e-03 -6.935000000000000192e-03 3.372100000000000097e-02 -1.257199999999999984e-02 -2.870500000000000135e-02 2.707899999999999890e-02 7.920999999999999222e-03 2.620000000000000258e-04 -2.166699999999999876e-02 -3.301000000000000115e-03 -2.592000000000000120e-03 -1.438000000000000042e-03 3.095300000000000135e-02 -2.336900000000000088e-02 2.508600000000000066e-02 -7.016999999999999800e-03 3.305999999999999911e-03 -2.165699999999999917e-02 -6.236699999999999883e-02 3.010099999999999928e-02 1.588699999999999835e-02 6.594000000000000035e-03 2.875300000000000078e-02 2.973800000000000054e-02 4.485000000000000271e-03 2.209200000000000053e-02 -3.748300000000000243e-02 1.605499999999999983e-02 -1.581400000000000167e-02 3.559000000000000098e-03 1.939199999999999952e-02 3.401900000000000063e-02 7.990000000000000574e-03 -1.386199999999999932e-02 -5.650999999999999773e-03 1.170500000000000013e-02 9.060000000000000128e-04 2.487299999999999928e-02 -4.691999999999999990e-03 -3.863000000000000114e-03 3.146700000000000191e-02 9.886000000000000690e-03 -2.445999999999999824e-03 2.359800000000000092e-02 2.396200000000000066e-02 -2.553499999999999867e-02 -2.433999999999999966e-03 2.308599999999999888e-02 -2.299400000000000055e-02 -2.252900000000000041e-02 1.099299999999999930e-02 -7.979999999999999897e-04 -1.804899999999999907e-02 1.500899999999999977e-02 7.426000000000000309e-03 -7.690999999999999920e-03 2.035000000000000003e-02 5.742999999999999841e-03 -1.132999999999999893e-03 3.281000000000000062e-03 1.125899999999999991e-02 -1.183299999999999977e-02 -6.669999999999999714e-03 -6.346000000000000078e-03 5.558999999999999705e-03 -3.896000000000000157e-03 -2.051899999999999905e-02 8.640000000000000110e-03 3.592299999999999660e-02 -1.059000000000000045e-02 2.375299999999999981e-02 1.906300000000000008e-02 3.745600000000000318e-02 -2.971899999999999889e-02 1.009799999999999934e-02 3.525699999999999668e-02 -7.280100000000000460e-02 2.282199999999999854e-02 -4.695999999999999654e-03 2.820900000000000143e-02 1.274100000000000059e-02 2.408499999999999877e-02 2.064500000000000016e-02 3.914600000000000024e-02 2.449799999999999894e-02 -5.926999999999999977e-03 -4.655900000000000316e-02 -2.493400000000000130e-02 -2.897900000000000129e-02 2.158900000000000055e-02 -5.642899999999999999e-02 -3.550799999999999790e-02 -1.982899999999999940e-02 4.857000000000000206e-03 -3.440200000000000202e-02 -1.527300000000000012e-02 -2.392000000000000029e-03 3.274099999999999927e-02 -1.462100000000000032e-02 9.728999999999999801e-03 1.802499999999999936e-02 -9.871000000000000607e-02 6.089699999999999974e-02 3.660299999999999665e-02 -2.946999999999999967e-03 -4.067400000000000182e-02 -1.047299999999999967e-02 -2.812900000000000122e-02 -2.716199999999999865e-02 -9.308999999999999567e-03 -4.160099999999999909e-02 -7.237000000000000377e-03 -9.301000000000000240e-03 3.022299999999999986e-02 -4.394000000000000336e-03 -1.975500000000000173e-02 1.223600000000000035e-02 4.511000000000000253e-03 -4.186999999999999750e-03 4.260900000000000104e-02 1.570099999999999968e-02 1.185100000000000042e-02 -9.585000000000000464e-02
-3.438000000000000084e-03 -2.914699999999999930e-02 -3.545800000000000340e-02 -3.853600000000000081e-02 3.941599999999999965e-02 -1.219300000000000071e-02 -2.768199999999999827e-02 8.104999999999999358e-03 -7.801099999999999701e-02 4.745900000000000118e-02 2.330899999999999986e-02 8.863799999999999457e-02 -3.254399999999999654e-02 1.853000000000000133e-02 1.371999999999999956e-02 6.815599999999999437e-02 -4.869000000000000064e-03 4.516000000000000049e-03 -8.051000000000000864e-03 7.089900000000000369e-02 -3.478699999999999848e-02 2.424300000000000066e-02 9.582999999999999505e-03 2.652499999999999997e-02 -9.445000000000000270e-03 1.013299999999999965e-02 2.102999999999999835e-03 -4.211100000000000260e-02 -9.914499999999999702e-02 3.414199999999999874e-02 6.089100000000000068e-02 2.534099999999999894e-02 5.462499999999999994e-02 -4.934999999999999803e-02 1.551100000000000048e-02 -4.815500000000000336e-02 5.374000000000000304e-02 -9.957000000000000572e-03 3.494099999999999984e-02 1.933599999999999902e-02 -6.596000000000000300e-03 7.798700000000000077e-02 -2.472600000000000145e-02 -4.948299999999999921e-02 6.481499999999999762e-02 1.577399999999999983e-02 7.659000000000000009e-03 -3.174500000000000238e-02 -6.557000000000000328e-03 2.041999999999999978e-03 8.529999999999999388e-03 6.127200000000000008e-02 -3.928399999999999948e-02 6.098599999999999854e-02 -1.362599999999999922e-02 -8.099999999999999561e-04 -5.431500000000000217e-02 -1.239880000000000010e-01 5.201800000000000174e-02 2.142300000000000107e-02 1.313600000000000011e-02 5.008900000000000158e-02 4.811100000000000099e-02 8.859999999999999820e-03 3.651299999999999685e-02 -8.561299999999999466e-02 3.204699999999999910e-02 -3.893599999999999839e-02 -4.198999999999999608e-03 3.844600000000000101e-02 6.031700000000000256e-02 4.774999999999999731e-03 -2.790199999999999972e-02 -1.866400000000000003e-02 1.181800000000000038e-02 1.681999999999999901e-03 4.176300000000000151e-02 -2.075600000000000014e-02 -7.675000000000000398e-03 5.543900000000000217e-02 8.554000000000000839e-03 -4.813999999999999703e-03 4.702400000000000330e-02 3.650400000000000172e-02 -5.108599999999999947e-02 -5.326000000000000005e-03 3.509199999999999819e-02 -4.603999999999999759e-02 -4.501299999999999746e-02 1.085200000000000053e-02 -1.543000000000000101e-03 -3.606999999999999790e-02 1.869499999999999981e-02 1.479600000000000012e-02 -1.547699999999999944e-02 2.896299999999999916e-02 1.162200000000000039e-02 -2.641000000000000118e-03 -4.988000000000000246e-03 2.230800000000000144e-02 -2.391199999999999923e-02 -2.458400000000000168e-02 -1.278600000000000049e-02 1.085099999999999953e-02 -1.918800000000000019e-02 -4.129399999999999737e-02 1.690300000000000136e-02 6.048400000000000304e-02 -2.110199999999999923e-02 4.451000000000000095e-02 3.808799999999999686e-02 7.433199999999999530e-02 -6.180000000000000077e-02 1.998199999999999976e-02 6.963099999999999845e-02 -1.477430000000000132e-01 4.503900000000000264e-02 -9.334000000000000283e-03 5.351800000000000307e-02 2.589299999999999935e-02 4.780399999999999927e-02 3.814599999999999935e-02 7.777199999999999391e-02 4.895200000000000246e-02 -1.447900000000000055e-02 -9.278100000000000236e-02 -4.936100000000000210e-02 -6.031899999999999762e-02 4.347499999999999976e-02 -1.114020000000000010e-01 -7.283100000000000684e-02 -3.878999999999999809e-02 9.572000000000000647e-03 -7.136199999999999488e-02 -3.021400000000000127e-02 -4.734000000000000360e-03 6.802199999999999913e-02 -2.892799999999999885e-02 2.012500000000000053e-02 3.898999999999999688e-02 -1.959039999999999948e-01 1.214070000000000010e-01 7.570599999999999552e-02 -6.075999999999999804e-03 -8.045099999999999474e-02 -1.756299999999999875e-02 -5.578000000000000319e-02 -5.367799999999999655e-02 -1.580099999999999907e-02 -8.261699999999999600e-02 -1.435299999999999944e-02 -1.583499999999999838e-02 5.974800000000000250e-02 -8.640999999999999376e-03 -3.642700000000000105e-02 2.397099999999999925e-02 8.951000000000000623e-03 -5.801999999999999866e-03 8.442399999999999904e-02 3.168100000000000083e-02 2.572100000000000081e-02 -1.903489999999999904e-01
-4.964999999999999795e-03 -4.344800000000000051e-02 -4.737700000000000244e-02 -5.745000000000000107e-02 5.891400000000000109e-02 -1.289599999999999948e-02 -4.151599999999999735e-02 1.236699999999999952e-02 -1.109190000000000037e-01 6.966200000000000170e-02 3.449300000000000282e-02 1.367079999999999962e-01 -4.838200000000000139e-02 2.755399999999999863e-02 2.594099999999999878e-02 1.017109999999999959e-01 -7.150000000000000105e-03 1.208000000000000046e-02 -1.194600000000000002e-02 1.061639999999999945e-01 -4.658099999999999741e-02 3.631100000000000300e-02 1.439400000000000054e-02 4.516099999999999975e-02 -1.416199999999999924e-02 1.516400000000000040e-02 9.187000000000000721e-03 -6.331900000000000028e-02 -1.431510000000000005e-01 5.521600000000000119e-02 9.001399999999999679e-02 4.079200000000000187e-02 8.652600000000000569e-02 -7.351699999999999902e-02 2.672400000000000123e-02 -6.684400000000000064e-02 7.986899999999999555e-02 -1.154600000000000071e-02 5.699800000000000005e-02 2.887299999999999936e-02 -6.340000000000000149e-03 1.208719999999999933e-01 -3.668500000000000233e-02 -6.945500000000000285e-02 1.013929999999999970e-01 2.357899999999999927e-02 1.518899999999999938e-02 -4.183200000000000113e-02 -9.679999999999999369e-03 6.588000000000000106e-03 1.842600000000000141e-02 9.109200000000000630e-02 -5.508600000000000302e-02 9.590400000000000313e-02 -1.995600000000000152e-02 -4.832999999999999623e-03 -8.606700000000000461e-02 -1.847940000000000138e-01 7.315699999999999981e-02 2.802299999999999930e-02 1.975599999999999926e-02 7.131999999999999451e-02 6.637899999999999356e-02 1.297799999999999995e-02 5.040300000000000336e-02 -1.322720000000000007e-01 4.815099999999999936e-02 -6.154199999999999948e-02 -1.166400000000000076e-02 5.704900000000000249e-02 8.633499999999999508e-02 1.742999999999999975e-03 -4.186000000000000137e-02 -3.175200000000000244e-02 1.203100000000000003e-02 2.256999999999999892e-03 5.851100000000000051e-02 -3.667100000000000221e-02 -1.150499999999999960e-02 7.906799999999999939e-02 7.171000000000000291e-03 -7.065000000000000099e-03 7.040000000000000424e-02 4.890599999999999808e-02 -7.644900000000000306e-02 -8.503000000000000141e-03 4.735500000000000126e-02 -6.904100000000000514e-02 -6.684099999999999764e-02 1.067799999999999999e-02 -2.281000000000000041e-03 -5.387600000000000028e-02 2.242800000000000002e-02 2.197800000000000101e-02 -2.307499999999999829e-02 3.738400000000000056e-02 1.732200000000000059e-02 -4.448999999999999830e-03 -1.312999999999999931e-02 3.299300000000000149e-02 -3.565200000000000313e-02 -4.231700000000000045e-02 -1.950500000000000150e-02 1.592999999999999972e-02 -3.457400000000000057e-02 -6.183199999999999807e-02 2.500099999999999892e-02 8.519300000000000483e-02 -3.147799999999999904e-02 6.471499999999999475e-02 5.664399999999999991e-02 1.107210000000000000e-01 -9.333600000000000230e-02 2.936000000000000068e-02 1.031450000000000006e-01 -2.215789999999999982e-01 6.639899999999999969e-02 -1.383700000000000034e-02 7.814599999999999325e-02 3.889299999999999702e-02 7.087200000000000444e-02 5.533500000000000224e-02 1.153470000000000051e-01 7.321400000000000130e-02 -2.268699999999999883e-02 -1.384519999999999917e-01 -7.312599999999999656e-02 -9.138400000000000689e-02 6.513900000000000245e-02 -1.646930000000000061e-01 -1.090089999999999948e-01 -5.711600000000000010e-02 1.418400000000000043e-02 -1.076519999999999977e-01 -4.513999999999999957e-02 -7.119999999999999593e-03 1.026279999999999970e-01 -4.261000000000000204e-02 3.105700000000000127e-02 5.981000000000000205e-02 -2.907069999999999932e-01 1.812449999999999894e-01 1.144239999999999979e-01 -8.975999999999999604e-03 -1.194690000000000057e-01 -2.418199999999999864e-02 -8.260499999999999787e-02 -7.959800000000000209e-02 -2.247899999999999898e-02 -1.223530000000000034e-01 -2.133799999999999933e-02 -2.239999999999999977e-02 8.876000000000000556e-02 -1.285200000000000058e-02 -5.283999999999999808e-02 3.562300000000000189e-02 1.323799999999999977e-02 -7.583000000000000330e-03 1.256599999999999939e-01 4.812500000000000111e-02 3.887499999999999983e-02 -2.826339999999999963e-01
-6.224999999999999631e-03 -5.755500000000000199e-02 -5.888100000000000278e-02 -7.585400000000000476e-02 7.780499999999999916e-02 -1.383900000000000061e-02 -5.536699999999999955e-02 1.669899999999999857e-02 -1.432970000000000077e-01 9.081200000000000383e-02 4.538999999999999979e-02 1.834139999999999937e-01 -6.397799999999999321e-02 3.608800000000000202e-02 3.764100000000000085e-02 1.346539999999999959e-01 -9.447999999999999801e-03 1.913600000000000023e-02 -1.583299999999999985e-02 1.412650000000000017e-01 -5.808599999999999874e-02 4.837199999999999833e-02 1.866400000000000003e-02 6.339100000000000290e-02 -1.871400000000000147e-02 2.017100000000000143e-02 1.626500000000000168e-02 -8.445099999999999829e-02 -1.856369999999999965e-01 7.487199999999999411e-02 1.179430000000000062e-01 5.566800000000000220e-02 1.174680000000000030e-01 -9.708200000000000163e-02 3.758000000000000229e-02 -8.564299999999999691e-02 1.053049999999999958e-01 -1.314799999999999996e-02 7.787800000000000278e-02 3.834300000000000208e-02 -6.198000000000000384e-03 1.619559999999999889e-01 -4.801400000000000112e-02 -8.840599999999999847e-02 1.365490000000000037e-01 3.126500000000000112e-02 2.245700000000000127e-02 -5.175199999999999939e-02 -1.252900000000000021e-02 1.117899999999999970e-02 2.818400000000000072e-02 1.200080000000000036e-01 -7.058999999999999997e-02 1.297449999999999992e-01 -2.591699999999999907e-02 -8.743000000000000771e-03 -1.169509999999999994e-01 -2.442400000000000126e-01 9.322999999999999343e-02 3.557500000000000245e-02 2.630899999999999905e-02 9.249599999999999489e-02 8.458200000000000440e-02 1.699900000000000022e-02 6.399199999999999333e-02 -1.774739999999999929e-01 6.408099999999999907e-02 -8.370199999999999863e-02 -1.869799999999999934e-02 7.503100000000000047e-02 1.117889999999999995e-01 -8.930000000000000221e-04 -5.594699999999999673e-02 -4.453399999999999720e-02 1.205499999999999974e-02 2.647000000000000047e-03 7.441399999999999404e-02 -5.226599999999999996e-02 -1.515500000000000007e-02 1.023919999999999969e-01 6.127999999999999767e-03 -9.095999999999999919e-03 9.356899999999999940e-02 6.099799999999999667e-02 -1.014970000000000039e-01 -1.178399999999999934e-02 5.963799999999999657e-02 -9.197099999999999720e-02 -8.802500000000000602e-02 1.036800000000000048e-02 -3.092999999999999829e-03 -7.120999999999999552e-02 2.635300000000000142e-02 2.887500000000000136e-02 -3.037600000000000022e-02 4.540299999999999891e-02 2.315199999999999897e-02 -6.570999999999999584e-03 -2.120700000000000016e-02 4.321099999999999941e-02 -4.727200000000000152e-02 -5.984400000000000136e-02 -2.645700000000000135e-02 2.085899999999999907e-02 -5.004000000000000115e-02 -8.217499999999999805e-02 3.299599999999999755e-02 1.094679999999999959e-01 -4.157600000000000184e-02 8.453600000000000003e-02 7.447399999999999853e-02 1.462410000000000099e-01 -1.239429999999999976e-01 3.807200000000000167e-02 1.355359999999999898e-01 -2.938479999999999981e-01 8.665799999999999892e-02 -1.821599999999999955e-02 1.022509999999999947e-01 5.164200000000000040e-02 9.308600000000000207e-02 7.197900000000000131e-02 1.514510000000000023e-01 9.692499999999999727e-02 -3.076800000000000021e-02 -1.831170000000000020e-01 -9.607999999999999874e-02 -1.214889999999999998e-01 8.638999999999999457e-02 -2.158750000000000113e-01 -1.437549999999999939e-01 -7.462399999999999589e-02 1.867699999999999916e-02 -1.432360000000000022e-01 -5.982900000000000024e-02 -9.520000000000000684e-03 1.362919999999999965e-01 -5.538900000000000073e-02 4.247100000000000181e-02 8.037099999999999800e-02 -3.820250000000000035e-01 2.399000000000000021e-01 1.522900000000000087e-01 -1.161000000000000053e-02 -1.572310000000000096e-01 -3.027499999999999983e-02 -1.083329999999999987e-01 -1.046779999999999933e-01 -2.908699999999999827e-02 -1.603430000000000133e-01 -2.803800000000000042e-02 -2.902300000000000019e-02 1.169660000000000005e-01 -1.699600000000000069e-02 -6.891999999999999515e-02 4.705600000000000060e-02 1.728999999999999981e-02 -9.556000000000000258e-03 1.658179999999999932e-01 6.463599999999999901e-02 5.113199999999999690e-02 -3.716630000000000211e-01
-6.943000000000000387e-03 -7.148400000000000587e-02 -7.016999999999999627e-02 -9.376900000000000512e-02 9.615300000000000236e-02 -1.503900000000000028e-02 -6.924600000000000199e-02 2.078999999999999945e-02 -1.747660000000000047e-01 1.107719999999999955e-01 5.599200000000000010e-02 2.285020000000000107e-01 -7.916199999999999626e-02 4.411999999999999950e-02 4.876899999999999985e-02 1.671169999999999878e-01 -1.162700000000000018e-02 2.583399999999999933e-02 -1.976599999999999885e-02 1.757249999999999923e-01 -6.921800000000000175e-02 6.047700000000000298e-02 2.252200000000000035e-02 8.135599999999999776e-02 -2.331000000000000086e-02 2.509700000000000125e-02 2.370900000000000091e-02 -1.055129999999999957e-01 -2.264440000000000064e-01 9.301700000000000246e-02 1.447620000000000018e-01 6.986399999999999555e-02 1.474679999999999880e-01 -1.196760000000000046e-01 4.819999999999999979e-02 -1.045689999999999953e-01 1.300209999999999977e-01 -1.477200000000000041e-02 9.757299999999999307e-02 4.776699999999999696e-02 -6.125000000000000236e-03 2.010990000000000000e-01 -5.876200000000000173e-02 -1.062580000000000052e-01 1.702170000000000072e-01 3.879500000000000309e-02 2.950799999999999951e-02 -6.147099999999999786e-02 -1.522500000000000069e-02 1.577100000000000030e-02 3.777400000000000202e-02 1.479300000000000059e-01 -8.588899999999999313e-02 1.623910000000000076e-01 -3.132999999999999674e-02 -1.256600000000000078e-02 -1.465859999999999941e-01 -3.021920000000000162e-01 1.124119999999999980e-01 4.404399999999999982e-02 3.277000000000000052e-02 1.133279999999999982e-01 1.025110000000000049e-01 2.086000000000000007e-02 7.727299999999999447e-02 -2.208749999999999880e-01 7.990099999999999980e-02 -1.052609999999999935e-01 -2.533499999999999988e-02 9.253999999999999726e-02 1.365850000000000120e-01 -3.334999999999999857e-03 -7.026899999999999813e-02 -5.734299999999999814e-02 1.184699999999999989e-02 2.851999999999999934e-03 8.952599999999999447e-02 -6.771800000000000042e-02 -1.883200000000000152e-02 1.252280000000000060e-01 5.075999999999999783e-03 -1.089200000000000064e-02 1.164570000000000050e-01 7.258499999999999674e-02 -1.258569999999999967e-01 -1.517399999999999999e-02 7.181300000000000183e-02 -1.146589999999999970e-01 -1.082219999999999988e-01 9.733999999999999597e-03 -3.981000000000000164e-03 -8.804499999999999826e-02 3.029099999999999848e-02 3.537300000000000166e-02 -3.717299999999999771e-02 5.270799999999999791e-02 2.901400000000000159e-02 -9.157000000000000209e-03 -2.932399999999999937e-02 5.281700000000000284e-02 -5.863499999999999962e-02 -7.718600000000000461e-02 -3.393399999999999889e-02 2.553100000000000161e-02 -6.562999999999999390e-02 -1.021100000000000063e-01 4.078500000000000181e-02 1.330810000000000048e-01 -5.143899999999999861e-02 1.035810000000000064e-01 9.142500000000000626e-02 1.805539999999999923e-01 -1.534339999999999871e-01 4.608899999999999803e-02 1.664770000000000139e-01 -3.638029999999999875e-01 1.056959999999999983e-01 -2.230999999999999997e-02 1.255239999999999967e-01 6.397400000000000309e-02 1.143910000000000066e-01 8.801599999999999702e-02 1.858049999999999979e-01 1.199800000000000033e-01 -3.837800000000000239e-02 -2.263400000000000134e-01 -1.181040000000000006e-01 -1.506240000000000079e-01 1.070170000000000010e-01 -2.647189999999999821e-01 -1.768840000000000134e-01 -9.119900000000000229e-02 2.302600000000000133e-02 -1.776149999999999951e-01 -7.415399999999999769e-02 -1.187900000000000067e-02 1.687929999999999986e-01 -6.712500000000000411e-02 5.430100000000000204e-02 1.005140000000000061e-01 -4.691489999999999827e-01 2.969019999999999992e-01 1.890360000000000096e-01 -1.387799999999999971e-02 -1.935540000000000038e-01 -3.586799999999999711e-02 -1.327569999999999861e-01 -1.288380000000000081e-01 -3.564099999999999907e-02 -1.962000000000000133e-01 -3.446699999999999764e-02 -3.572399999999999881e-02 1.442330000000000001e-01 -2.097399999999999959e-02 -8.450699999999999878e-02 5.824100000000000110e-02 2.113200000000000148e-02 -1.168600000000000021e-02 2.046439999999999926e-01 8.109900000000000442e-02 6.249699999999999700e-02 -4.567109999999999781e-01
-7.111000000000000133e-03 -8.512000000000000122e-02 -8.136300000000000476e-02 -1.111749999999999960e-01 1.136899999999999994e-01 -1.654299999999999868e-02 -8.296399999999999608e-02 2.456099999999999950e-02 -2.049910000000000065e-01 1.293489999999999918e-01 6.604100000000000248e-02 2.717149999999999843e-01 -9.372199999999999975e-02 5.162300000000000222e-02 5.919599999999999862e-02 1.988499999999999990e-01 -1.349700000000000032e-02 3.213400000000000284e-02 -2.347300000000000081e-02 2.093919999999999948e-01 -8.001300000000000079e-02 7.255300000000000638e-02 2.616699999999999929e-02 9.895400000000000029e-02 -2.796699999999999880e-02 2.978000000000000091e-02 3.164700000000000152e-02 -1.264710000000000001e-01 -2.655120000000000258e-01 1.096179999999999932e-01 1.703290000000000082e-01 8.331099999999999617e-02 1.765120000000000022e-01 -1.410440000000000027e-01 5.851100000000000051e-02 -1.234770000000000034e-01 1.539520000000000055e-01 -1.636900000000000160e-02 1.159830000000000028e-01 5.710400000000000198e-02 -6.204000000000000313e-03 2.378929999999999934e-01 -6.893699999999999828e-02 -1.229340000000000016e-01 2.021050000000000069e-01 4.614200000000000246e-02 3.639300000000000174e-02 -7.103099999999999692e-02 -1.757600000000000134e-02 2.033199999999999938e-02 4.709499999999999797e-02 1.748349999999999904e-01 -1.009000000000000036e-01 1.935959999999999903e-01 -3.630599999999999800e-02 -1.617899999999999894e-02 -1.747690000000000077e-01 -3.584820000000000229e-01 1.305070000000000119e-01 5.328999999999999709e-02 3.928799999999999654e-02 1.337260000000000115e-01 1.199770000000000003e-01 2.443499999999999839e-02 8.999000000000000055e-02 -2.621560000000000001e-01 9.570499999999999841e-02 -1.260259999999999991e-01 -3.152100000000000041e-02 1.093530000000000058e-01 1.606859999999999955e-01 -5.605999999999999872e-03 -8.462100000000000177e-02 -7.015499999999999514e-02 1.152500000000000052e-02 2.765999999999999796e-03 1.039859999999999951e-01 -8.295099999999999696e-02 -2.255599999999999966e-02 1.472469999999999890e-01 3.918999999999999741e-03 -1.240400000000000010e-02 1.388649999999999884e-01 8.355700000000000627e-02 -1.493420000000000025e-01 -1.860900000000000054e-02 8.378900000000000237e-02 -1.370619999999999894e-01 -1.272320000000000118e-01 8.571999999999999759e-03 -4.963000000000000397e-03 -1.043110000000000009e-01 3.430500000000000216e-02 4.130099999999999744e-02 -4.340600000000000014e-02 5.940000000000000141e-02 3.477999999999999842e-02 -1.232800000000000042e-02 -3.731799999999999701e-02 6.168099999999999972e-02 -6.956199999999999883e-02 -9.427000000000000657e-02 -4.193700000000000205e-02 2.981699999999999975e-02 -8.131199999999999539e-02 -1.212710000000000038e-01 4.843000000000000083e-02 1.560050000000000048e-01 -6.095500000000000224e-02 1.216170000000000029e-01 1.073640000000000011e-01 2.136639999999999928e-01 -1.816770000000000052e-01 5.339399999999999702e-02 1.959690000000000043e-01 -4.310610000000000275e-01 1.235249999999999959e-01 -2.609600000000000114e-02 1.475930000000000020e-01 7.564899999999999403e-02 1.345770000000000022e-01 1.033980000000000038e-01 2.181619999999999948e-01 1.422009999999999941e-01 -4.554500000000000215e-02 -2.676529999999999743e-01 -1.390569999999999862e-01 -1.787849999999999995e-01 1.267679999999999918e-01 -3.110580000000000012e-01 -2.082839999999999969e-01 -1.068009999999999932e-01 2.727900000000000116e-02 -2.105239999999999889e-01 -8.809300000000000463e-02 -1.424599999999999998e-02 1.998489999999999989e-01 -7.778400000000000591e-02 6.638199999999999656e-02 1.200839999999999963e-01 -5.514440000000000452e-01 3.519059999999999966e-01 2.245369999999999866e-01 -1.572600000000000040e-02 -2.283719999999999917e-01 -4.095300000000000329e-02 -1.557830000000000048e-01 -1.520390000000000075e-01 -4.207500000000000129e-02 -2.296040000000000025e-01 -4.055700000000000277e-02 -4.238399999999999807e-02 1.703999999999999959e-01 -2.485199999999999909e-02 -9.952700000000000435e-02 6.922200000000000575e-02 2.471200000000000133e-02 -1.384699999999999993e-02 2.419469999999999954e-01 9.748400000000000121e-02 7.309999999999999831e-02 -5.371920000000000028e-01