-3.444802379139850351e-02 -1.103060079409610723e-03 0.000000000000000000e+00 -1.103060079409610723e-03 -6.310950290392690863e-03 -4.510792406700449564e-01 0.000000000000000000e+00 -4.510792406700449564e-01 4.720916310351919720e-01
-2.672841153074337339e-01 1.837227935541253451e-02 -2.705571296414196469e-01 1.837227935541253451e-02 -1.530902726603567965e-01 -4.040454822021040115e-01 -2.705571296414196469e-01 -4.040454822021040115e-01 -3.663606099809625649e-02
-4.944240769052061779e-01 4.041539799148327616e-02 -5.376784983797601170e-01 4.041539799148327616e-02 -2.939022208302361494e-01 -3.591093461802534192e-01 -5.376784983797601170e-01 -3.591093461802534192e-01 -5.368466825821724964e-01
-7.044937317003119315e-01 6.464655383425177426e-02 -8.019427606829084842e-01 6.464655383425177426e-02 -4.180416871441209881e-01 -3.160719201311571469e-01 -8.019427606829084842e-01 -3.160719201311571469e-01 -1.010891272446483136e+00
-9.054857445304400621e-01 9.077641964977452294e-02 -1.062735096178734739e+00 9.077641964977452294e-02 -5.342246545245595835e-01 -2.750055358633010094e-01 -1.062735096178734739e+00 -2.750055358633010094e-01 -1.472693703724559100e+00
-1.093892022684025855e+00 1.186603318210797675e-01 -1.319531099255716544e+00 1.186603318210797675e-01 -6.396663483448454812e-01 -2.358378615681990809e-01 -1.319531099255716544e+00 -2.358378615681990809e-01 -1.911205292670183242e+00
-1.267651109619221783e+00 1.474483915984584614e-01 -1.572981756190226399e+00 1.474483915984584614e-01 -7.327935517704109447e-01 -1.983157359161508426e-01 -1.572981756190226399e+00 -1.983157359161508426e-01 -2.328541744681567049e+00
-1.433128204482784884e+00 1.768693547000885768e-01 -1.822490329562255873e+00 1.768693547000885768e-01 -8.207490308892363418e-01 -1.625114907156421651e-01 -1.822490329562255873e+00 -1.625114907156421651e-01 -2.733202047255800515e+00
-1.588135270068017357e+00 2.066519768441480720e-01 -2.068490810222721077e+00 2.066519768441480720e-01 -9.021223154358468665e-01 -1.279730521636363305e-01 -2.068490810222721077e+00 -1.279730521636363305e-01 -3.120122973798873378e+00
-1.733757283502207480e+00 2.358559445203205207e-01 -2.310947032267377743e+00 2.358559445203205207e-01 -9.782515438672315655e-01 -9.468233730801182968e-02 -2.310947032267377743e+00 -9.468233730801182968e-02 -3.491908469416276972e+00
4.095508354003262852e+00 -2.341186212184278581e-01 1.965318981706828438e+01 -2.341186212184278581e-01 8.518681880045798849e+00 -3.213464556731588484e+00 1.965318981706828438e+01 -3.213464556731588484e+00 -5.436798690926815780e+00
4.089742773058988590e+00 -3.504031818882549221e-01 1.944328663581580585e+01 -3.504031818882549221e-01 8.604498948913228418e+00 -3.204978342279235282e+00 1.944328663581580585e+01 -3.204978342279235282e+00 -5.353017592830333626e+00
4.098499249118105148e+00 -4.628139928611478826e-01 1.919940256187301486e+01 -4.628139928611478826e-01 8.705270493354868577e+00 -3.192258029320930390e+00 1.919940256187301486e+01 -3.192258029320930390e+00 -5.242804909592444496e+00
4.128228025862018313e+00 -5.703240600314078979e-01 1.892182587428712282e+01 -5.703240600314078979e-01 8.826419762946425607e+00 -3.174853181845403327e+00 1.892182587428712282e+01 -3.174853181845403327e+00 -5.094143008432428843e+00
4.169109598245011483e+00 -6.721946683405499723e-01 1.861041243353451691e+01 -6.721946683405499723e-01 8.958001130559031466e+00 -3.152385433603185572e+00 1.861041243353451691e+01 -3.152385433603185572e+00 -4.927679876106966894e+00
4.230909418991448234e+00 -7.674528760042276243e-01 1.826566672794783130e+01 -7.674528760042276243e-01 9.108248566478723163e+00 -3.124314261380751301e+00 1.826566672794783130e+01 -3.124314261380751301e+00 -4.724100816452740048e+00
4.304492645792745265e+00 -8.554320377257593755e-01 1.788744461800345320e+01 -8.554320377257593755e-01 9.267684897028349411e+00 -3.090261298928632439e+00 1.788744461800345320e+01 -3.090261298928632439e+00 -4.503152944203888453e+00
4.390003418172510052e+00 -9.355916302916194027e-01 1.747574610370138615e+01 -9.355916302916194027e-01 9.435553389708980276e+00 -3.049704040473754763e+00 1.747574610370138615e+01 -3.049704040473754763e+00 -4.262512009542250624e+00
4.487369666368937970e+00 -1.007210956083773423e+00 1.703042704551802089e+01 -1.007210956083773423e+00 9.610574806248598279e+00 -3.002156015123945032e+00 1.703042704551802089e+01 -3.002156015123945032e+00 -4.004502262285987157e+00
4.592753675565997007e+00 -1.070091823257262265e+00 1.655074872839486844e+01 -1.070091823257262265e+00 9.788713239986215342e+00 -2.947058682225225823e+00 1.655074872839486844e+01 -2.947058682225225823e+00 -3.734060481118632868e+00
2.577531699842083412e+01 -3.800079079159935258e+00 -1.943579474631807003e+01 -3.800079079159935258e+00 1.180856678892845402e+01 -1.000851431350136345e+01 -1.943579474631807003e+01 -1.000851431350136345e+01 -1.096086123004931956e+01
2.589272645630963865e+01 -3.788131275881457150e+00 -1.943174675923715000e+01 -3.788131275881457150e+00 1.179005661011791517e+01 -9.862697615877308976e+00 -1.943174675923715000e+01 -9.862697615877308976e+00 -1.084398674842671184e+01
2.602853909775574337e+01 -3.774043567538176269e+00 -1.939215851553831271e+01 -3.774043567538176269e+00 1.180359150965279014e+01 -9.704772622094916201e+00 -1.939215851553831271e+01 -9.704772622094916201e+00 -1.067195621375883263e+01
2.618025836685021090e+01 -3.758350930396294753e+00 -1.931692301996831418e+01 -3.758350930396294753e+00 1.184729907060137144e+01 -9.534721499611976014e+00 -1.931692301996831418e+01 -9.534721499611976014e+00 -1.045190264292835280e+01
2.634312297482385645e+01 -3.741249522420084350e+00 -1.920557662642977803e+01 -3.741249522420084350e+00 1.191730963130481236e+01 -9.351848779282432744e+00 -1.920557662642977803e+01 -9.351848779282432744e+00 -1.018749953962984911e+01
2.652053893723815392e+01 -3.722828506320580377e+00 -1.905756652611430368e+01 -3.722828506320580377e+00 1.201811699239919662e+01 -9.156225791275110382e+00 -1.905756652611430368e+01 -9.156225791275110382e+00 -9.874698916782406855e+00
2.670669284533373045e+01 -3.703712021075014960e+00 -1.887289271902188403e+01 -3.703712021075014960e+00 1.214410390308941956e+01 -8.947585047456907859e+00 -1.887289271902188403e+01 -8.947585047456907859e+00 -9.524877936313886906e+00
2.690117455063982277e+01 -3.683971396852215641e+00 -1.865080623837984319e+01 -3.683971396852215641e+00 1.229601933014815884e+01 -8.725124083428525523e+00 -1.865080623837984319e+01 -8.725124083428525523e+00 -9.136716990100998359e+00
2.710127350674102331e+01 -3.663874121785283489e+00 -1.839096826588625078e+01 -3.663874121785283489e+00 1.247125972241324376e+01 -8.488325755465970346e+00 -1.839096826588625078e+01 -8.488325755465970346e+00 -8.716974611640070592e+00
2.730615158415361421e+01 -3.643759014176143562e+00 -1.809241584426195004e+01 -3.643759014176143562e+00 1.266962892192039369e+01 -8.236227106290078481e+00 -1.809241584426195004e+01 -8.236227106290078481e+00 -8.266025284317448651e+00
2.892424466930510718e+01 6.062576744824518471e+00 -1.669058658645212745e+01 6.062576744824518471e+00 5.883047096980463131e+00 1.069309842089236184e+01 -1.669058658645212745e+01 1.069309842089236184e+01 2.296024885735557675e+01
2.891139707334351172e+01 6.056268132186824360e+00 -1.674589327196405009e+01 6.056268132186824360e+00 5.817072476614908894e+00 1.069198200910535412e+01 -1.674589327196405009e+01 1.069198200910535412e+01 2.285865538473786884e+01
2.885568280892521997e+01 6.044005323351755443e+00 -1.675757129367259068e+01 6.044005323351755443e+00 5.733483359165456150e+00 1.066660579197844783e+01 -1.675757129367259068e+01 1.066660579197844783e+01 2.266330104283353108e+01
2.875807652126111336e+01 6.025681993387214774e+00 -1.672572697650984708e+01 6.025681993387214774e+00 5.633732852037413252e+00 1.061709381526575413e+01 -1.672572697650984708e+01 1.061709381526575413e+01 2.237544401000569039e+01
2.861847188541909404e+01 6.001386746403284178e+00 -1.665076789938218482e+01 6.001386746403284178e+00 5.517909559340862913e+00 1.054358784554340289e+01 -1.665076789938218482e+01 1.054358784554340289e+01 2.199628930215143541e+01
2.843846377538060821e+01 5.971172744866010795e+00 -1.653301303708589032e+01 5.971172744866010795e+00 5.387821004921435453e+00 1.044621192856550351e+01 -1.653301303708589032e+01 1.044621192856550351e+01 2.152973550011429182e+01
2.821085753740715418e+01 5.935288080283619649e+00 -1.637391549702627458e+01 5.935288080283619649e+00 5.235049798321533387e+00 1.032549768899253984e+01 -1.637391549702627458e+01 1.032549768899253984e+01 2.096321854108491323e+01
2.794387563291415688e+01 5.893679590190060047e+00 -1.617358160413543899e+01 5.893679590190060047e+00 5.068562675481250501e+00 1.018133880189241047e+01 -1.617358160413543899e+01 1.018133880189241047e+01 2.031295297720793513e+01
2.762890574240184449e+01 5.846577645271542778e+00 -1.593401381130118999e+01 5.846577645271542778e+00 4.877939793055180218e+00 1.001447954178979138e+01 -1.593401381130118999e+01 1.001447954178979138e+01 1.956628614156394264e+01
2.727374502755725061e+01 5.794194895392258182e+00 -1.565515895605747509e+01 5.794194895392258182e+00 4.671350449992697662e+00 9.824689537998473554e+00 -1.565515895605747509e+01 9.824689537998473554e+00 1.873420494380284396e+01
2.087151044635641028e+01 5.717574640768252614e+00 -9.119203080421057095e+00 5.717574640768252614e+00 -1.008773797705441311e+01 7.210489377781835962e+00 -9.119203080421057095e+00 7.210489377781835962e+00 -1.318236519842222876e+01
2.074303151183071492e+01 5.648771812840369222e+00 -9.232790097370557447e+00 5.648771812840369222e+00 -1.011967246535190945e+01 7.083402042350032346e+00 -9.232790097370557447e+00 7.083402042350032346e+00 -1.339332800651316191e+01
2.062507089772898539e+01 5.577005059569651202e+00 -9.329750216055373357e+00 5.577005059569651202e+00 -1.012007006509302087e+01 6.947928966923867300e+00 -9.329750216055373357e+00 6.947928966923867300e+00 -1.355222332123392448e+01
2.052897826938841419e+01 5.502364744533624119e+00 -9.409649691303382468e+00 5.502364744533624119e+00 -1.007723772934595452e+01 6.803546042753692014e+00 -9.409649691303382468e+00 6.803546042753692014e+00 -1.363768919285750236e+01
2.044737995888292659e+01 5.425266540188903974e+00 -9.472145141519987988e+00 5.425266540188903974e+00 -9.999940725130679553e+00 6.650813524020163570e+00 -9.472145141519987988e+00 6.650813524020163570e+00 -1.366555732016635361e+01
2.038018560263499879e+01 5.346180337138623173e+00 -9.516857039679583963e+00 5.346180337138623173e+00 -9.890112833006238446e+00 6.489912137878334875e+00 -9.516857039679583963e+00 6.489912137878334875e+00 -1.363485177652320424e+01
2.033091938016811895e+01 5.265124208098288072e+00 -9.543369713325553505e+00 5.265124208098288072e+00 -9.744826273060807509e+00 6.320209339285526084e+00 -9.543369713325553505e+00 6.320209339285526084e+00 -1.354206645512006446e+01
2.029585831208823876e+01 5.182441534662495464e+00 -9.551267490001277949e+00 5.182441534662495464e+00 -9.567641370248891164e+00 6.141650910095222571e+00 -9.551267490001277949e+00 6.141650910095222571e+00 -1.339260509789295917e+01
2.027767716029011780e+01 5.098421480279324847e+00 -9.540080479103625777e+00 5.098421480279324847e+00 -9.359497905776752447e+00 5.953911541428333010e+00 -9.540080479103625777e+00 5.953911541428333010e+00 -1.318438934255880035e+01
2.027268909081071158e+01 5.013045972233273417e+00 -9.509483371753507441e+00 5.013045972233273417e+00 -9.121697115160760205e+00 5.756322542811168397e+00 -9.509483371753507441e+00 5.756322542811168397e+00 -1.292502780234523208e+01
-4.778370802466325173e+00 -1.025933584241504049e-01 -1.086176374205584416e+01 -1.025933584241504049e-01 -4.374492000592209706e+01 -8.182784557619456223e+00 -1.086176374205584416e+01 -8.182784557619456223e+00 -5.014478514100999007e+01
-4.521821557010298420e+00 -1.258287880324074626e-01 -1.083973241568234691e+01 -1.258287880324074626e-01 -4.358864998298592042e+01 -8.078968281847501487e+00 -1.083973241568234691e+01 -8.078968281847501487e+00 -4.956290225281227890e+01
-4.202865898590232518e+00 -1.507010454754162398e-01 -1.080317659403955943e+01 -1.507010454754162398e-01 -4.335550549415553689e+01 -7.964973570919218204e+00 -1.080317659403955943e+01 -7.964973570919218204e+00 -4.879434573500069661e+01
-3.823817963110430540e+00 -1.768526626053573969e-01 -1.075183287954487454e+01 -1.768526626053573969e-01 -4.304734913662222340e+01 -7.841026194191123011e+00 -1.075183287954487454e+01 -7.841026194191123011e+00 -4.784645309166207028e+01
-3.387104771153456539e+00 -2.042836394222309060e-01 -1.068551313106786615e+01 -2.042836394222309060e-01 -4.266587418055985381e+01 -7.707351921019734320e+00 -1.068551313106786615e+01 -7.707351921019734320e+00 -4.672496262727454308e+01
-2.895266227980131557e+00 -2.326176936651743465e-01 -1.060397276513897147e+01 -2.326176936651743465e-01 -4.221251049855972326e+01 -7.564439918344170621e+00 -1.060397276513897147e+01 -7.564439918344170621e+00 -4.543502940881193553e+01
-2.351199706999097305e+00 -2.616854983167995474e-01 -1.050689194183645547e+01 -2.616854983167995474e-01 -4.168904543136090979e+01 -7.412704096651382635e+00 -1.050689194183645547e+01 -7.412704096651382635e+00 -4.398438603673496772e+01
-1.756673734836406320e+00 -2.909978864379854091e-01 -1.039421421882119034e+01 -2.909978864379854091e-01 -4.109643849872860955e+01 -7.252840578123965543e+00 -1.039421421882119034e+01 -7.252840578123965543e+00 -4.238025713045220755e+01
-1.125554312804840862e+00 -3.206113003678612294e-01 -1.026518703157145218e+01 -3.206113003678612294e-01 -4.044691887414087716e+01 -7.085225645022781293e+00 -1.026518703157145218e+01 -7.085225645022781293e+00 -4.064126866187633169e+01
-4.468163706611311126e-01 -3.493404509847102268e-01 -1.012050650226983528e+01 -3.493404509847102268e-01 -3.972870892283269484e+01 -6.911157471147806319e+00 -1.012050650226983528e+01 -6.911157471147806319e+00 -3.876480546929435889e+01
1.789452394392907664e+01 -9.171182236117843445e+00 -6.690399280461035936e+00 -9.171182236117843445e+00 3.821216897291753156e+01 1.830965414503134170e+01 -6.690399280461035936e+00 1.830965414503134170e+01 1.823666867640665878e-01
1.780125983579765148e+01 -9.183860794209447675e+00 -6.736793280932536376e+00 -9.183860794209447675e+00 3.790626128755851454e+01 1.816809160767474651e+01 -6.736793280932536376e+00 1.816809160767474651e+01 -3.473113771519102388e-01
1.773061963591592516e+01 -9.188657133292780443e+00 -6.770208952119724621e+00 -9.188657133292780443e+00 3.759860787584195663e+01 1.798888133523390209e+01 -6.770208952119724621e+00 1.798888133523390209e+01 -8.683137100789177776e-01
1.768214487069503704e+01 -9.185553619768271005e+00 -6.790417057228177455e+00 -9.185553619768271005e+00 3.729091919692624657e+01 1.777290500768736337e+01 -6.790417057228177455e+00 1.777290500768736337e+01 -1.377483897693733361e+00
1.765477752416072477e+01 -9.174638421633774854e+00 -6.797082557866045427e+00 -9.174638421633774854e+00 3.698446486998052052e+01 1.752125590820853773e+01 -6.797082557866045427e+00 1.752125590820853773e+01 -1.873252549634531139e+00
1.764597835797476222e+01 -9.155999706887147482e+00 -6.789835148442332269e+00 -9.155999706887147482e+00 3.667952703259791036e+01 1.723481571677598367e+01 -6.789835148442332269e+00 1.723481571677598367e+01 -2.355760734697879943e+00
1.765398401218002533e+01 -9.129813811524099876e+00 -6.768251622567335701e+00 -9.129813811524099876e+00 3.637712843355352277e+01 1.691453664776653198e+01 -6.768251622567335701e+00 1.691453664776653198e+01 -2.824761582489784928e+00
1.767558517165459619e+01 -9.096186537142058270e+00 -6.731979308249632865e+00 -9.096186537142058270e+00 3.607688113365681915e+01 1.656107114436431615e+01 -6.731979308249632865e+00 1.656107114436431615e+01 -3.281630513776789382e+00
1.770956511802805977e+01 -9.055276586137161132e+00 -6.680524464701233178e+00 -9.055276586137161132e+00 3.578038979046874601e+01 1.617464844336376117e+01 -6.680524464701233178e+00 1.617464844336376117e+01 -3.725697451775192626e+00
1.774922308346340571e+01 -9.007313195303835229e+00 -6.613693122326855800e+00 -9.007313195303835229e+00 3.548444508886738191e+01 1.575618549194255991e+01 -6.613693122326855800e+00 1.575618549194255991e+01 -4.163045988337017000e+00
-8.768902731043343834e+00 -7.164911401507799704e-01 -6.984230227553697823e+00 -7.164911401507799704e-01 -2.370345398590389863e+01 -3.707384247043759906e+00 -6.984230227553697823e+00 -3.707384247043759906e+00 -6.369075740126411977e-01
-8.840413934534847584e+00 -6.937818739352991093e-01 -6.869838045265028725e+00 -6.937818739352991093e-01 -2.374453293385967712e+01 -3.848126533370311186e+00 -6.869838045265028725e+00 -3.848126533370311186e+00 -8.032644415846701413e-01
-8.908137195645467798e+00 -6.705025775557048595e-01 -6.741765139037640964e+00 -6.705025775557048595e-01 -2.376551372151300612e+01 -3.981458427563389524e+00 -6.741765139037640964e+00 -3.981458427563389524e+00 -9.548924652388041112e-01
-8.972017350165776506e+00 -6.467451913610479108e-01 -6.600268941848875137e+00 -6.467451913610479108e-01 -2.376683766253933783e+01 -4.107618974530526934e+00 -6.600268941848875137e+00 -4.107618974530526934e+00 -1.089952837994032642e+00
-9.032330219142924221e+00 -6.225832676305685931e-01 -6.445606886676073621e+00 -6.225832676305685931e-01 -2.374962642919707534e+01 -4.226663338481152721e+00 -6.445606886676073621e+00 -4.226663338481152721e+00 -1.208886873525798045e+00
-9.089167742925960525e+00 -5.982374632019883398e-01 -6.278109958775817567e+00 -5.982374632019883398e-01 -2.371485458918616374e+01 -4.338757012043559236e+00 -6.278109958775817567e+00 -4.338757012043559236e+00 -1.312319766207644456e+00
-9.142971235190330503e+00 -5.738548826337878106e-01 -6.098090755334879987e+00 -5.738548826337878106e-01 -2.366384608353293117e+01 -4.444028711706415891e+00 -6.098090755334879987e+00 -4.444028711706415891e+00 -1.401373188297987626e+00
-9.194641711356728919e+00 -5.496561827636883280e-01 -5.905751545121171731e+00 -5.496561827636883280e-01 -2.359856843570705465e+01 -4.542735870447064173e+00 -5.905751545121171731e+00 -4.542735870447064173e+00 -1.477665289940117477e+00
-9.245098574915660450e+00 -5.257516920105504976e-01 -5.701165880413932463e+00 -5.257516920105504976e-01 -2.352084206461973537e+01 -4.635154309312657261e+00 -5.701165880413932463e+00 -4.635154309312657261e+00 -1.542759057067892625e+00
-9.295408333916110877e+00 -5.025643359800068266e-01 -5.484425701562213540e+00 -5.025643359800068266e-01 -2.343279998636894845e+01 -4.721431132861675373e+00 -5.484425701562213540e+00 -4.721431132861675373e+00 -1.599192043315107892e+00
-2.038510993519967229e+01 -9.599819838015671181e+00 -1.293970862493866392e+01 -9.599819838015671181e+00 -4.554813719480783618e+01 1.514109793406848503e+01 -1.293970862493866392e+01 1.514109793406848503e+01 -5.414746037302204229e+01
-2.034447165188035811e+01 -9.610031704249864859e+00 -1.314436431285745499e+01 -9.610031704249864859e+00 -4.543941980326057006e+01 1.525804947473941908e+01 -1.314436431285745499e+01 1.525804947473941908e+01 -5.391930027790499480e+01
-2.023731361420869845e+01 -9.610982529783775874e+00 -1.332865331783989404e+01 -9.610982529783775874e+00 -4.525282980048606873e+01 1.535847566763099259e+01 -1.332865331783989404e+01 1.535847566763099259e+01 -5.349644914646452776e+01
-2.006582272091268848e+01 -9.602634281596044374e+00 -1.349282285452479790e+01 -9.602634281596044374e+00 -4.499074425031911062e+01 1.544220536414710665e+01 -1.349282285452479790e+01 1.544220536414710665e+01 -5.288265323130426054e+01
-1.983045536824860378e+01 -9.584948926665319391e+00 -1.363670177431606234e+01 -9.584948926665319391e+00 -4.465341036739852143e+01 1.550878216803148923e+01 -1.363670177431606234e+01 1.550878216803148923e+01 -5.207990926604539084e+01
-1.953258074498527463e+01 -9.557945481502276408e+00 -1.376019499466029394e+01 -9.557945481502276408e+00 -4.424290095138820789e+01 1.555759755094242891e+01 -1.376019499466029394e+01 1.555759755094242891e+01 -5.109257203163323879e+01
-1.917387230406238530e+01 -9.521509847042842978e+00 -1.386305530091867944e+01 -9.521509847042842978e+00 -4.376041404246091560e+01 1.558798593500619134e+01 -1.386305530091867944e+01 1.558798593500619134e+01 -4.992421663207528582e+01
-1.875512873892841270e+01 -9.475851204904484959e+00 -1.394528269309121704e+01 -9.475851204904484959e+00 -4.320783227517376446e+01 1.559911059375293974e+01 -1.394528269309121704e+01 1.559911059375293974e+01 -4.858014867385076485e+01
-1.827935465827052042e+01 -9.420779389980415530e+00 -1.400649684096434555e+01 -9.420779389980415530e+00 -4.258741861429748354e+01 1.559013480071282665e+01 -1.400649684096434555e+01 1.559013480071282665e+01 -4.706744229893197229e+01
-1.774919335707297563e+01 -9.356674732484203005e+00 -1.404696397568755550e+01 -9.356674732484203005e+00 -4.190301439498905722e+01 1.555999363128787927e+01 -1.404696397568755550e+01 1.555999363128787927e+01 -4.539423657388916666e+01
-9.674809606986954691e+00 -1.336293626006563073e+01 1.074870056213972092e+01 -1.336293626006563073e+01 2.941804179336849501e+01 -6.426435615518861333e+00 1.074870056213972092e+01 -6.426435615518861333e+00 5.899711522647367978e+00
-9.670021695204136236e+00 -1.328814082918124662e+01 1.072429476462506237e+01 -1.328814082918124662e+01 2.933273806171732545e+01 -6.280251881985057238e+00 1.072429476462506237e+01 -6.280251881985057238e+00 5.788818464726238844e+00
-9.650780386803527122e+00 -1.320445100037822250e+01 1.067889029783070498e+01 -1.320445100037822250e+01 2.921644739538186286e+01 -6.117911187715979970e+00 1.067889029783070498e+01 -6.117911187715979970e+00 5.648229594399323261e+00
-9.614862082305464241e+00 -1.311204609619523609e+01 1.061237956823344497e+01 -1.311204609619523609e+01 2.907212861625034961e+01 -5.939772177788991137e+00 1.061237956823344497e+01 -5.939772177788991137e+00 5.484059810235685894e+00
-9.563253055672701564e+00 -1.301182272932570427e+01 1.052499569513356192e+01 -1.301182272932570427e+01 2.890062454025460781e+01 -5.747072177721002539e+00 1.052499569513356192e+01 -5.747072177721002539e+00 5.296291179981459152e+00
-9.497477548484036802e+00 -1.290458785119369445e+01 1.041700766233908837e+01 -1.290458785119369445e+01 2.870227588021812437e+01 -5.540940919505708884e+00 1.041700766233908837e+01 -5.540940919505708884e+00 5.085461671252689442e+00
-9.418647360479301511e+00 -1.279116634547714604e+01 1.028868445365803908e+01 -1.279116634547714604e+01 2.847812270686526404e+01 -5.322561931898414755e+00 1.028868445365803908e+01 -5.322561931898414755e+00 4.852342370965711638e+00
-9.327856359144458764e+00 -1.267245482486946884e+01 1.014031298515231327e+01 -1.267245482486946884e+01 2.822954580374387490e+01 -5.093154608162159924e+00 1.014031298515231327e+01 -5.093154608162159924e+00 4.597919553083277933e+00
-9.226413599011886291e+00 -1.254945749558728529e+01 9.972233969645403207e+00 -1.254945749558728529e+01 2.795787215764020317e+01 -4.854010070575457192e+00 9.972233969645403207e+00 -4.854010070575457192e+00 4.323018101283325976e+00
-9.113601789926855545e+00 -1.242283785102372029e+01 9.784483271645044056e+00 -1.242283785102372029e+01 2.766632957425053263e+01 -4.606078728593321792e+00 9.784483271645044056e+00 -4.606078728593321792e+00 4.032479724110278774e+00
-2.679510365477960931e+01 1.273075971806377282e+01 -1.310905142515370692e+01 1.273075971806377282e+01 -3.394951562239883369e+00 2.546642082892276893e+00 -1.310905142515370692e+01 2.546642082892276893e+00 -8.454294504231954832e+00
-2.683121918063914535e+01 1.285463965701972278e+01 -1.309891696636659120e+01 1.285463965701972278e+01 -3.346748390990625488e+00 2.465197886821282935e+00 -1.309891696636659120e+01 2.465197886821282935e+00 -8.446444905244117507e+00
-2.683923461622531903e+01 1.296792447997095898e+01 -1.307078002351582136e+01 1.296792447997095898e+01 -3.287323609920726142e+00 2.380897616001193207e+00 -1.307078002351582136e+01 2.380897616001193207e+00 -8.397467829869299294e+00
-2.682005284968461467e+01 1.306998769310155595e+01 -1.302403252907416764e+01 1.306998769310155595e+01 -3.217930206662046544e+00 2.293262186925707713e+00 -1.302403252907416764e+01 2.293262186925707713e+00 -8.309519153885846166e+00
-2.677352647070740943e+01 1.315977899795539230e+01 -1.295777159489514041e+01 1.315977899795539230e+01 -3.138955133277367526e+00 2.202052057841675570e+00 -1.295777159489514041e+01 2.202052057841675570e+00 -8.183612323172475556e+00
-2.670055836744018407e+01 1.323641393267468302e+01 -1.287113118540966283e+01 1.323641393267468302e+01 -3.051890919151701187e+00 2.107064539573355599e+00 -1.287113118540966283e+01 2.107064539573355599e+00 -8.021866360930125950e+00
-2.660315700535165817e+01 1.329924757715479267e+01 -1.276298729700679857e+01 1.329924757715479267e+01 -2.958875013774692864e+00 2.008004811501486131e+00 -1.276298729700679857e+01 2.008004811501486131e+00 -7.827782262012529024e+00
-2.648231740403184631e+01 1.334756130613627434e+01 -1.263219749978690842e+01 1.334756130613627434e+01 -2.861473651686169184e+00 1.904449068985878402e+00 -1.263219749978690842e+01 1.904449068985878402e+00 -7.603515902198034304e+00
-2.634128259029261443e+01 1.338085760982412076e+01 -1.247739824838590827e+01 1.338085760982412076e+01 -2.762856154543191778e+00 1.795899802231528675e+00 -1.247739824838590827e+01 1.795899802231528675e+00 -7.353858116549639945e+00
-2.617741760484932456e+01 1.339854684697981213e+01 -1.229739183403804681e+01 1.339854684697981213e+01 -2.661548419249453179e+00 1.682283306083621754e+00 -1.229739183403804681e+01 1.682283306083621754e+00 -7.076579324134184112e+00
-3.971697103939569651e+00 2.208452924219178382e+00 -1.205334062642297610e+01 2.208452924219178382e+00 2.219517177338117619e+01 1.207724975224132002e+01 -1.205334062642297610e+01 1.207724975224132002e+01 -1.225665794484968929e+00
-4.068984988275473391e+00 2.249773350370700697e+00 -1.175514069607751999e+01 2.249773350370700697e+00 2.203405442101972511e+01 1.199087534275342826e+01 -1.175514069607751999e+01 1.199087534275342826e+01 -1.585361719615445031e+00
-4.147694835657934398e+00 2.289029550194062512e+00 -1.144073210160746612e+01 2.289029550194062512e+00 2.186134150163225698e+01 1.187448887743350134e+01 -1.144073210160746612e+01 1.187448887743350134e+01 -1.941449736120179681e+00
-4.198026058476730604e+00 2.325970226571053345e+00 -1.110894810639254970e+01 2.325970226571053345e+00 2.168739004644789503e+01 1.172816215545817364e+01 -1.110894810639254970e+01 1.172816215545817364e+01 -2.274813313220993116e+00
-4.229061252575767149e+00 2.360379981971778562e+00 -1.076081184869977037e+01 2.360379981971778562e+00 2.150451754356704726e+01 1.155325936118343932e+01 -1.076081184869977037e+01 1.155325936118343932e+01 -2.600243081304007831e+00
-4.237928450889778098e+00 2.391935720101394214e+00 -1.039668232441228923e+01 2.391935720101394214e+00 2.131706784317593062e+01 1.135083953246462407e+01 -1.039668232441228923e+01 1.135083953246462407e+01 -2.907076862639421666e+00
-4.222886523385443347e+00 2.420565641783269939e+00 -1.001551844546894721e+01 2.420565641783269939e+00 2.112814625966386828e+01 1.112156681168556283e+01 -1.001551844546894721e+01 1.112156681168556283e+01 -3.195009510726550150e+00
-4.190792291431090000e+00 2.446072299281668361e+00 -9.617912555076951975e+00 2.446072299281668361e+00 2.093274480046079589e+01 1.086721822846789465e+01 -9.617912555076951975e+00 1.086721822846789465e+01 -3.472944123467719191e+00
-4.140371319641504400e+00 2.468240295066694845e+00 -9.203523607147305441e+00 2.468240295066694845e+00 2.073456112316324607e+01 1.058883487087277864e+01 -9.203523607147305441e+00 1.058883487087277864e+01 -3.733144339580867221e+00
-4.074244277963742888e+00 2.487087578932506204e+00 -8.771884907031903822e+00 2.487087578932506204e+00 2.053226694300353472e+01 1.028776297346205659e+01 -8.771884907031903822e+00 1.028776297346205659e+01 -3.981748988668002198e+00
2.201330245252400530e+01 6.429689930798257791e+00 2.042162248864873675e+01 6.429689930798257791e+00 -2.060480816224051637e+01 1.397499515231599787e+01 2.042162248864873675e+01 1.397499515231599787e+01 -1.257144396751038506e+01
2.199987247109698885e+01 6.543617608154099763e+00 2.036888391476347948e+01 6.543617608154099763e+00 -2.049546012672447048e+01 1.398119220734524504e+01 2.036888391476347948e+01 1.398119220734524504e+01 -1.245271857013189987e+01
2.199411157243343951e+01 6.646514164094246446e+00 2.026809544792419260e+01 6.646514164094246446e+00 -2.034562224192643143e+01 1.396510894136025094e+01 2.026809544792419260e+01 1.396510894136025094e+01 -1.228512548661370474e+01
2.199563811971336946e+01 6.737925269071098455e+00 2.011960237858704303e+01 6.737925269071098455e+00 -2.015640307194253822e+01 1.392620015890390128e+01 2.011960237858704303e+01 1.392620015890390128e+01 -1.207039116923666811e+01
2.200408864929870489e+01 6.817323900809442172e+00 1.992389538266344218e+01 6.817323900809442172e+00 -1.992934733723462770e+01 1.386388431815526801e+01 1.992389538266344218e+01 1.386388431815526801e+01 -1.180942427709599407e+01
2.201882709982280772e+01 6.884310249307389995e+00 1.968184677288477502e+01 6.884310249307389995e+00 -1.966641774144832411e+01 1.377728910638296256e+01 1.968184677288477502e+01 1.377728910638296256e+01 -1.150496896065917340e+01
2.203918106355522610e+01 6.938393638653534978e+00 1.939443790107385723e+01 6.938393638653534978e+00 -1.937010401050447328e+01 1.366568759631082486e+01 1.939443790107385723e+01 1.366568759631082486e+01 -1.115971485084799397e+01
2.206438726685600216e+01 6.979355990665030873e+00 1.906272281178111783e+01 6.979355990665030873e+00 -1.904247788714011946e+01 1.352817112884365969e+01 1.906272281178111783e+01 1.352817112884365969e+01 -1.077595176858235071e+01
2.209230127426046053e+01 7.006706629430470734e+00 1.868775554955698226e+01 7.006706629430470734e+00 -1.868782824228459916e+01 1.336377652534055827e+01 1.868775554955698226e+01 1.336377652534055827e+01 -1.035764146751730586e+01
2.212572175578182154e+01 7.020645459950798362e+00 1.827158968395660565e+01 7.020645459950798362e+00 -1.830562805366269785e+01 1.317166781943393694e+01 1.827158968395660565e+01 1.317166781943393694e+01 -9.906601265843251625e+00