0.000000000000000000e+00 2.032270000000000021e+00 9.439909999999999357e+00 -1.760000000000000009e+00 5.080680000000000085e+00 9.439909999999999357e+00 -3.520000000000000018e+00 8.129089999999999705e+00 9.439909999999999357e+00 3.520000000000000018e+00 2.032270000000000021e+00 9.439909999999999357e+00 1.760000000000000009e+00 5.080680000000000085e+00 9.439909999999999357e+00 0.000000000000000000e+00 8.129089999999999705e+00 9.439909999999999357e+00 7.040000000000000036e+00 2.032270000000000021e+00 9.439909999999999357e+00 5.280000000000000249e+00 5.080680000000000085e+00 9.439909999999999357e+00 3.520000000000000018e+00 8.129089999999999705e+00 9.439909999999999357e+00 1.056000000000000050e+00 2.032270000000000021e+00 1.693869000000000113e+01 -7.039999999999999591e-01 5.080680000000000085e+00 1.693869000000000113e+01 -2.463999999999999968e+00 8.129089999999999705e+00 1.693869000000000113e+01 4.575999999999999623e+00 2.032270000000000021e+00 1.693869000000000113e+01 2.815999999999999837e+00 5.080680000000000085e+00 1.693869000000000113e+01 1.056000000000000050e+00 8.129089999999999705e+00 1.693869000000000113e+01 8.096000000000000085e+00 2.032270000000000021e+00 1.693869000000000113e+01 6.336000000000000298e+00 5.080680000000000085e+00 1.693869000000000113e+01 4.575999999999999623e+00 8.129089999999999705e+00 1.693869000000000113e+01 0.000000000000000000e+00 2.032270000000000021e+00 1.306132999999999988e+01 -1.760000000000000009e+00 5.080680000000000085e+00 1.306132999999999988e+01 -3.520000000000000018e+00 8.129089999999999705e+00 1.306132999999999988e+01 3.520000000000000018e+00 2.032270000000000021e+00 1.306132999999999988e+01 1.760000000000000009e+00 5.080680000000000085e+00 1.306132999999999988e+01 0.000000000000000000e+00 8.129089999999999705e+00 1.306132999999999988e+01 7.040000000000000036e+00 2.032270000000000021e+00 1.306132999999999988e+01 5.280000000000000249e+00 5.080680000000000085e+00 1.306132999999999988e+01 3.520000000000000018e+00 8.129089999999999705e+00 1.306132999999999988e+01 1.056000000000000050e+00 2.032270000000000021e+00 2.056009999999999849e+01 -7.039999999999999591e-01 5.080680000000000085e+00 2.056009999999999849e+01 -2.463999999999999968e+00 8.129089999999999705e+00 2.056009999999999849e+01 4.575999999999999623e+00 2.032270000000000021e+00 2.056009999999999849e+01 2.815999999999999837e+00 5.080680000000000085e+00 2.056009999999999849e+01 1.056000000000000050e+00 8.129089999999999705e+00 2.056009999999999849e+01 8.096000000000000085e+00 2.032270000000000021e+00 2.056009999999999849e+01 6.336000000000000298e+00 5.080680000000000085e+00 2.056009999999999849e+01 4.575999999999999623e+00 8.129089999999999705e+00 2.056009999999999849e+01 0.000000000000000000e+00 0.000000000000000000e+00 1.125088000000000044e+01 -1.760000000000000009e+00 3.048410000000000064e+00 1.125088000000000044e+01 -3.520000000000000018e+00 6.096820000000000128e+00 1.125088000000000044e+01 3.520000000000000018e+00 0.000000000000000000e+00 1.125088000000000044e+01 1.760000000000000009e+00 3.048410000000000064e+00 1.125088000000000044e+01 0.000000000000000000e+00 6.096820000000000128e+00 1.125088000000000044e+01 7.040000000000000036e+00 0.000000000000000000e+00 1.125088000000000044e+01 5.280000000000000249e+00 3.048410000000000064e+00 1.125088000000000044e+01 3.520000000000000018e+00 6.096820000000000128e+00 1.125088000000000044e+01 1.056000000000000050e+00 0.000000000000000000e+00 1.874914000000000058e+01 -7.039999999999999591e-01 3.048410000000000064e+00 1.874914000000000058e+01 -2.463999999999999968e+00 6.096820000000000128e+00 1.874914000000000058e+01 4.575999999999999623e+00 0.000000000000000000e+00 1.874914000000000058e+01 2.815999999999999837e+00 3.048410000000000064e+00 1.874914000000000058e+01 1.056000000000000050e+00 6.096820000000000128e+00 1.874914000000000058e+01 8.096000000000000085e+00 0.000000000000000000e+00 1.874914000000000058e+01 6.336000000000000298e+00 3.048410000000000064e+00 1.874914000000000058e+01 4.575999999999999623e+00 6.096820000000000128e+00 1.874914000000000058e+01
1.449999999999999900e-03 2.030060000000000198e+00 9.444589999999999819e+00 -1.754739999999999966e+00 5.080610000000000070e+00 9.438579999999999970e+00 -3.519190000000000040e+00 8.130879999999999441e+00 9.445050000000000168e+00 3.519810000000000105e+00 2.032630000000000159e+00 9.440239999999999299e+00 1.758860000000000090e+00 5.080160000000000231e+00 9.441340000000000288e+00 -8.099999999999999561e-04 8.129799999999999471e+00 9.440920000000000201e+00 7.038009999999999877e+00 2.030720000000000081e+00 9.437950000000000728e+00 5.281749999999999723e+00 5.082779999999999632e+00 9.436220000000000496e+00 3.521139999999999937e+00 8.126889999999999503e+00 9.438420000000000698e+00 1.054130000000000011e+00 2.032329999999999970e+00 1.693713999999999942e+01 -7.031699999999999617e-01 5.081089999999999662e+00 1.693974000000000046e+01 -2.461359999999999992e+00 8.127370000000000871e+00 1.694069000000000003e+01 4.577729999999999855e+00 2.033669999999999867e+00 1.693836999999999904e+01 2.814329999999999998e+00 5.080739999999999590e+00 1.693831000000000131e+01 1.055979999999999919e+00 8.128700000000000259e+00 1.693753999999999849e+01 8.095890000000000697e+00 2.034100000000000019e+00 1.693893999999999878e+01 6.336269999999999847e+00 5.081529999999999880e+00 1.693554999999999922e+01 4.574950000000000294e+00 8.127290000000000347e+00 1.693843999999999994e+01 6.099999999999999737e-04 2.031499999999999861e+00 1.305902999999999992e+01 -1.760539999999999994e+00 5.078750000000000320e+00 1.306356000000000073e+01 -3.518250000000000099e+00 8.131360000000000809e+00 1.306157999999999930e+01 3.517980000000000107e+00 2.031800000000000050e+00 1.306183000000000050e+01 1.757370000000000099e+00 5.082169999999999632e+00 1.306090999999999980e+01 -9.200000000000000278e-04 8.128059999999999619e+00 1.306042000000000058e+01 7.037770000000000081e+00 2.030650000000000066e+00 1.306104000000000021e+01 5.280050000000000132e+00 5.079909999999999926e+00 1.306184000000000012e+01 3.522650000000000059e+00 8.127159999999999940e+00 1.306326999999999927e+01 1.054450000000000109e+00 2.035759999999999792e+00 2.055919000000000096e+01 -7.060199999999999809e-01 5.080149999999999721e+00 2.056257000000000090e+01 -2.464269999999999960e+00 8.130110000000000170e+00 2.055803999999999832e+01 4.576410000000000089e+00 2.030889999999999862e+00 2.056014000000000053e+01 2.815589999999999815e+00 5.081489999999999618e+00 2.055815000000000126e+01 1.054130000000000011e+00 8.125479999999999592e+00 2.055968000000000018e+01 8.097810000000000841e+00 2.033009999999999984e+00 2.055748000000000175e+01 6.337559999999999860e+00 5.078719999999999679e+00 2.056175999999999959e+01 4.578050000000000175e+00 8.127250000000000085e+00 2.056175999999999959e+01 1.055918999999999919e+01 2.000000000000000164e-05 1.124958999999999953e+01 -1.758459999999999912e+00 3.047660000000000036e+00 1.125156999999999918e+01 -3.516750000000000043e+00 6.099630000000000329e+00 1.125009000000000015e+01 -1.759840000000000071e+00 9.143060000000000187e+00 1.125015999999999927e+01 1.760080000000000089e+00 3.048960000000000115e+00 1.125034999999999918e+01 -2.289999999999999935e-03 6.097349999999999604e+00 1.125139000000000067e+01 7.038719999999999644e+00 1.889999999999999970e-03 1.124984000000000073e+01 5.278990000000000293e+00 3.049249999999999794e+00 1.125342999999999982e+01 3.519169999999999909e+00 6.099269999999999747e+00 1.125116000000000049e+01 1.055420000000000025e+00 2.400000000000000061e-04 1.874933000000000050e+01 -7.035099999999999687e-01 3.048369999999999802e+00 1.874727000000000032e+01 -2.465279999999999916e+00 6.096879999999999633e+00 1.874941000000000102e+01 4.574550000000000338e+00 6.400000000000000524e-04 1.874908999999999892e+01 2.818389999999999951e+00 3.047789999999999999e+00 1.874785999999999930e+01 1.055649999999999977e+00 6.097929999999999851e+00 1.875012999999999863e+01 8.097749999999999559e+00 1.740000000000000010e-03 1.874955999999999889e+01 6.335410000000000430e+00 3.051480000000000192e+00 1.875096999999999881e+01 4.572239999999999860e+00 6.096409999999999663e+00 1.874895000000000067e+01
2.899999999999999800e-03 2.027849999999999930e+00 9.449249999999999261e+00 -1.749500000000000055e+00 5.080530000000000435e+00 9.437260000000000204e+00 -3.518390000000000128e+00 8.132659999999999556e+00 9.450160000000000338e+00 3.519620000000000193e+00 2.032979999999999787e+00 9.440569999999999240e+00 1.757719999999999949e+00 5.079640000000000377e+00 9.442759999999999820e+00 -1.610000000000000103e-03 8.130499999999999616e+00 9.441929999999999268e+00 7.036030000000000229e+00 2.029180000000000206e+00 9.436009999999999565e+00 5.283489999999999576e+00 5.084869999999999557e+00 9.432539999999999480e+00 3.522279999999999855e+00 8.124700000000000699e+00 9.436930000000000263e+00 1.052280000000000104e+00 2.032369999999999788e+00 1.693558000000000163e+01 -7.023300000000000098e-01 5.081500000000000128e+00 1.694078999999999979e+01 -2.458709999999999951e+00 8.125640000000000640e+00 1.694268999999999892e+01 4.579480000000000217e+00 2.035070000000000157e+00 1.693805000000000049e+01 2.812669999999999781e+00 5.080809999999999604e+00 1.693794000000000111e+01 1.055989999999999984e+00 8.128310000000000812e+00 1.693640999999999863e+01 8.095789999999999154e+00 2.035930000000000017e+00 1.693918999999999997e+01 6.336549999999999905e+00 5.082370000000000054e+00 1.693243000000000009e+01 4.573909999999999698e+00 8.125489999999999213e+00 1.693818999999999875e+01 1.199999999999999895e-03 2.030730000000000146e+00 1.305674999999999919e+01 -1.761100000000000110e+00 5.076830000000000176e+00 1.306578999999999979e+01 -3.516509999999999803e+00 8.133620000000000516e+00 1.306184999999999974e+01 3.515950000000000131e+00 2.031330000000000080e+00 1.306234000000000073e+01 1.754720000000000057e+00 5.083649999999999558e+00 1.306049999999999933e+01 -1.850000000000000082e-03 8.127039999999999154e+00 1.305951999999999913e+01 7.035519999999999996e+00 2.029030000000000111e+00 1.306075000000000053e+01 5.280079999999999885e+00 5.079139999999999766e+00 1.306235000000000035e+01 3.525279999999999969e+00 8.125249999999999417e+00 1.306520000000000081e+01 1.052899999999999947e+00 2.039239999999999942e+00 2.055827000000000027e+01 -7.080400000000000027e-01 5.079609999999999737e+00 2.056503000000000014e+01 -2.464539999999999953e+00 8.131119999999999237e+00 2.055599000000000132e+01 4.576810000000000045e+00 2.029500000000000082e+00 2.056017999999999901e+01 2.815170000000000172e+00 5.082290000000000418e+00 2.055620000000000047e+01 1.052270000000000039e+00 8.121880000000000877e+00 2.055924999999999869e+01 8.099610000000000198e+00 2.033760000000000012e+00 2.055487000000000108e+01 6.339100000000000179e+00 5.076769999999999783e+00 2.056341000000000108e+01 4.580099999999999838e+00 8.125420000000000087e+00 2.056341000000000108e+01 1.055838999999999928e+01 3.000000000000000076e-05 1.124831999999999965e+01 -1.756939999999999946e+00 3.046920000000000073e+00 1.125225000000000009e+01 -3.513520000000000199e+00 6.102430000000000021e+00 1.124932000000000087e+01 -1.759670000000000067e+00 9.140909999999999869e+00 1.124945999999999913e+01 1.760159999999999947e+00 3.049510000000000165e+00 1.124984000000000073e+01 -4.579999999999999870e-03 6.097870000000000346e+00 1.125189999999999912e+01 7.037440000000000140e+00 3.759999999999999887e-03 1.124882000000000026e+01 5.277969999999999828e+00 3.050079999999999902e+00 1.125595999999999997e+01 3.518339999999999801e+00 6.101709999999999745e+00 1.125144000000000055e+01 1.054850000000000065e+00 4.899999999999999842e-04 1.874952000000000041e+01 -7.030199999999999783e-01 3.048329999999999984e+00 1.874540000000000006e+01 -2.466549999999999798e+00 6.096940000000000026e+00 1.874966999999999828e+01 4.573129999999999917e+00 1.280000000000000105e-03 1.874903000000000119e+01 2.820759999999999934e+00 3.047180000000000000e+00 1.874658000000000158e+01 1.055290000000000061e+00 6.099020000000000330e+00 1.875110000000000099e+01 8.099489999999999412e+00 3.469999999999999994e-03 1.874997000000000114e+01 6.334819999999999673e+00 3.054549999999999876e+00 1.875277000000000172e+01 4.568529999999999980e+00 6.095989999999999576e+00 1.874875000000000114e+01
4.340000000000000108e-03 2.025650000000000173e+00 9.453879999999999839e+00 -1.744280000000000053e+00 5.080440000000000289e+00 9.435940000000000438e+00 -3.517580000000000151e+00 8.134430000000000049e+00 9.455239999999999867e+00 3.519439999999999902e+00 2.033329999999999860e+00 9.440899999999999181e+00 1.756590000000000096e+00 5.079139999999999766e+00 9.444190000000000751e+00 -2.409999999999999816e-03 8.131199999999999761e+00 9.442920000000000869e+00 7.034060000000000201e+00 2.027660000000000018e+00 9.434079999999999799e+00 5.285239999999999938e+00 5.086960000000000370e+00 9.428900000000000503e+00 3.523410000000000153e+00 8.122519999999999740e+00 9.435449999999999449e+00 1.050459999999999949e+00 2.032420000000000115e+00 1.693402999999999992e+01 -7.014799999999999924e-01 5.081909999999999705e+00 1.694182999999999950e+01 -2.456069999999999975e+00 8.123929999999999652e+00 1.694466999999999857e+01 4.581240000000000201e+00 2.036459999999999937e+00 1.693772999999999840e+01 2.811020000000000074e+00 5.080860000000000376e+00 1.693755000000000166e+01 1.056009999999999893e+00 8.127929999999999211e+00 1.693527999999999878e+01 8.095700000000000784e+00 2.037749999999999950e+00 1.693944000000000116e+01 6.336839999999999584e+00 5.083219999999999850e+00 1.692933000000000021e+01 4.572890000000000121e+00 8.123699999999999477e+00 1.693794000000000111e+01 1.779999999999999898e-03 2.029959999999999987e+00 1.305447999999999986e+01 -1.761670000000000069e+00 5.074910000000000032e+00 1.306800999999999924e+01 -3.514810000000000212e+00 8.135870000000000601e+00 1.306211000000000055e+01 3.513910000000000089e+00 2.030850000000000044e+00 1.306283999999999956e+01 1.752070000000000016e+00 5.085130000000000372e+00 1.306009000000000064e+01 -2.779999999999999919e-03 8.126020000000000465e+00 1.305863000000000085e+01 7.033280000000000420e+00 2.027420000000000222e+00 1.306047000000000047e+01 5.280109999999999637e+00 5.078400000000000247e+00 1.306284999999999918e+01 3.527880000000000127e+00 8.123340000000000671e+00 1.306711999999999918e+01 1.051360000000000072e+00 2.042710000000000026e+00 2.055734999999999957e+01 -7.100600000000000245e-01 5.079080000000000261e+00 2.056746000000000052e+01 -2.464820000000000011e+00 8.132139999999999702e+00 2.055395000000000039e+01 4.577219999999999622e+00 2.028129999999999988e+00 2.056022000000000105e+01 2.814750000000000085e+00 5.083070000000000199e+00 2.055425999999999931e+01 1.050419999999999909e+00 8.118299999999999628e+00 2.055882000000000076e+01 8.101399999999999935e+00 2.034499999999999975e+00 2.055227000000000004e+01 6.340629999999999988e+00 5.074849999999999639e+00 2.056505999999999901e+01 4.582130000000000258e+00 8.123599999999999710e+00 2.056504999999999939e+01 1.055757999999999974e+01 2.000000000000000164e-05 1.124709999999999965e+01 -1.755479999999999929e+00 3.046190000000000175e+00 1.125291999999999959e+01 -3.510310000000000041e+00 6.105170000000000208e+00 1.124857000000000085e+01 -1.759509999999999907e+00 9.138809999999999434e+00 1.124878999999999962e+01 1.760240000000000027e+00 3.050060000000000215e+00 1.124934000000000012e+01 -6.859999999999999779e-03 6.098390000000000200e+00 1.125242000000000075e+01 7.036190000000000389e+00 5.590000000000000351e-03 1.124780999999999942e+01 5.276959999999999873e+00 3.050920000000000076e+00 1.125844000000000023e+01 3.517520000000000202e+00 6.104119999999999990e+00 1.125170999999999921e+01 1.054270000000000040e+00 7.299999999999999632e-04 1.874969000000000108e+01 -7.025200000000000333e-01 3.048329999999999984e+00 1.874354999999999905e+01 -2.467810000000000059e+00 6.096980000000000288e+00 1.874992999999999910e+01 4.571749999999999758e+00 1.910000000000000022e-03 1.874896000000000029e+01 2.823109999999999786e+00 3.046580000000000066e+00 1.874530999999999992e+01 1.054929999999999923e+00 6.100089999999999790e+00 1.875206000000000017e+01 8.101210000000000022e+00 5.159999999999999656e-03 1.875037999999999982e+01 6.334249999999999936e+00 3.057580000000000187e+00 1.875453999999999866e+01 4.564869999999999983e+00 6.095570000000000377e+00 1.874855000000000160e+01
5.769999999999999955e-03 2.023470000000000102e+00 9.458460000000000534e+00 -1.739100000000000090e+00 5.080350000000000144e+00 9.434620000000000672e+00 -3.516779999999999795e+00 8.136200000000000543e+00 9.460240000000000649e+00 3.519270000000000120e+00 2.033679999999999932e+00 9.441240000000000521e+00 1.755460000000000020e+00 5.078640000000000043e+00 9.445600000000000662e+00 -3.200000000000000153e-03 8.131890000000000285e+00 9.443899999999999295e+00 7.032099999999999795e+00 2.026170000000000027e+00 9.432169999999999277e+00 5.286979999999999791e+00 5.089039999999999786e+00 9.425319999999999254e+00 3.524509999999999810e+00 8.120369999999999422e+00 9.433970000000000411e+00 1.048680000000000057e+00 2.032449999999999868e+00 1.693248000000000175e+01 -7.006200000000000205e-01 5.082329999999999792e+00 1.694286999999999921e+01 -2.453440000000000065e+00 8.122230000000000061e+00 1.694662999999999897e+01 4.583020000000000316e+00 2.037850000000000161e+00 1.693740000000000023e+01 2.809390000000000054e+00 5.080919999999999881e+00 1.693715999999999866e+01 1.056049999999999933e+00 8.127570000000000405e+00 1.693417000000000172e+01 8.095610000000000639e+00 2.039559999999999818e+00 1.693968999999999880e+01 6.337130000000000152e+00 5.084080000000000155e+00 1.692624999999999957e+01 4.571900000000000297e+00 8.121930000000000760e+00 1.693768999999999991e+01 2.340000000000000066e-03 2.029189999999999827e+00 1.305223999999999940e+01 -1.762259999999999938e+00 5.073000000000000398e+00 1.307022000000000084e+01 -3.513129999999999864e+00 8.138109999999999289e+00 1.306239000000000061e+01 3.511870000000000047e+00 2.030370000000000008e+00 1.306334000000000017e+01 1.749419999999999975e+00 5.086599999999999788e+00 1.305968000000000018e+01 -3.720000000000000216e-03 8.125009999999999621e+00 1.305776000000000003e+01 7.031030000000000335e+00 2.025819999999999954e+00 1.306020000000000003e+01 5.280129999999999768e+00 5.077670000000000350e+00 1.306333000000000055e+01 3.530419999999999892e+00 8.121470000000000411e+00 1.306902999999999970e+01 1.049849999999999950e+00 2.046159999999999979e+00 2.055641999999999925e+01 -7.120600000000000263e-01 5.078549999999999898e+00 2.056987000000000165e+01 -2.465100000000000069e+00 8.133139999999999148e+00 2.055191999999999908e+01 4.577630000000000088e+00 2.026759999999999895e+00 2.056025999999999954e+01 2.814329999999999998e+00 5.083840000000000359e+00 2.055235000000000056e+01 1.048589999999999911e+00 8.114779999999999660e+00 2.055839999999999890e+01 8.103189999999999671e+00 2.035239999999999938e+00 2.054968999999999824e+01 6.342130000000000045e+00 5.072949999999999626e+00 2.056670000000000087e+01 4.584150000000000169e+00 8.121779999999999333e+00 2.056666999999999845e+01 5.276769999999999960e+00 9.145200000000000884e+00 1.124593999999999916e+01 -1.754080000000000084e+00 3.045459999999999834e+00 1.125356999999999985e+01 -3.507130000000000081e+00 6.107840000000000380e+00 1.124784000000000006e+01 -1.759349999999999969e+00 9.136779999999999902e+00 1.124816000000000038e+01 1.760329999999999950e+00 3.050609999999999822e+00 1.124888999999999939e+01 -9.110000000000000042e-03 6.098900000000000432e+00 1.125295000000000023e+01 7.034989999999999633e+00 7.349999999999999763e-03 1.124682999999999922e+01 5.275949999999999918e+00 3.051759999999999806e+00 1.126083999999999996e+01 3.516719999999999846e+00 6.106469999999999843e+00 1.125197000000000003e+01 1.053700000000000081e+00 9.799999999999999684e-04 1.874982999999999933e+01 -7.020199999999999774e-01 3.048350000000000115e+00 1.874171000000000120e+01 -2.469050000000000189e+00 6.097000000000000419e+00 1.875019999999999953e+01 4.570420000000000371e+00 2.550000000000000183e-03 1.874887000000000015e+01 2.825410000000000199e+00 3.045980000000000132e+00 1.874402999999999864e+01 1.054559999999999942e+00 6.101119999999999877e+00 1.875299000000000049e+01 8.102909999999999613e+00 6.799999999999999621e-03 1.875077999999999889e+01 6.333700000000000330e+00 3.060579999999999856e+00 1.875626000000000104e+01 4.561320000000000263e+00 6.095139999999999780e+00 1.874833999999999889e+01
7.190000000000000210e-03 2.021319999999999784e+00 9.462960000000000704e+00 -1.733959999999999946e+00 5.080250000000000377e+00 9.433320000000000149e+00 -3.515989999999999949e+00 8.137950000000000017e+00 9.465170000000000528e+00 3.519099999999999895e+00 2.034030000000000005e+00 9.441589999999999705e+00 1.754340000000000011e+00 5.078170000000000073e+00 9.447010000000000574e+00 -3.980000000000000031e-03 8.132580000000000808e+00 9.444850000000000634e+00 7.030149999999999899e+00 2.024719999999999853e+00 9.430300000000000793e+00 5.288719999999999644e+00 5.091109999999999580e+00 9.421810000000000684e+00 3.525599999999999845e+00 8.118249999999999744e+00 9.432499999999999218e+00 1.046950000000000047e+00 2.032480000000000064e+00 1.693093999999999966e+01 -6.997600000000000486e-01 5.082749999999999879e+00 1.694388999999999967e+01 -2.450839999999999907e+00 8.120549999999999713e+00 1.694856000000000051e+01 4.584810000000000052e+00 2.039229999999999876e+00 1.693706999999999852e+01 2.807770000000000099e+00 5.080969999999999764e+00 1.693676999999999921e+01 1.056110000000000104e+00 8.127230000000000842e+00 1.693308999999999997e+01 8.095530000000000115e+00 2.041370000000000129e+00 1.693993000000000038e+01 6.337410000000000210e+00 5.084939999999999571e+00 1.692322000000000060e+01 4.570929999999999715e+00 8.120169999999999888e+00 1.693744999999999834e+01 2.890000000000000208e-03 2.028420000000000112e+00 1.305003999999999920e+01 -1.762869999999999937e+00 5.071100000000000385e+00 1.307241999999999926e+01 -3.511480000000000157e+00 8.140330000000000510e+00 1.306267000000000067e+01 3.509809999999999874e+00 2.029889999999999972e+00 1.306385000000000041e+01 1.746769999999999934e+00 5.088070000000000093e+00 1.305927999999999933e+01 -4.669999999999999672e-03 8.124010000000000176e+00 1.305690000000000062e+01 7.028789999999999871e+00 2.024230000000000196e+00 1.305993999999999922e+01 5.280140000000000278e+00 5.076990000000000336e+00 1.306378999999999913e+01 3.532919999999999838e+00 8.119630000000000791e+00 1.307090999999999958e+01 1.048359999999999959e+00 2.049580000000000179e+00 2.055548999999999893e+01 -7.140600000000000280e-01 5.078020000000000422e+00 2.057225000000000037e+01 -2.465399999999999814e+00 8.134149999999999991e+00 2.054992999999999981e+01 4.578030000000000044e+00 2.025409999999999933e+00 2.056032000000000082e+01 2.813899999999999846e+00 5.084590000000000387e+00 2.055046000000000106e+01 1.046780000000000044e+00 8.111299999999999955e+00 2.055797000000000097e+01 8.104960000000000164e+00 2.035979999999999901e+00 2.054713999999999885e+01 6.343589999999999840e+00 5.071089999999999876e+00 2.056831999999999994e+01 4.586149999999999949e+00 8.119979999999999976e+00 2.056828000000000145e+01 5.275960000000000427e+00 9.145110000000000738e+00 1.124488000000000021e+01 -1.752769999999999939e+00 3.044750000000000068e+00 1.125418999999999947e+01 -3.504000000000000004e+00 6.110409999999999897e+00 1.124715999999999916e+01 -1.759179999999999966e+00 9.134850000000000136e+00 1.124757999999999925e+01 1.760420000000000096e+00 3.051159999999999872e+00 1.124848000000000070e+01 -1.133999999999999939e-02 6.099400000000000155e+00 1.125347999999999971e+01 7.033830000000000027e+00 9.029999999999999832e-03 1.124587999999999965e+01 5.274939999999999962e+00 3.052599999999999980e+00 1.126314999999999955e+01 3.515950000000000131e+00 6.108749999999999680e+00 1.125223000000000084e+01 1.053129999999999900e+00 1.219999999999999947e-03 1.874994999999999834e+01 -7.015200000000000324e-01 3.048420000000000130e+00 1.873990999999999829e+01 -2.470270000000000188e+00 6.096989999999999910e+00 1.875046000000000035e+01 4.569169999999999732e+00 3.180000000000000101e-03 1.874877000000000038e+01 2.827659999999999840e+00 3.045409999999999950e+00 1.874277000000000015e+01 1.054170000000000051e+00 6.102100000000000080e+00 1.875390000000000157e+01 8.104570000000000718e+00 8.370000000000000703e-03 1.875116999999999834e+01 6.333179999999999588e+00 3.063520000000000021e+00 1.875789999999999935e+01 4.557890000000000441e+00 6.094710000000000072e+00 1.874812000000000012e+01
8.600000000000000006e-03 2.019179999999999975e+00 9.467380000000000351e+00 -1.728879999999999972e+00 5.080129999999999590e+00 9.432029999999999248e+00 -3.515200000000000102e+00 8.139699999999999491e+00 9.469989999999999242e+00 3.518949999999999800e+00 2.034380000000000077e+00 9.441940000000000666e+00 1.753230000000000066e+00 5.077720000000000233e+00 9.448410000000000863e+00 -4.740000000000000289e-03 8.133240000000000691e+00 9.445769999999999555e+00 7.028220000000000134e+00 2.023320000000000007e+00 9.428480000000000416e+00 5.290460000000000385e+00 5.093169999999999753e+00 9.418380000000000862e+00 3.526650000000000063e+00 8.116160000000000707e+00 9.431029999999999802e+00 1.045269999999999921e+00 2.032490000000000130e+00 1.692940000000000111e+01 -6.988900000000000112e-01 5.083179999999999588e+00 1.694490000000000052e+01 -2.448259999999999881e+00 8.118900000000000006e+00 1.695045999999999964e+01 4.586630000000000429e+00 2.040589999999999904e+00 1.693673000000000073e+01 2.806160000000000210e+00 5.081010000000000026e+00 1.693636000000000053e+01 1.056200000000000028e+00 8.126910000000000522e+00 1.693204000000000065e+01 8.095439999999999969e+00 2.043169999999999931e+00 1.694016999999999840e+01 6.337679999999999758e+00 5.085799999999999876e+00 1.692023000000000010e+01 4.569980000000000153e+00 8.118430000000000035e+00 1.693721000000000032e+01 3.419999999999999863e-03 2.027649999999999952e+00 1.304787999999999926e+01 -1.763500000000000068e+00 5.069209999999999994e+00 1.307460000000000022e+01 -3.509879999999999889e+00 8.142540000000000333e+00 1.306295000000000073e+01 3.507750000000000146e+00 2.029389999999999805e+00 1.306434999999999924e+01 1.744129999999999958e+00 5.089540000000000397e+00 1.305888999999999989e+01 -5.610000000000000403e-03 8.123029999999999973e+00 1.305607000000000006e+01 7.026559999999999917e+00 2.022660000000000124e+00 1.305968000000000018e+01 5.280149999999999899e+00 5.076340000000000074e+00 1.306423000000000023e+01 3.535359999999999836e+00 8.117820000000000036e+00 1.307277000000000022e+01 1.046899999999999942e+00 2.052979999999999805e+00 2.055453999999999937e+01 -7.160300000000000553e-01 5.077490000000000059e+00 2.057459000000000060e+01 -2.465710000000000068e+00 8.135149999999999437e+00 2.054796999999999940e+01 4.578430000000000000e+00 2.024080000000000101e+00 2.056037999999999855e+01 2.813460000000000072e+00 5.085309999999999775e+00 2.054860000000000042e+01 1.044990000000000085e+00 8.107900000000000773e+00 2.055754999999999910e+01 8.106719999999999260e+00 2.036719999999999864e+00 2.054461999999999833e+01 6.345010000000000261e+00 5.069289999999999630e+00 2.056993999999999900e+01 4.588129999999999598e+00 8.118199999999999861e+00 2.056987000000000165e+01 5.275159999999999627e+00 9.144949999999999690e+00 1.124393000000000065e+01 -1.751560000000000006e+00 3.044059999999999988e+00 1.125478999999999985e+01 -3.500910000000000188e+00 6.112870000000000026e+00 1.124652000000000029e+01 -1.758999999999999897e+00 9.133039999999999381e+00 1.124708000000000041e+01 1.760529999999999928e+00 3.051689999999999792e+00 1.124812000000000012e+01 -1.353999999999999995e-02 6.099879999999999747e+00 1.125403000000000020e+01 7.032750000000000057e+00 1.060999999999999964e-02 1.124497000000000035e+01 5.273950000000000138e+00 3.053440000000000154e+00 1.126533000000000051e+01 3.515210000000000168e+00 6.110960000000000392e+00 1.125247000000000064e+01 1.052559999999999940e+00 1.459999999999999926e-03 1.875003999999999849e+01 -7.010199999999999765e-01 3.048550000000000093e+00 1.873815000000000097e+01 -2.471470000000000056e+00 6.096949999999999648e+00 1.875074000000000041e+01 4.568019999999999747e+00 3.810000000000000019e-03 1.874864000000000175e+01 2.829829999999999846e+00 3.044849999999999834e+00 1.874149999999999849e+01 1.053760000000000030e+00 6.103019999999999889e+00 1.875476000000000099e+01 8.106189999999999785e+00 9.870000000000000301e-03 1.875155000000000172e+01 6.332679999999999865e+00 3.066399999999999793e+00 1.875947000000000031e+01 4.554599999999999760e+00 6.094269999999999854e+00 1.874790000000000134e+01