1.299000000000000024e-03 1.003999999999999901e-03 4.361000000000000293e-03 1.296000000000000060e-03 1.005999999999999950e-03 4.362999999999999691e-03 1.294999999999999927e-03 1.005000000000000034e-03 4.361000000000000293e-03 1.293000000000000095e-03 1.005999999999999950e-03 4.361000000000000293e-03 1.294999999999999927e-03 1.003999999999999901e-03 4.359000000000000027e-03 1.299000000000000024e-03 1.007999999999999998e-03 4.361000000000000293e-03 1.299999999999999940e-03 1.003999999999999901e-03 4.362999999999999691e-03 1.299999999999999940e-03 1.010000000000000047e-03 4.360000000000000160e-03 1.296999999999999976e-03 1.010000000000000047e-03 4.361000000000000293e-03 5.113800000000000290e-02 -1.588999999999999918e-03 -9.060999999999999610e-03 5.113899999999999696e-02 -1.582999999999999989e-03 -9.057000000000000814e-03 5.113800000000000290e-02 -1.592000000000000099e-03 -9.060999999999999610e-03 5.114400000000000196e-02 -1.583999999999999905e-03 -9.060999999999999610e-03 5.113700000000000190e-02 -1.588999999999999918e-03 -9.058000000000000079e-03 5.114300000000000096e-02 -1.592000000000000099e-03 -9.060000000000000345e-03 5.113600000000000090e-02 -1.587000000000000086e-03 -9.062000000000000610e-03 5.114599999999999702e-02 -1.590999999999999966e-03 -9.058999999999999345e-03 5.114099999999999896e-02 -1.585000000000000037e-03 -9.062999999999999876e-03 -5.115800000000000208e-02 -1.575000000000000011e-03 9.109000000000000777e-03 -5.115800000000000208e-02 -1.577000000000000060e-03 9.109000000000000777e-03 -5.115900000000000308e-02 -1.575999999999999927e-03 9.112000000000000308e-03 -5.116300000000000014e-02 -1.579000000000000108e-03 9.110000000000000042e-03 -5.116199999999999914e-02 -1.577999999999999976e-03 9.110000000000000042e-03 -5.115700000000000108e-02 -1.575999999999999927e-03 9.110999999999999308e-03 -5.115800000000000208e-02 -1.579000000000000108e-03 9.110999999999999308e-03 -5.115700000000000108e-02 -1.574000000000000095e-03 9.109000000000000777e-03 -5.115700000000000108e-02 -1.575000000000000011e-03 9.110999999999999308e-03 -1.317000000000000028e-03 9.940000000000000918e-04 -4.308000000000000197e-03 -1.314999999999999980e-03 1.000000000000000021e-03 -4.311999999999999861e-03 -1.317000000000000028e-03 9.909999999999999105e-04 -4.310999999999999728e-03 -1.314000000000000064e-03 9.970000000000000563e-04 -4.314000000000000126e-03 -1.320999999999999909e-03 9.959999999999999236e-04 -4.310999999999999728e-03 -1.314000000000000064e-03 9.899999999999999946e-04 -4.310999999999999728e-03 -1.319000000000000077e-03 9.970000000000000563e-04 -4.309999999999999595e-03 -1.312999999999999931e-03 9.899999999999999946e-04 -4.310999999999999728e-03 -1.319999999999999993e-03 9.959999999999999236e-04 -4.307000000000000065e-03 -1.413400000000000073e-02 6.009999999999999717e-04 5.426000000000000267e-03 -1.413099999999999946e-02 5.959999999999999586e-04 5.425000000000000135e-03 -1.412799999999999993e-02 5.929999999999999941e-04 5.428999999999999798e-03 -1.413200000000000046e-02 5.969999999999999829e-04 5.428999999999999798e-03 -1.413599999999999926e-02 5.950000000000000427e-04 5.431000000000000064e-03 -1.413799999999999953e-02 5.929999999999999941e-04 5.427999999999999665e-03 -1.412899999999999920e-02 6.009999999999999717e-04 5.429999999999999931e-03 -1.413299999999999973e-02 5.980000000000000072e-04 5.429999999999999931e-03 -1.412599999999999967e-02 5.969999999999999829e-04 5.429999999999999931e-03 1.411300000000000054e-02 6.040000000000000447e-04 -5.527999999999999928e-03 1.410999999999999928e-02 6.059999999999999849e-04 -5.527999999999999928e-03 1.411399999999999981e-02 6.019999999999999961e-04 -5.529000000000000060e-03 1.411199999999999954e-02 5.990000000000000316e-04 -5.523000000000000131e-03 1.410699999999999975e-02 6.049999999999999606e-04 -5.530000000000000193e-03 1.410900000000000001e-02 6.040000000000000447e-04 -5.526999999999999795e-03 1.410299999999999922e-02 6.009999999999999717e-04 -5.531999999999999591e-03 1.410800000000000075e-02 6.049999999999999606e-04 -5.526999999999999795e-03 1.410800000000000075e-02 5.969999999999999829e-04 -5.530000000000000193e-03
-9.957000000000000572e-03 1.967999999999999958e-02 -5.702600000000000030e-02 -4.173199999999999826e-02 -8.933999999999999234e-03 1.323799999999999977e-02 -3.474999999999999790e-03 -9.017999999999999974e-03 -6.989900000000000280e-02 9.173000000000000598e-03 -3.660000000000000059e-04 8.739999999999999505e-03 7.860000000000000667e-03 1.778300000000000020e-02 -3.965999999999999907e-03 1.023199999999999978e-02 -8.214000000000000815e-03 -1.788100000000000106e-02 1.407100000000000017e-02 3.511399999999999938e-02 3.381399999999999684e-02 -2.138999999999999842e-03 -8.151000000000000259e-03 6.717599999999999960e-02 -2.135400000000000145e-02 2.687900000000000011e-02 1.077700000000000012e-02 7.882699999999999430e-02 -9.622000000000000344e-03 -1.675999999999999972e-03 4.319900000000000129e-02 4.388999999999999672e-03 -1.557200000000000077e-02 1.785600000000000034e-02 1.584199999999999844e-02 -3.171000000000000207e-02 5.184500000000000219e-02 -1.009000000000000001e-02 -1.065699999999999981e-02 4.977199999999999680e-02 -5.054000000000000332e-03 -1.307299999999999955e-02 5.779900000000000315e-02 1.664699999999999860e-02 1.530800000000000043e-02 3.976199999999999873e-02 -7.813000000000000500e-03 -9.714000000000000412e-03 3.408300000000000218e-02 3.970999999999999704e-03 2.929299999999999959e-02 5.908200000000000257e-02 1.466100000000000042e-02 -2.573999999999999899e-03 -5.143999999999999961e-02 4.090000000000000211e-04 3.763199999999999878e-02 -5.302500000000000269e-02 8.824999999999999512e-03 -6.903000000000000282e-03 -6.813400000000000012e-02 -1.683600000000000027e-02 1.235299999999999940e-02 -4.278699999999999865e-02 -5.467999999999999770e-03 4.399000000000000132e-03 -3.500000000000000333e-02 -5.917000000000000384e-03 1.007100000000000009e-02 -3.946899999999999714e-02 1.039200000000000020e-02 2.221700000000000064e-02 -3.146800000000000291e-02 1.224599999999999994e-02 1.469699999999999999e-02 -4.263800000000000229e-02 2.837999999999999898e-02 -1.196400000000000068e-02 -8.543100000000000693e-02 2.874799999999999925e-02 -1.547899999999999970e-02 2.117399999999999838e-02 -2.144499999999999879e-02 -8.503999999999999407e-03 1.091699999999999962e-02 2.125000000000000153e-03 -3.462599999999999706e-02 -9.997000000000000677e-03 -3.657000000000000094e-03 2.051700000000000051e-02 -2.560000000000000209e-03 1.316900000000000015e-02 3.892000000000000060e-03 -6.052000000000000088e-03 -1.889300000000000007e-02 1.947099999999999873e-02 1.825299999999999839e-02 4.947000000000000008e-02 -3.433999999999999986e-03 -1.261999999999999927e-02 -5.370000000000000424e-04 2.257999999999999938e-02 -3.374800000000000022e-02 3.617700000000000082e-02 -1.408799999999999983e-02 -1.907199999999999868e-02 1.482600000000000064e-02 -1.861200000000000007e-02 -8.321999999999999537e-03 -2.801800000000000124e-02 6.080300000000000288e-02 -6.744999999999999607e-02 8.859000000000000555e-03 -1.298000000000000022e-02 -3.815999999999999948e-02 -6.183099999999999707e-02 2.894899999999999904e-02 -7.163000000000000096e-03 6.136199999999999988e-02 3.851299999999999862e-02 -4.716999999999999839e-03 -2.145000000000000205e-03 3.253400000000000042e-02 7.618999999999999904e-03 -7.936999999999999611e-03 9.067000000000000406e-03 2.576700000000000171e-02 -5.401100000000000345e-02 2.556900000000000145e-02 -5.246999999999999928e-03 1.549000000000000030e-03 -6.153000000000000136e-02 7.969000000000000389e-03 -4.369699999999999973e-02 -3.314000000000000105e-03 1.048900000000000006e-02 -3.460000000000000076e-04 -2.180700000000000000e-02 1.044899999999999995e-02 2.912999999999999964e-02 1.589899999999999994e-02 2.334599999999999870e-02 -1.824500000000000080e-02 -2.407999999999999984e-03 5.898799999999999877e-02 -1.541999999999999968e-03 -1.657300000000000093e-02 -2.906399999999999956e-02 1.005099999999999917e-02 1.999999999999999909e-06 -8.880000000000000089e-04 -3.186200000000000143e-02 -2.440600000000000061e-02 -1.402400000000000001e-02 -4.234799999999999676e-02 -9.849999999999999381e-03 2.642699999999999910e-02 -3.383200000000000096e-02 -4.926300000000000123e-02 9.179800000000000459e-02 -5.007000000000000166e-03 -8.023000000000000617e-03
-2.132099999999999967e-02 3.868699999999999917e-02 -1.188619999999999954e-01 -8.459899999999999365e-02 -1.891200000000000173e-02 2.163999999999999951e-02 -8.595999999999999475e-03 -1.911600000000000105e-02 -1.448059999999999903e-01 1.693599999999999967e-02 -1.683999999999999950e-03 1.291300000000000087e-02 1.439799999999999934e-02 3.451599999999999807e-02 -1.230200000000000043e-02 1.914199999999999929e-02 -1.752499999999999891e-02 -4.008400000000000157e-02 2.655199999999999921e-02 6.861599999999999644e-02 6.251199999999999812e-02 -5.401999999999999684e-03 -1.701300000000000034e-02 1.285409999999999886e-01 -4.356399999999999856e-02 5.250599999999999712e-02 1.682200000000000015e-02 1.061150000000000010e-01 -1.766200000000000062e-02 5.517000000000000202e-03 3.516400000000000081e-02 1.032800000000000037e-02 -2.222299999999999970e-02 -1.531599999999999975e-02 3.313699999999999979e-02 -5.451099999999999696e-02 5.251200000000000312e-02 -1.852399999999999880e-02 -1.226099999999999933e-02 4.840400000000000258e-02 -8.524999999999999592e-03 -1.707399999999999890e-02 6.424299999999999455e-02 3.458499999999999769e-02 3.924500000000000210e-02 2.844299999999999953e-02 -1.405200000000000025e-02 -1.044499999999999942e-02 1.741300000000000139e-02 9.332999999999999283e-03 6.695099999999999663e-02 6.686899999999999789e-02 3.077799999999999980e-02 3.889000000000000096e-03 -5.170099999999999696e-02 2.364999999999999915e-03 6.619600000000000484e-02 -5.479400000000000243e-02 1.905600000000000002e-02 -2.280300000000000035e-02 -8.498500000000000498e-02 -3.217400000000000121e-02 1.580399999999999860e-02 -3.421899999999999942e-02 -9.112999999999999573e-03 -2.020000000000000040e-04 -1.886900000000000036e-02 -1.020100000000000000e-02 1.108899999999999990e-02 -2.778800000000000020e-02 2.229400000000000132e-02 3.542700000000000016e-02 -1.195200000000000082e-02 2.598699999999999968e-02 2.030300000000000160e-02 -3.429999999999999716e-02 5.791500000000000120e-02 -3.243900000000000255e-02 -1.187420000000000003e-01 5.841299999999999965e-02 -3.911499999999999699e-02 4.360900000000000193e-02 -4.380400000000000266e-02 -1.254599999999999986e-02 2.299000000000000002e-02 3.301000000000000115e-03 -6.438199999999999479e-02 -1.858699999999999936e-02 -8.279999999999999166e-03 4.526299999999999768e-02 -3.739000000000000136e-03 2.534600000000000047e-02 1.195000000000000055e-02 -1.080399999999999937e-02 -3.878399999999999903e-02 4.335499999999999771e-02 3.740500000000000075e-02 9.786999999999999866e-02 -1.884999999999999957e-03 -2.381899999999999989e-02 -1.894999999999999983e-03 4.940900000000000153e-02 -6.546599999999999642e-02 7.102799999999999392e-02 -2.297199999999999936e-02 -3.651299999999999685e-02 2.848900000000000043e-02 -3.284999999999999726e-02 -2.965999999999999887e-03 -5.688700000000000007e-02 1.163099999999999967e-01 -1.200569999999999971e-01 1.744300000000000017e-02 -3.093699999999999922e-02 -6.172899999999999915e-02 -1.237690000000000040e-01 5.241099999999999925e-02 1.820000000000000057e-04 1.221140000000000003e-01 7.177400000000000446e-02 4.840999999999999817e-03 -4.820999999999999765e-03 5.960800000000000126e-02 2.928499999999999853e-02 -1.642700000000000063e-02 1.270400000000000001e-02 6.459600000000000064e-02 -1.076669999999999988e-01 4.502699999999999758e-02 3.341999999999999919e-03 2.004000000000000139e-03 -1.271420000000000050e-01 2.944599999999999995e-02 -8.725700000000000123e-02 -1.165599999999999969e-02 6.827999999999999868e-03 -1.301000000000000073e-03 -3.787700000000000095e-02 6.918999999999999803e-03 5.734199999999999714e-02 3.702899999999999942e-02 3.243499999999999855e-02 -3.701000000000000123e-02 7.960000000000000495e-04 1.036839999999999984e-01 -3.530000000000000152e-03 -2.734400000000000025e-02 -7.180300000000000571e-02 1.947700000000000126e-02 5.642000000000000313e-03 -1.569100000000000009e-02 -6.421699999999999631e-02 -4.358900000000000274e-02 -4.160699999999999815e-02 -8.479299999999999338e-02 -1.444999999999999930e-02 3.848300000000000332e-02 -6.826899999999999635e-02 -9.258099999999999663e-02 1.683659999999999879e-01 -9.915000000000000202e-03 -1.078299999999999918e-02
-3.279699999999999976e-02 5.800000000000000294e-02 -1.808369999999999977e-01 -1.273269999999999957e-01 -2.887999999999999942e-02 2.947500000000000120e-02 -1.403800000000000013e-02 -2.933900000000000050e-02 -2.199979999999999991e-01 2.448499999999999982e-02 -2.920999999999999985e-03 1.683399999999999827e-02 2.094599999999999934e-02 5.107699999999999740e-02 -2.065000000000000169e-02 2.798600000000000046e-02 -2.687600000000000058e-02 -6.209200000000000136e-02 3.876399999999999985e-02 1.013249999999999984e-01 9.031000000000000139e-02 -8.547000000000000777e-03 -2.565600000000000172e-02 1.881720000000000059e-01 -6.519899999999999307e-02 7.779600000000000404e-02 2.256000000000000019e-02 1.329230000000000134e-01 -2.564100000000000060e-02 1.244600000000000047e-02 2.698300000000000004e-02 1.620999999999999872e-02 -2.908399999999999874e-02 -4.832399999999999890e-02 5.025500000000000106e-02 -7.747500000000000220e-02 5.298900000000000138e-02 -2.688199999999999965e-02 -1.395300000000000012e-02 4.713300000000000128e-02 -1.197400000000000027e-02 -2.104100000000000067e-02 7.048500000000000598e-02 5.206899999999999723e-02 6.256699999999999762e-02 1.731399999999999953e-02 -2.043299999999999977e-02 -1.129800000000000075e-02 1.280000000000000105e-03 1.442200000000000079e-02 1.037269999999999998e-01 7.448299999999999366e-02 4.678100000000000314e-02 1.014499999999999950e-02 -5.201900000000000274e-02 4.350999999999999833e-03 9.476800000000000501e-02 -5.639600000000000168e-02 2.913800000000000071e-02 -3.843599999999999794e-02 -1.016370000000000051e-01 -4.766499999999999904e-02 1.953500000000000028e-02 -2.532299999999999829e-02 -1.235400000000000040e-02 -4.624999999999999771e-03 -2.655999999999999941e-03 -1.451999999999999992e-02 1.226200000000000033e-02 -1.614300000000000110e-02 3.415100000000000080e-02 4.881400000000000322e-02 7.309000000000000392e-03 3.960400000000000031e-02 2.595899999999999944e-02 -2.621199999999999919e-02 8.683899999999999952e-02 -5.211099999999999760e-02 -1.510630000000000028e-01 8.725199999999999623e-02 -6.164399999999999741e-02 6.593000000000000249e-02 -6.614000000000000434e-02 -1.633099999999999830e-02 3.493099999999999677e-02 4.601000000000000055e-03 -9.353699999999999515e-02 -2.701100000000000029e-02 -1.291199999999999987e-02 6.981300000000000006e-02 -4.863000000000000135e-03 3.759099999999999941e-02 1.976599999999999885e-02 -1.553799999999999973e-02 -5.860499999999999737e-02 6.723999999999999422e-02 5.615900000000000059e-02 1.460180000000000089e-01 3.339999999999999870e-04 -3.497399999999999815e-02 -3.171000000000000207e-03 7.610100000000000198e-02 -9.633099999999999996e-02 1.053859999999999936e-01 -3.099000000000000019e-02 -5.366599999999999843e-02 4.202100000000000279e-02 -4.697300000000000086e-02 1.955000000000000140e-03 -8.580300000000000427e-02 1.714600000000000013e-01 -1.715450000000000030e-01 2.620499999999999913e-02 -4.832100000000000284e-02 -8.477700000000000513e-02 -1.847519999999999996e-01 7.564300000000000190e-02 7.846000000000000543e-03 1.824729999999999963e-01 1.049360000000000015e-01 1.450000000000000074e-02 -7.420000000000000380e-03 8.643699999999999994e-02 5.076900000000000163e-02 -2.484799999999999856e-02 1.628299999999999886e-02 1.021579999999999988e-01 -1.600479999999999958e-01 6.371300000000000574e-02 1.146199999999999997e-02 1.850999999999999998e-03 -1.909299999999999886e-01 5.016700000000000326e-02 -1.299539999999999862e-01 -1.952299999999999869e-02 3.177000000000000136e-03 -2.183000000000000045e-03 -5.360800000000000287e-02 3.487000000000000082e-03 8.501200000000000423e-02 5.772700000000000053e-02 4.148400000000000004e-02 -5.559499999999999859e-02 4.010999999999999809e-03 1.479040000000000077e-01 -5.474999999999999832e-03 -3.775400000000000283e-02 -1.138659999999999950e-01 2.881999999999999840e-02 1.137099999999999916e-02 -3.019499999999999962e-02 -9.619900000000000673e-02 -6.295699999999999907e-02 -6.849299999999999833e-02 -1.265380000000000116e-01 -1.928799999999999959e-02 5.025000000000000300e-02 -1.025019999999999959e-01 -1.351940000000000086e-01 2.433510000000000117e-01 -1.416800000000000004e-02 -1.377300000000000052e-02
-4.436600000000000266e-02 7.749300000000000632e-02 -2.425249999999999906e-01 -1.698419999999999930e-01 -3.877699999999999897e-02 3.677300000000000013e-02 -1.975400000000000073e-02 -3.970900000000000124e-02 -2.949330000000000007e-01 3.172400000000000220e-02 -4.061000000000000373e-03 2.042199999999999918e-02 2.750899999999999873e-02 6.733699999999999408e-02 -2.899099999999999941e-02 3.672199999999999770e-02 -3.619300000000000295e-02 -8.368799999999999850e-02 5.072800000000000226e-02 1.329859999999999931e-01 1.171119999999999939e-01 -1.157099999999999969e-02 -3.406300000000000300e-02 2.457799999999999985e-01 -8.610299999999999898e-02 1.026350000000000040e-01 2.806499999999999967e-02 1.591039999999999954e-01 -3.349699999999999900e-02 1.910799999999999998e-02 1.861700000000000160e-02 2.199299999999999866e-02 -3.625199999999999950e-02 -8.100999999999999868e-02 6.714499999999999635e-02 -1.004540000000000016e-01 5.317399999999999904e-02 -3.515299999999999675e-02 -1.573799999999999852e-02 4.606999999999999984e-02 -1.536399999999999919e-02 -2.491700000000000165e-02 7.649300000000000543e-02 6.895400000000000140e-02 8.512999999999999734e-02 6.504000000000000233e-03 -2.699999999999999969e-02 -1.226600000000000086e-02 -1.419899999999999982e-02 1.916899999999999854e-02 1.394670000000000076e-01 8.191099999999999770e-02 6.260699999999999599e-02 1.616799999999999835e-02 -5.250599999999999712e-02 6.419000000000000226e-03 1.232110000000000011e-01 -5.779900000000000315e-02 3.899199999999999888e-02 -5.376800000000000329e-02 -1.179909999999999987e-01 -6.335499999999999465e-02 2.350599999999999912e-02 -1.601299999999999946e-02 -1.505500000000000067e-02 -8.781000000000000610e-03 1.365300000000000021e-02 -1.889400000000000107e-02 1.364300000000000061e-02 -4.549000000000000092e-03 4.593499999999999667e-02 6.232700000000000046e-02 2.622700000000000031e-02 5.303800000000000181e-02 3.157100000000000184e-02 -1.840400000000000022e-02 1.149379999999999985e-01 -7.087000000000000244e-02 -1.823249999999999871e-01 1.150619999999999976e-01 -8.296199999999999408e-02 8.801699999999999802e-02 -8.845200000000000284e-02 -1.981799999999999881e-02 4.671100000000000252e-02 6.053000000000000221e-03 -1.219309999999999977e-01 -3.516299999999999981e-02 -1.752400000000000138e-02 9.397400000000000198e-02 -5.929000000000000242e-03 4.989899999999999891e-02 2.720399999999999902e-02 -2.016499999999999890e-02 -7.823599999999999999e-02 9.096400000000000319e-02 7.446700000000000541e-02 1.936620000000000008e-01 3.214999999999999976e-03 -4.608500000000000096e-02 -4.400000000000000265e-03 1.025100000000000039e-01 -1.262099999999999889e-01 1.390160000000000007e-01 -3.819800000000000278e-02 -7.049600000000000311e-02 5.538499999999999673e-02 -6.100599999999999773e-02 6.420000000000000359e-03 -1.145110000000000017e-01 2.256549999999999945e-01 -2.214849999999999874e-01 3.505799999999999889e-02 -6.501200000000000034e-02 -1.071629999999999944e-01 -2.442870000000000041e-01 9.842299999999999660e-02 1.576899999999999830e-02 2.419449999999999934e-01 1.376330000000000053e-01 2.411900000000000155e-02 -9.945000000000000714e-03 1.127400000000000069e-01 7.189500000000000057e-02 -3.314500000000000085e-02 1.971600000000000089e-02 1.382259999999999878e-01 -2.107860000000000011e-01 8.149599999999999900e-02 1.908699999999999980e-02 1.077999999999999965e-03 -2.523750000000000160e-01 7.002600000000000491e-02 -1.714519999999999933e-01 -2.688199999999999965e-02 -4.330000000000000081e-04 -2.958999999999999825e-03 -6.886000000000000454e-02 1.710000000000000094e-04 1.118849999999999983e-01 7.786400000000000265e-02 5.043899999999999773e-02 -7.383000000000000673e-02 7.217999999999999590e-03 1.912959999999999938e-01 -7.372000000000000081e-03 -4.766600000000000004e-02 -1.549109999999999931e-01 3.796100000000000169e-02 1.717399999999999829e-02 -4.427699999999999692e-02 -1.275010000000000032e-01 -8.231800000000000228e-02 -9.448299999999999754e-02 -1.673080000000000123e-01 -2.430399999999999922e-02 6.161400000000000210e-02 -1.362569999999999892e-01 -1.767029999999999990e-01 3.162429999999999963e-01 -1.776900000000000007e-02 -1.690300000000000136e-02
-5.600000000000000117e-02 9.702299999999999813e-02 -3.034529999999999728e-01 -2.120380000000000043e-01 -4.854599999999999888e-02 4.354600000000000137e-02 -2.568199999999999997e-02 -5.023699999999999694e-02 -3.690339999999999732e-01 3.858000000000000318e-02 -5.066000000000000190e-03 2.361500000000000057e-02 3.409199999999999731e-02 8.317700000000000093e-02 -3.727899999999999964e-02 4.530200000000000199e-02 -4.540299999999999891e-02 -1.046669999999999962e-01 6.243200000000000138e-02 1.633759999999999935e-01 1.428439999999999988e-01 -1.448499999999999961e-02 -4.224100000000000077e-02 3.011429999999999940e-01 -1.061300000000000021e-01 1.268960000000000088e-01 3.340499999999999720e-02 1.845179999999999876e-01 -4.115400000000000308e-02 2.550799999999999942e-02 1.003300000000000025e-02 2.764300000000000090e-02 -4.379799999999999666e-02 -1.132259999999999933e-01 8.374399999999999900e-02 -1.233189999999999981e-01 5.296900000000000219e-02 -4.330599999999999727e-02 -1.760700000000000112e-02 4.531199999999999811e-02 -1.866900000000000157e-02 -2.864699999999999885e-02 8.225599999999999579e-02 8.509999999999999509e-02 1.067940000000000000e-01 -3.866000000000000079e-03 -3.379200000000000259e-02 -1.333799999999999916e-02 -2.891700000000000173e-02 2.351100000000000065e-02 1.740130000000000010e-01 8.912399999999999489e-02 7.820100000000000662e-02 2.189199999999999827e-02 -5.326800000000000285e-02 8.623000000000000456e-03 1.514000000000000068e-01 -5.896400000000000252e-02 4.857000000000000206e-02 -6.874800000000000355e-02 -1.339420000000000055e-01 -7.928100000000000425e-02 2.771799999999999958e-02 -6.204000000000000313e-03 -1.707900000000000043e-02 -1.260099999999999935e-02 3.007699999999999957e-02 -2.334299999999999917e-02 1.527099999999999985e-02 6.976999999999999695e-03 5.761299999999999755e-02 7.593800000000000550e-02 4.467900000000000343e-02 6.622799999999999521e-02 3.703000000000000042e-02 -1.091600000000000036e-02 1.420009999999999883e-01 -8.865900000000000170e-02 -2.124719999999999942e-01 1.416509999999999991e-01 -1.029670000000000030e-01 1.097690000000000055e-01 -1.107220000000000010e-01 -2.298299999999999996e-02 5.830099999999999866e-02 7.687000000000000256e-03 -1.494260000000000033e-01 -4.295399999999999913e-02 -2.209300000000000153e-02 1.175609999999999988e-01 -6.938999999999999856e-03 6.226899999999999796e-02 3.412699999999999761e-02 -2.460499999999999840e-02 -9.756199999999999595e-02 1.143509999999999943e-01 9.229700000000000404e-02 2.405359999999999998e-01 6.716999999999999880e-03 -5.714400000000000035e-02 -5.625999999999999925e-03 1.284830000000000139e-01 -1.549810000000000076e-01 1.716930000000000123e-01 -4.465399999999999925e-02 -8.695899999999999463e-02 6.854300000000000670e-02 -7.493900000000000561e-02 1.041699999999999918e-02 -1.427549999999999930e-01 2.782729999999999926e-01 -2.694710000000000161e-01 4.391799999999999871e-02 -8.089999999999999969e-02 -1.287480000000000013e-01 -3.018899999999999917e-01 1.205100000000000060e-01 2.387099999999999986e-02 3.000680000000000014e-01 1.694839999999999958e-01 3.358900000000000080e-02 -1.238700000000000044e-02 1.382359999999999978e-01 9.248099999999999377e-02 -4.127600000000000019e-02 2.293500000000000053e-02 1.725889999999999924e-01 -2.595330000000000137e-01 9.825499999999999512e-02 2.615400000000000016e-02 -3.150000000000000131e-04 -3.109640000000000182e-01 8.890599999999999892e-02 -2.114550000000000041e-01 -3.369500000000000273e-02 -3.963000000000000377e-03 -3.580999999999999982e-03 -8.349199999999999677e-02 -3.008999999999999956e-03 1.377220000000000111e-01 9.729200000000000348e-02 5.926700000000000024e-02 -9.157400000000000262e-02 1.038999999999999993e-02 2.335029999999999883e-01 -9.221000000000000030e-03 -5.696600000000000275e-02 -1.946229999999999905e-01 4.678399999999999920e-02 2.301299999999999873e-02 -5.782799999999999746e-02 -1.578239999999999921e-01 -1.014649999999999996e-01 -1.194130000000000053e-01 -2.068250000000000088e-01 -2.941300000000000164e-02 7.247000000000000663e-02 -1.692700000000000038e-01 -2.167159999999999920e-01 3.865259999999999807e-01 -2.075199999999999961e-02 -2.008899999999999922e-02
-6.769000000000000017e-02 1.164489999999999970e-01 -3.631820000000000048e-01 -2.538259999999999961e-01 -5.812400000000000205e-02 4.982700000000000323e-02 -3.176699999999999663e-02 -6.093699999999999811e-02 -4.417490000000000028e-01 4.499000000000000221e-02 -5.900999999999999995e-03 2.635699999999999849e-02 4.070100000000000107e-02 9.848800000000000610e-02 -4.548699999999999966e-02 5.367999999999999855e-02 -5.444500000000000034e-02 -1.248289999999999955e-01 7.387399999999999523e-02 1.923009999999999997e-01 1.674509999999999887e-01 -1.729899999999999841e-02 -5.020399999999999863e-02 3.540699999999999958e-01 -1.251520000000000132e-01 1.504669999999999896e-01 3.865999999999999992e-02 2.090309999999999946e-01 -4.855000000000000288e-02 3.165699999999999764e-02 1.196000000000000014e-03 3.312600000000000267e-02 -5.179500000000000076e-02 -1.448250000000000093e-01 9.999700000000000255e-02 -1.459380000000000122e-01 5.227400000000000102e-02 -5.132699999999999763e-02 -1.956700000000000106e-02 4.495500000000000190e-02 -2.185000000000000137e-02 -3.217500000000000221e-02 8.776499999999999579e-02 1.003870000000000040e-01 1.274440000000000017e-01 -1.368100000000000045e-02 -4.085199999999999942e-02 -1.450100000000000000e-02 -4.277899999999999758e-02 2.739400000000000168e-02 2.072430000000000105e-01 9.609700000000000186e-02 9.351199999999999790e-02 2.727500000000000063e-02 -5.441399999999999709e-02 1.100300000000000063e-02 1.792259999999999964e-01 -5.986099999999999755e-02 5.782099999999999740e-02 -8.333100000000000229e-02 -1.494050000000000100e-01 -9.547600000000000531e-02 3.216499999999999915e-02 4.197000000000000210e-03 -1.829300000000000023e-02 -1.601299999999999946e-02 4.663699999999999790e-02 -2.787299999999999847e-02 1.720100000000000101e-02 1.842799999999999994e-02 6.915000000000000313e-02 8.961199999999999721e-02 6.256499999999999562e-02 7.913100000000000689e-02 4.223899999999999877e-02 -3.778999999999999807e-03 1.678310000000000080e-01 -1.054189999999999988e-01 -2.414689999999999892e-01 1.668459999999999943e-01 -1.215859999999999996e-01 1.310870000000000091e-01 -1.329380000000000006e-01 -2.580299999999999955e-02 6.968399999999999594e-02 9.525999999999999746e-03 -1.759030000000000038e-01 -5.029800000000000243e-02 -2.659800000000000011e-02 1.403939999999999910e-01 -7.891999999999999710e-03 7.469299999999999551e-02 4.040900000000000047e-02 -2.877800000000000150e-02 -1.164670000000000011e-01 1.372240000000000126e-01 1.096250000000000002e-01 2.863930000000000087e-01 1.078400000000000018e-02 -6.815499999999999337e-02 -6.905999999999999812e-03 1.538740000000000108e-01 -1.825380000000000058e-01 2.032079999999999997e-01 -5.044699999999999879e-02 -1.030289999999999956e-01 8.146699999999999775e-02 -8.878199999999999981e-02 1.394600000000000006e-02 -1.702829999999999899e-01 3.287070000000000269e-01 -3.151349999999999985e-01 5.269399999999999779e-02 -9.589100000000000401e-02 -1.494209999999999983e-01 -3.571179999999999910e-01 1.416820000000000024e-01 3.206099999999999922e-02 3.563930000000000153e-01 2.001090000000000091e-01 4.280699999999999783e-02 -1.473900000000000036e-02 1.626479999999999870e-01 1.123450000000000004e-01 -4.919199999999999962e-02 2.586400000000000157e-02 2.050770000000000093e-01 -3.059790000000000010e-01 1.138860000000000011e-01 3.263200000000000128e-02 -2.324999999999999810e-03 -3.662469999999999892e-01 1.067179999999999934e-01 -2.496730000000000060e-01 -3.994500000000000134e-02 -7.396999999999999929e-03 -4.006000000000000012e-03 -9.737600000000000422e-02 -6.034000000000000301e-03 1.623040000000000038e-01 1.158789999999999959e-01 6.793599999999999639e-02 -1.086830000000000018e-01 1.350499999999999964e-02 2.742009999999999725e-01 -1.102500000000000008e-02 -6.553900000000000003e-02 -2.327029999999999932e-01 5.517199999999999882e-02 2.885899999999999924e-02 -7.074700000000000433e-02 -1.868779999999999886e-01 -1.201870000000000022e-01 -1.431219999999999992e-01 -2.448480000000000101e-01 -3.453799999999999926e-02 8.273400000000000198e-02 -2.012740000000000085e-01 -2.548630000000000062e-01 4.537410000000000054e-01 -2.315400000000000097e-02 -2.323800000000000171e-02