0.000000000000000000e+00 2.032270000000000021e+00 9.576990000000000336e+00 -1.760000000000000009e+00 5.080680000000000085e+00 9.576990000000000336e+00 -3.520000000000000018e+00 8.129089999999999705e+00 9.576990000000000336e+00 3.520000000000000018e+00 2.032270000000000021e+00 9.576990000000000336e+00 1.760000000000000009e+00 5.080680000000000085e+00 9.576990000000000336e+00 0.000000000000000000e+00 8.129089999999999705e+00 9.576990000000000336e+00 7.040000000000000036e+00 2.032270000000000021e+00 9.576990000000000336e+00 5.280000000000000249e+00 5.080680000000000085e+00 9.576990000000000336e+00 3.520000000000000018e+00 8.129089999999999705e+00 9.576990000000000336e+00 1.407999999999999918e+00 2.032270000000000021e+00 1.679677999999999827e+01 -3.519999999999999796e-01 5.080680000000000085e+00 1.679677999999999827e+01 -2.112000000000000099e+00 8.129089999999999705e+00 1.679677999999999827e+01 4.927999999999999936e+00 2.032270000000000021e+00 1.679677999999999827e+01 3.168000000000000149e+00 5.080680000000000085e+00 1.679677999999999827e+01 1.407999999999999918e+00 8.129089999999999705e+00 1.679677999999999827e+01 8.448000000000000398e+00 2.032270000000000021e+00 1.679677999999999827e+01 6.687999999999999723e+00 5.080680000000000085e+00 1.679677999999999827e+01 4.927999999999999936e+00 8.129089999999999705e+00 1.679677999999999827e+01 0.000000000000000000e+00 2.032270000000000021e+00 1.320322999999999958e+01 -1.760000000000000009e+00 5.080680000000000085e+00 1.320322999999999958e+01 -3.520000000000000018e+00 8.129089999999999705e+00 1.320322999999999958e+01 3.520000000000000018e+00 2.032270000000000021e+00 1.320322999999999958e+01 1.760000000000000009e+00 5.080680000000000085e+00 1.320322999999999958e+01 0.000000000000000000e+00 8.129089999999999705e+00 1.320322999999999958e+01 7.040000000000000036e+00 2.032270000000000021e+00 1.320322999999999958e+01 5.280000000000000249e+00 5.080680000000000085e+00 1.320322999999999958e+01 3.520000000000000018e+00 8.129089999999999705e+00 1.320322999999999958e+01 1.407999999999999918e+00 2.032270000000000021e+00 2.042302000000000106e+01 -3.519999999999999796e-01 5.080680000000000085e+00 2.042302000000000106e+01 -2.112000000000000099e+00 8.129089999999999705e+00 2.042302000000000106e+01 4.927999999999999936e+00 2.032270000000000021e+00 2.042302000000000106e+01 3.168000000000000149e+00 5.080680000000000085e+00 2.042302000000000106e+01 1.407999999999999918e+00 8.129089999999999705e+00 2.042302000000000106e+01 8.448000000000000398e+00 2.032270000000000021e+00 2.042302000000000106e+01 6.687999999999999723e+00 5.080680000000000085e+00 2.042302000000000106e+01 4.927999999999999936e+00 8.129089999999999705e+00 2.042302000000000106e+01 0.000000000000000000e+00 0.000000000000000000e+00 1.138990000000000080e+01 -1.760000000000000009e+00 3.048410000000000064e+00 1.138990000000000080e+01 -3.520000000000000018e+00 6.096820000000000128e+00 1.138990000000000080e+01 3.520000000000000018e+00 0.000000000000000000e+00 1.138990000000000080e+01 1.760000000000000009e+00 3.048410000000000064e+00 1.138990000000000080e+01 0.000000000000000000e+00 6.096820000000000128e+00 1.138990000000000080e+01 7.040000000000000036e+00 0.000000000000000000e+00 1.138990000000000080e+01 5.280000000000000249e+00 3.048410000000000064e+00 1.138990000000000080e+01 3.520000000000000018e+00 6.096820000000000128e+00 1.138990000000000080e+01 1.407999999999999918e+00 0.000000000000000000e+00 1.861011999999999844e+01 -3.519999999999999796e-01 3.048410000000000064e+00 1.861011999999999844e+01 -2.112000000000000099e+00 6.096820000000000128e+00 1.861011999999999844e+01 4.927999999999999936e+00 0.000000000000000000e+00 1.861011999999999844e+01 3.168000000000000149e+00 3.048410000000000064e+00 1.861011999999999844e+01 1.407999999999999918e+00 6.096820000000000128e+00 1.861011999999999844e+01 8.448000000000000398e+00 0.000000000000000000e+00 1.861011999999999844e+01 6.687999999999999723e+00 3.048410000000000064e+00 1.861011999999999844e+01 4.927999999999999936e+00 6.096820000000000128e+00 1.861011999999999844e+01
1.740000000000000010e-03 2.030520000000000103e+00 9.577669999999999462e+00 -1.760210000000000052e+00 5.082160000000000011e+00 9.577379999999999782e+00 -3.519699999999999829e+00 8.129329999999999501e+00 9.574490000000000833e+00 3.521259999999999835e+00 2.033220000000000027e+00 9.576959999999999695e+00 1.759489999999999998e+00 5.079620000000000246e+00 9.575609999999999289e+00 -8.599999999999999789e-04 8.131159999999999499e+00 9.575430000000000774e+00 7.040630000000000166e+00 2.035579999999999945e+00 9.576969999999999317e+00 5.280140000000000278e+00 5.082609999999999850e+00 9.577149999999999608e+00 3.520039999999999836e+00 8.129279999999999617e+00 9.576340000000000074e+00 1.409589999999999899e+00 2.031229999999999869e+00 1.679965999999999937e+01 -3.517399999999999971e-01 5.083829999999999849e+00 1.679883999999999844e+01 -2.110580000000000123e+00 8.129599999999999937e+00 1.679641000000000162e+01 4.928889999999999993e+00 2.031890000000000196e+00 1.679639999999999844e+01 3.166599999999999859e+00 5.080169999999999852e+00 1.679450999999999894e+01 1.408379999999999965e+00 8.130770000000000053e+00 1.679666999999999888e+01 8.448150000000000048e+00 2.031410000000000160e+00 1.679670000000000130e+01 6.688320000000000043e+00 5.077829999999999622e+00 1.679727000000000103e+01 4.928689999999999571e+00 8.127810000000000201e+00 1.679732999999999876e+01 1.920000000000000049e-03 2.029929999999999790e+00 1.320621000000000045e+01 -1.758490000000000109e+00 5.081859999999999822e+00 1.320012999999999970e+01 -3.521409999999999929e+00 8.126089999999999591e+00 1.320407999999999937e+01 3.519890000000000185e+00 2.033180000000000209e+00 1.320594000000000001e+01 1.756380000000000052e+00 5.077899999999999636e+00 1.320325000000000060e+01 7.600000000000000418e-04 8.128740000000000521e+00 1.320207000000000086e+01 7.041369999999999685e+00 2.028369999999999784e+00 1.320125999999999955e+01 5.280759999999999899e+00 5.079390000000000072e+00 1.320309999999999917e+01 3.520869999999999944e+00 8.131600000000000605e+00 1.320475000000000065e+01 1.411299999999999999e+00 2.029970000000000052e+00 2.042473000000000027e+01 -3.523899999999999810e-01 5.081500000000000128e+00 2.042560999999999893e+01 -2.114599999999999813e+00 8.130699999999999150e+00 2.042541999999999902e+01 4.927439999999999820e+00 2.036220000000000141e+00 2.042057000000000144e+01 3.168149999999999800e+00 5.079769999999999897e+00 2.042449999999999832e+01 1.407119999999999926e+00 8.131690000000000751e+00 2.042583000000000126e+01 8.448259999999999437e+00 2.028900000000000148e+00 2.041858999999999824e+01 6.687429999999999986e+00 5.082010000000000360e+00 2.042173999999999978e+01 4.927789999999999893e+00 8.128539999999999210e+00 2.042426999999999992e+01 5.280999999999999694e+00 9.142730000000000246e+00 1.138949999999999996e+01 -1.758999999999999897e+00 3.046930000000000138e+00 1.139080000000000048e+01 7.038039999999999630e+00 6.096219999999999750e+00 1.139160000000000039e+01 3.521549999999999958e+00 1.910000000000000022e-03 1.138780000000000037e+01 1.760750000000000037e+00 3.049220000000000041e+00 1.139181999999999917e+01 -1.580000000000000024e-03 6.096779999999999866e+00 1.138873000000000069e+01 7.039559999999999818e+00 1.949999999999999910e-03 1.138847999999999949e+01 5.280319999999999681e+00 3.050619999999999887e+00 1.139024000000000036e+01 3.518609999999999793e+00 6.096669999999999590e+00 1.138699000000000083e+01 -3.871370000000000200e+00 9.143259999999999721e+00 1.860839999999999961e+01 -3.551099999999999812e-01 3.048799999999999955e+00 1.861103999999999914e+01 -2.113399999999999945e+00 6.097920000000000229e+00 1.861114999999999853e+01 -3.529599999999999960e-01 9.144600000000000506e+00 1.861149999999999949e+01 3.168050000000000033e+00 3.048350000000000115e+00 1.860979000000000028e+01 1.409149999999999903e+00 6.099140000000000228e+00 1.860914999999999964e+01 8.446039999999999992e+00 2.000000000000000164e-05 1.860888999999999882e+01 6.685550000000000104e+00 3.048220000000000152e+00 1.861210000000000164e+01 4.926980000000000359e+00 6.093989999999999796e+00 1.860744000000000042e+01
3.469999999999999994e-03 2.028760000000000119e+00 9.578340000000000742e+00 -1.760420000000000096e+00 5.083619999999999806e+00 9.577769999999999229e+00 -3.519390000000000018e+00 8.129559999999999675e+00 9.571999999999999176e+00 3.522530000000000161e+00 2.034170000000000034e+00 9.576930000000000831e+00 1.758979999999999988e+00 5.078560000000000407e+00 9.574220000000000397e+00 -1.709999999999999932e-03 8.133219999999999672e+00 9.573859999999999815e+00 7.041249999999999787e+00 2.038899999999999935e+00 9.576950000000000074e+00 5.280280000000000307e+00 5.084529999999999994e+00 9.577289999999999637e+00 3.520080000000000098e+00 8.129459999999999908e+00 9.575680000000000192e+00 1.411200000000000010e+00 2.030199999999999783e+00 1.680253000000000085e+01 -3.514599999999999946e-01 5.086979999999999613e+00 1.680089999999999861e+01 -2.109140000000000015e+00 8.130100000000000549e+00 1.679602999999999824e+01 4.929800000000000182e+00 2.031509999999999927e+00 1.679601999999999862e+01 3.165220000000000145e+00 5.079649999999999999e+00 1.679223999999999961e+01 1.408779999999999921e+00 8.132450000000000401e+00 1.679654999999999987e+01 8.448320000000000718e+00 2.030559999999999921e+00 1.679662000000000077e+01 6.688670000000000115e+00 5.074970000000000425e+00 1.679775000000000063e+01 4.929400000000000226e+00 8.126530000000000697e+00 1.679786999999999964e+01 3.820000000000000045e-03 2.027579999999999938e+00 1.320917999999999992e+01 -1.757020000000000026e+00 5.083029999999999937e+00 1.319705000000000084e+01 -3.522839999999999971e+00 8.123089999999999478e+00 1.320491999999999955e+01 3.519760000000000222e+00 2.034089999999999954e+00 1.320862999999999943e+01 1.752739999999999965e+00 5.075120000000000076e+00 1.320326000000000022e+01 1.500000000000000031e-03 8.128389999999999560e+00 1.320090000000000074e+01 7.042699999999999960e+00 2.024480000000000057e+00 1.319928999999999952e+01 5.281500000000000306e+00 5.078100000000000058e+00 1.320297000000000054e+01 3.521720000000000184e+00 8.134090000000000487e+00 1.320626999999999995e+01 1.414579999999999949e+00 2.027680000000000149e+00 2.042642000000000024e+01 -3.527799999999999825e-01 5.082329999999999792e+00 2.042819000000000074e+01 -2.117210000000000036e+00 8.132300000000000750e+00 2.042781000000000091e+01 4.926870000000000083e+00 2.040160000000000196e+00 2.041813000000000144e+01 3.168289999999999829e+00 5.078859999999999708e+00 2.042596999999999952e+01 1.406250000000000000e+00 8.134280000000000399e+00 2.042862999999999829e+01 8.448510000000000630e+00 2.025529999999999831e+00 2.041416999999999859e+01 6.686860000000000248e+00 5.083330000000000126e+00 2.042047000000000168e+01 4.927579999999999849e+00 8.127990000000000492e+00 2.042550999999999917e+01 5.282000000000000028e+00 9.140249999999999986e+00 1.138911000000000051e+01 -1.758000000000000007e+00 3.045450000000000212e+00 1.139170999999999978e+01 7.036089999999999733e+00 6.095620000000000260e+00 1.139329000000000036e+01 3.523070000000000146e+00 3.799999999999999992e-03 1.138571999999999917e+01 1.761500000000000066e+00 3.050009999999999888e+00 1.139372999999999969e+01 -3.150000000000000022e-03 6.096739999999999604e+00 1.138756000000000057e+01 7.039109999999999978e+00 3.880000000000000202e-03 1.138705999999999996e+01 5.280630000000000379e+00 3.052810000000000024e+00 1.139058999999999955e+01 3.517209999999999948e+00 6.096519999999999939e+00 1.138411999999999935e+01 -3.870740000000000069e+00 9.141289999999999694e+00 1.860670000000000002e+01 -3.581900000000000084e-01 3.049189999999999845e+00 1.861195999999999984e+01 -2.114790000000000170e+00 6.099020000000000330e+00 1.861218999999999824e+01 -3.538999999999999924e-01 9.143980000000000885e+00 1.861287000000000091e+01 3.168099999999999916e+00 3.048299999999999788e+00 1.860945999999999856e+01 1.410309999999999953e+00 6.101449999999999818e+00 1.860820000000000007e+01 8.444089999999999208e+00 4.000000000000000327e-05 1.860766999999999882e+01 6.683130000000000237e+00 3.048029999999999795e+00 1.861404999999999887e+01 4.925959999999999894e+00 6.091169999999999973e+00 1.860478000000000165e+01
5.210000000000000221e-03 2.027010000000000201e+00 9.579019999999999868e+00 -1.760639999999999983e+00 5.085079999999999600e+00 9.578160000000000451e+00 -3.519080000000000208e+00 8.129789999999999850e+00 9.569530000000000314e+00 3.523789999999999978e+00 2.035130000000000106e+00 9.576900000000000190e+00 1.758469999999999978e+00 5.077499999999999680e+00 9.572839999999999350e+00 -2.550000000000000183e-03 8.135270000000000223e+00 9.572300000000000253e+00 7.041879999999999917e+00 2.042199999999999793e+00 9.576919999999999433e+00 5.280420000000000336e+00 5.086450000000000138e+00 9.577429999999999666e+00 3.520119999999999916e+00 8.129659999999999442e+00 9.575020000000000309e+00 1.412819999999999965e+00 2.029170000000000140e+00 1.680538999999999916e+01 -3.511500000000000177e-01 5.090110000000000134e+00 1.680295999999999879e+01 -2.107670000000000154e+00 8.130589999999999762e+00 1.679564999999999841e+01 4.930740000000000123e+00 2.031130000000000102e+00 1.679564999999999841e+01 3.163870000000000182e+00 5.079130000000000145e+00 1.678997000000000028e+01 1.409200000000000008e+00 8.134130000000000749e+00 1.679643000000000086e+01 8.448510000000000630e+00 2.029710000000000125e+00 1.679653000000000063e+01 6.689040000000000319e+00 5.072129999999999583e+00 1.679823000000000022e+01 4.930130000000000123e+00 8.125249999999999417e+00 1.679841000000000051e+01 5.689999999999999745e-03 2.025230000000000086e+00 1.321213000000000015e+01 -1.755579999999999918e+00 5.084190000000000431e+00 1.319397999999999982e+01 -3.524270000000000014e+00 8.120110000000000383e+00 1.320575000000000010e+01 3.519620000000000193e+00 2.034990000000000077e+00 1.321130999999999922e+01 1.749090000000000034e+00 5.072370000000000267e+00 1.320326000000000022e+01 2.210000000000000159e-03 8.128040000000000376e+00 1.319973000000000063e+01 7.044010000000000105e+00 2.020610000000000017e+00 1.319732999999999912e+01 5.282180000000000319e+00 5.076810000000000045e+00 1.320284999999999975e+01 3.522520000000000095e+00 8.136559999999999349e+00 1.320776000000000039e+01 1.417839999999999989e+00 2.025399999999999867e+00 2.042810000000000059e+01 -3.531599999999999739e-01 5.083160000000000345e+00 2.043075999999999937e+01 -2.119800000000000129e+00 8.133900000000000574e+00 2.043018999999999963e+01 4.926300000000000345e+00 2.044080000000000119e+00 2.041571000000000069e+01 3.168429999999999858e+00 5.077950000000000408e+00 2.042743000000000109e+01 1.405380000000000074e+00 8.136860000000000426e+00 2.043140999999999963e+01 8.448750000000000426e+00 2.022180000000000089e+00 2.040979000000000099e+01 6.686280000000000001e+00 5.084649999999999892e+00 2.041920000000000002e+01 4.927369999999999806e+00 8.127430000000000376e+00 2.042671999999999954e+01 5.282980000000000231e+00 9.137790000000000745e+00 1.138873000000000069e+01 -1.756999999999999895e+00 3.043979999999999908e+00 1.139259999999999984e+01 7.034159999999999968e+00 6.095040000000000013e+00 1.139494000000000007e+01 3.524550000000000072e+00 5.680000000000000153e-03 1.138368999999999964e+01 1.762229999999999963e+00 3.050780000000000047e+00 1.139561999999999919e+01 -4.700000000000000185e-03 6.096729999999999983e+00 1.138638000000000083e+01 7.038680000000000270e+00 5.790000000000000008e-03 1.138563000000000081e+01 5.280940000000000190e+00 3.054990000000000094e+00 1.139094000000000051e+01 3.515800000000000036e+00 6.096379999999999910e+00 1.138130999999999915e+01 -3.870099999999999874e+00 9.139340000000000686e+00 1.860503999999999891e+01 -3.612099999999999755e-01 3.049580000000000179e+00 1.861288000000000054e+01 -2.116159999999999819e+00 6.100120000000000431e+00 1.861321999999999832e+01 -3.548399999999999888e-01 9.143370000000000886e+00 1.861423999999999879e+01 3.168149999999999800e+00 3.048270000000000035e+00 1.860912000000000077e+01 1.411459999999999937e+00 6.103760000000000296e+00 1.860728999999999900e+01 8.442180000000000462e+00 3.000000000000000076e-05 1.860645999999999844e+01 6.680760000000000254e+00 3.047829999999999817e+00 1.861597000000000079e+01 4.924949999999999939e+00 6.088379999999999903e+00 1.860215000000000174e+01
6.949999999999999581e-03 2.025269999999999904e+00 9.579710000000000392e+00 -1.760869999999999935e+00 5.086520000000000152e+00 9.578549999999999898e+00 -3.518759999999999888e+00 8.130010000000000403e+00 9.567080000000000695e+00 3.525040000000000173e+00 2.036099999999999799e+00 9.576869999999999550e+00 1.757949999999999902e+00 5.076439999999999841e+00 9.571469999999999700e+00 -3.389999999999999784e-03 8.137320000000000775e+00 9.570729999999999293e+00 7.042500000000000426e+00 2.045500000000000096e+00 9.576890000000000569e+00 5.280560000000000365e+00 5.088370000000000282e+00 9.577569999999999695e+00 3.520150000000000112e+00 8.129849999999999355e+00 9.574360000000000426e+00 1.414439999999999920e+00 2.028150000000000119e+00 1.680824000000000140e+01 -3.508399999999999852e-01 5.093219999999999636e+00 1.680500999999999934e+01 -2.106189999999999785e+00 8.131069999999999354e+00 1.679526999999999859e+01 4.931689999999999685e+00 2.030740000000000212e+00 1.679528000000000176e+01 3.162539999999999907e+00 5.078610000000000291e+00 1.678770000000000095e+01 1.409629999999999939e+00 8.135809999999999320e+00 1.679629999999999868e+01 8.448700000000000543e+00 2.028880000000000017e+00 1.679645000000000010e+01 6.689449999999999896e+00 5.069289999999999630e+00 1.679869000000000057e+01 4.930869999999999642e+00 8.123969999999999914e+00 1.679892999999999859e+01 7.519999999999999775e-03 2.022889999999999855e+00 1.321505999999999936e+01 -1.754170000000000007e+00 5.085329999999999906e+00 1.319095000000000084e+01 -3.525710000000000122e+00 8.117150000000000531e+00 1.320656999999999925e+01 3.519460000000000033e+00 2.035890000000000200e+00 1.321396999999999977e+01 1.745440000000000103e+00 5.069650000000000212e+00 1.320326000000000022e+01 2.890000000000000208e-03 8.127700000000000813e+00 1.319854999999999912e+01 7.045279999999999987e+00 2.016770000000000174e+00 1.319539999999999935e+01 5.282820000000000071e+00 5.075549999999999784e+00 1.320274000000000036e+01 3.523289999999999811e+00 8.139010000000000744e+00 1.320922000000000018e+01 1.421079999999999899e+00 2.023120000000000029e+00 2.042973999999999890e+01 -3.535400000000000209e-01 5.083990000000000009e+00 2.043328999999999951e+01 -2.122380000000000155e+00 8.135490000000000776e+00 2.043256999999999834e+01 4.925720000000000098e+00 2.047969999999999846e+00 2.041332999999999842e+01 3.168559999999999821e+00 5.077060000000000350e+00 2.042886999999999986e+01 1.404500000000000082e+00 8.139419999999999433e+00 2.043418000000000134e+01 8.448980000000000601e+00 2.018860000000000099e+00 2.040544999999999831e+01 6.685699999999999754e+00 5.085969999999999658e+00 2.041796000000000078e+01 4.927139999999999631e+00 8.126870000000000260e+00 2.042789000000000144e+01 5.283960000000000434e+00 9.135360000000000369e+00 1.138836000000000048e+01 -1.755989999999999940e+00 3.042520000000000113e+00 1.139347000000000065e+01 7.032239999999999824e+00 6.094479999999999897e+00 1.139653000000000027e+01 3.525970000000000049e+00 7.539999999999999827e-03 1.138170999999999999e+01 1.762939999999999952e+00 3.051509999999999945e+00 1.139747000000000021e+01 -6.210000000000000242e-03 6.096729999999999983e+00 1.138518000000000008e+01 7.038249999999999673e+00 7.649999999999999682e-03 1.138419999999999987e+01 5.281240000000000379e+00 3.057129999999999903e+00 1.139128999999999969e+01 3.514380000000000059e+00 6.096239999999999881e+00 1.137859000000000087e+01 -3.869460000000000122e+00 9.137399999999999523e+00 1.860343999999999909e+01 -3.641400000000000192e-01 3.049970000000000070e+00 1.861379000000000161e+01 -2.117500000000000160e+00 6.101230000000000153e+00 1.861424999999999841e+01 -3.557699999999999751e-01 9.142780000000000129e+00 1.861561000000000021e+01 3.168200000000000127e+00 3.048259999999999970e+00 1.860877999999999943e+01 1.412619999999999987e+00 6.106040000000000134e+00 1.860644999999999882e+01 3.160309999999999953e+00 9.145220000000000127e+00 1.860527000000000086e+01 6.678449999999999775e+00 3.047629999999999839e+00 1.861781999999999826e+01 4.923930000000000362e+00 6.085609999999999964e+00 1.859956999999999994e+01
8.680000000000000215e-03 2.023540000000000116e+00 9.580410000000000537e+00 -1.761120000000000019e+00 5.087939999999999685e+00 9.578939999999999344e+00 -3.518429999999999946e+00 8.130219999999999558e+00 9.564650000000000318e+00 3.526289999999999925e+00 2.037100000000000133e+00 9.576840000000000686e+00 1.757409999999999917e+00 5.075380000000000003e+00 9.570100000000000051e+00 -4.210000000000000200e-03 8.139359999999999928e+00 9.569160000000000110e+00 7.043129999999999669e+00 2.048799999999999955e+00 9.576859999999999928e+00 5.280689999999999884e+00 5.090270000000000294e+00 9.577680000000000859e+00 3.520169999999999799e+00 8.130060000000000286e+00 9.573700000000000543e+00 1.416050000000000031e+00 2.027140000000000164e+00 1.681106000000000122e+01 -3.504999999999999782e-01 5.096309999999999896e+00 1.680705000000000027e+01 -2.104680000000000106e+00 8.131539999999999324e+00 1.679488999999999876e+01 4.932660000000000267e+00 2.030339999999999812e+00 1.679492000000000118e+01 3.161239999999999828e+00 5.078079999999999927e+00 1.678544000000000125e+01 1.410060000000000091e+00 8.137470000000000425e+00 1.679615000000000080e+01 8.448909999999999698e+00 2.028059999999999974e+00 1.679635999999999996e+01 6.689879999999999605e+00 5.066469999999999807e+00 1.679915000000000092e+01 4.931630000000000180e+00 8.122690000000000410e+00 1.679944000000000059e+01 9.320000000000000159e-03 2.020540000000000003e+00 1.321795999999999971e+01 -1.752820000000000045e+00 5.086450000000000138e+00 1.318795000000000073e+01 -3.527140000000000164e+00 8.114229999999999166e+00 1.320736999999999917e+01 3.519280000000000186e+00 2.036770000000000191e+00 1.321659999999999968e+01 1.741789999999999949e+00 5.066980000000000040e+00 1.320326000000000022e+01 3.540000000000000178e-03 8.127359999999999474e+00 1.319735999999999976e+01 7.046509999999999607e+00 2.012970000000000148e+00 1.319349000000000061e+01 5.283400000000000318e+00 5.074300000000000033e+00 1.320264000000000060e+01 3.524010000000000087e+00 8.141420000000000101e+00 1.321063999999999972e+01 1.424269999999999925e+00 2.020859999999999879e+00 2.043134999999999835e+01 -3.539100000000000024e-01 5.084819999999999673e+00 2.043579000000000079e+01 -2.124950000000000117e+00 8.137069999999999581e+00 2.043493000000000137e+01 4.925139999999999851e+00 2.051829999999999821e+00 2.041100000000000136e+01 3.168689999999999785e+00 5.076190000000000424e+00 2.043027000000000015e+01 1.403639999999999999e+00 8.141970000000000596e+00 2.043692000000000064e+01 8.449189999999999756e+00 2.015550000000000175e+00 2.040117000000000047e+01 6.685100000000000264e+00 5.087270000000000181e+00 2.041673000000000116e+01 4.926910000000000345e+00 8.126279999999999504e+00 2.042902000000000129e+01 5.284930000000000128e+00 9.132970000000000255e+00 1.138800999999999952e+01 -1.754950000000000010e+00 3.041090000000000071e+00 1.139433000000000007e+01 7.030369999999999564e+00 6.093950000000000422e+00 1.139804999999999957e+01 3.527320000000000011e+00 9.350000000000000672e-03 1.137981000000000087e+01 1.763640000000000096e+00 3.052179999999999893e+00 1.139927999999999919e+01 -7.669999999999999735e-03 6.096770000000000245e+00 1.138395000000000046e+01 7.037840000000000096e+00 9.450000000000000067e-03 1.138275999999999932e+01 5.281530000000000058e+00 3.059219999999999828e+00 1.139165000000000028e+01 3.512939999999999952e+00 6.096119999999999983e+00 1.137598000000000020e+01 -3.868829999999999991e+00 9.135469999999999757e+00 1.860190000000000055e+01 -3.669499999999999984e-01 3.050349999999999895e+00 1.861470999999999876e+01 -2.118809999999999860e+00 6.102360000000000007e+00 1.861529000000000167e+01 -3.566799999999999971e-01 9.142220000000000013e+00 1.861698000000000164e+01 3.168250000000000011e+00 3.048270000000000035e+00 1.860844000000000165e+01 1.413769999999999971e+00 6.108299999999999841e+00 1.860567999999999955e+01 3.158490000000000020e+00 9.145129999999999981e+00 1.860409999999999897e+01 6.676219999999999821e+00 3.047429999999999861e+00 1.861958999999999875e+01 4.922920000000000407e+00 6.082889999999999908e+00 1.859705999999999904e+01
1.041000000000000085e-02 2.021819999999999951e+00 9.581129999999999924e+00 -1.761379999999999946e+00 5.089330000000000354e+00 9.579330000000000567e+00 -3.518100000000000005e+00 8.130420000000000869e+00 9.562269999999999825e+00 3.527530000000000054e+00 2.038120000000000154e+00 9.576819999999999666e+00 1.756869999999999932e+00 5.074329999999999785e+00 9.568730000000000402e+00 -5.009999999999999697e-03 8.141379999999999839e+00 9.567589999999999151e+00 7.043750000000000178e+00 2.052090000000000192e+00 9.576810000000000045e+00 5.280820000000000292e+00 5.092159999999999798e+00 9.577780000000000626e+00 3.520189999999999930e+00 8.130269999999999442e+00 9.573029999999999262e+00 1.417650000000000077e+00 2.026139999999999830e+00 1.681387000000000143e+01 -3.501600000000000268e-01 5.099380000000000024e+00 1.680909000000000120e+01 -2.103159999999999918e+00 8.131999999999999673e+00 1.679448999999999970e+01 4.933629999999999960e+00 2.029939999999999856e+00 1.679457000000000022e+01 3.159969999999999946e+00 5.077539999999999942e+00 1.678318000000000154e+01 1.410509999999999931e+00 8.139139999999999375e+00 1.679599999999999937e+01 8.449130000000000251e+00 2.027270000000000127e+00 1.679626999999999981e+01 6.690339999999999954e+00 5.063659999999999606e+00 1.679958999999999847e+01 4.932409999999999961e+00 8.121399999999999508e+00 1.679993999999999943e+01 1.107999999999999957e-02 2.018180000000000085e+00 1.322081999999999979e+01 -1.751500000000000057e+00 5.087539999999999729e+00 1.318500000000000050e+01 -3.528550000000000075e+00 8.111330000000000595e+00 1.320814999999999984e+01 3.519099999999999895e+00 2.037650000000000183e+00 1.321918999999999933e+01 1.738140000000000018e+00 5.064359999999999751e+00 1.320323999999999920e+01 4.150000000000000043e-03 8.127039999999999154e+00 1.319616000000000078e+01 7.047710000000000363e+00 2.009230000000000071e+00 1.319161000000000072e+01 5.283900000000000041e+00 5.073070000000000412e+00 1.320255000000000045e+01 3.524680000000000035e+00 8.143779999999999575e+00 1.321200999999999937e+01 1.427410000000000068e+00 2.018619999999999859e+00 2.043290999999999968e+01 -3.542799999999999838e-01 5.085659999999999847e+00 2.043824000000000041e+01 -2.127489999999999881e+00 8.138629999999999143e+00 2.043728000000000122e+01 4.924540000000000362e+00 2.055639999999999912e+00 2.040871999999999886e+01 3.168810000000000127e+00 5.075330000000000119e+00 2.043164000000000158e+01 1.402770000000000072e+00 8.144500000000000739e+00 2.043964000000000070e+01 8.449379999999999669e+00 2.012280000000000069e+00 2.039696999999999960e+01 6.684499999999999886e+00 5.088569999999999816e+00 2.041553000000000040e+01 4.926669999999999661e+00 8.125679999999999126e+00 2.043008000000000024e+01 5.285899999999999821e+00 9.130630000000000024e+00 1.138767999999999958e+01 -1.753889999999999949e+00 3.039670000000000094e+00 1.139516000000000062e+01 7.028529999999999944e+00 6.093440000000000190e+00 1.139948000000000050e+01 3.528589999999999893e+00 1.112999999999999927e-02 1.137800000000000011e+01 1.764310000000000045e+00 3.052789999999999893e+00 1.140104000000000006e+01 -9.069999999999999937e-03 6.096849999999999881e+00 1.138269999999999982e+01 7.037440000000000140e+00 1.116999999999999937e-02 1.138129999999999953e+01 5.281819999999999737e+00 3.061259999999999870e+00 1.139199999999999946e+01 3.511499999999999844e+00 6.096000000000000085e+00 1.137350999999999956e+01 -3.868199999999999861e+00 9.133570000000000633e+00 1.860044999999999860e+01 -3.696200000000000041e-01 3.050739999999999785e+00 1.861562999999999946e+01 -2.120089999999999808e+00 6.103500000000000369e+00 1.861633000000000138e+01 -3.575800000000000090e-01 9.141690000000000538e+00 1.861833999999999989e+01 3.168299999999999894e+00 3.048329999999999984e+00 1.860809000000000069e+01 1.414909999999999890e+00 6.110529999999999795e+00 1.860501999999999967e+01 3.156730000000000036e+00 9.144989999999999952e+00 1.860295999999999950e+01 6.674089999999999634e+00 3.047229999999999883e+00 1.862126999999999910e+01 4.921899999999999942e+00 6.080219999999999736e+00 1.859462999999999866e+01