1.559000000000000056e-03 3.016000000000000018e-03 -6.409999999999999682e-04 1.556000000000000091e-03 3.014999999999999885e-03 -6.390000000000000280e-04 1.561000000000000104e-03 3.016000000000000018e-03 -6.419999999999999925e-04 1.561000000000000104e-03 3.014000000000000186e-03 -6.380000000000000037e-04 1.559999999999999972e-03 3.014999999999999885e-03 -6.449999999999999570e-04 1.557999999999999923e-03 3.021999999999999947e-03 -6.390000000000000280e-04 1.557999999999999923e-03 3.016000000000000018e-03 -6.340000000000000149e-04 1.562999999999999936e-03 3.016000000000000018e-03 -6.400000000000000524e-04 1.557999999999999923e-03 3.020000000000000115e-03 -6.430000000000000169e-04 8.425399999999999556e-02 -2.706000000000000072e-03 -5.479999999999999845e-04 8.425499999999999656e-02 -2.707000000000000205e-03 -5.550000000000000462e-04 8.425000000000000544e-02 -2.701999999999999975e-03 -5.540000000000000219e-04 8.425100000000000644e-02 -2.703000000000000107e-03 -5.529999999999999976e-04 8.425199999999999356e-02 -2.704999999999999939e-03 -5.540000000000000219e-04 8.425599999999999756e-02 -2.703999999999999806e-03 -5.559999999999999621e-04 8.425699999999999856e-02 -2.706000000000000072e-03 -5.540000000000000219e-04 8.425299999999999456e-02 -2.703999999999999806e-03 -5.540000000000000219e-04 8.425499999999999656e-02 -2.700999999999999842e-03 -5.519999999999999733e-04 -8.424399999999999944e-02 -2.668999999999999932e-03 5.630000000000000239e-04 -8.424800000000000344e-02 -2.671000000000000197e-03 5.630000000000000239e-04 -8.424199999999999744e-02 -2.668999999999999932e-03 5.659999999999999884e-04 -8.423999999999999544e-02 -2.670000000000000064e-03 5.630000000000000239e-04 -8.424199999999999744e-02 -2.671000000000000197e-03 5.689999999999999529e-04 -8.424299999999999844e-02 -2.661999999999999870e-03 5.619999999999999996e-04 -8.424399999999999944e-02 -2.667999999999999799e-03 5.569999999999999864e-04 -8.423799999999999344e-02 -2.671000000000000197e-03 5.619999999999999996e-04 -8.424199999999999744e-02 -2.664999999999999834e-03 5.649999999999999641e-04 -1.549000000000000030e-03 2.981000000000000143e-03 6.520000000000000188e-04 -1.546999999999999981e-03 2.980000000000000010e-03 6.589999999999999721e-04 -1.549999999999999946e-03 2.984000000000000107e-03 6.570000000000000319e-04 -1.549999999999999946e-03 2.981999999999999842e-03 6.560000000000000076e-04 -1.549999999999999946e-03 2.980000000000000010e-03 6.570000000000000319e-04 -1.546000000000000065e-03 2.981999999999999842e-03 6.589999999999999721e-04 -1.546999999999999981e-03 2.978999999999999877e-03 6.560000000000000076e-04 -1.549999999999999946e-03 2.981999999999999842e-03 6.570000000000000319e-04 -1.549000000000000030e-03 2.984999999999999806e-03 6.549999999999999833e-04 -1.707099999999999937e-02 -2.930000000000000204e-04 1.469999999999999953e-04 -1.707699999999999843e-02 -2.970000000000000092e-04 1.489999999999999897e-04 -1.706900000000000084e-02 -3.029999999999999924e-04 1.479999999999999925e-04 -1.706500000000000031e-02 -2.939999999999999905e-04 1.469999999999999953e-04 -1.706900000000000084e-02 -3.020000000000000223e-04 1.469999999999999953e-04 -1.707600000000000090e-02 -2.930000000000000204e-04 1.469999999999999953e-04 -1.707300000000000137e-02 -2.869999999999999830e-04 1.479999999999999925e-04 -1.706299999999999831e-02 -3.009999999999999980e-04 1.489999999999999897e-04 -1.706399999999999931e-02 -2.970000000000000092e-04 1.489999999999999897e-04 1.708399999999999849e-02 -2.809999999999999998e-04 -1.299999999999999886e-04 1.709099999999999855e-02 -2.950000000000000148e-04 -1.279999999999999942e-04 1.708300000000000096e-02 -2.869999999999999830e-04 -1.299999999999999886e-04 1.708300000000000096e-02 -2.849999999999999886e-04 -1.269999999999999970e-04 1.708099999999999896e-02 -2.919999999999999961e-04 -1.299999999999999886e-04 1.709000000000000102e-02 -2.919999999999999961e-04 -1.289999999999999914e-04 1.709199999999999955e-02 -2.849999999999999886e-04 -1.269999999999999970e-04 1.708499999999999949e-02 -2.889999999999999774e-04 -1.289999999999999914e-04 1.708499999999999949e-02 -2.860000000000000129e-04 -1.289999999999999914e-04
-5.559999999999999621e-04 1.155899999999999983e-02 9.534000000000000807e-03 -1.160100000000000020e-02 -1.743799999999999864e-02 1.165000000000000020e-03 7.764000000000000068e-03 -6.938999999999999856e-03 2.667599999999999832e-02 -4.483000000000000006e-03 1.874899999999999831e-02 2.243999999999999901e-03 -6.356999999999999804e-03 4.438000000000000105e-03 5.143000000000000002e-03 1.318599999999999980e-02 -8.349999999999999784e-03 -2.829999999999999942e-04 -3.899999999999999929e-04 -4.919999999999999894e-03 -5.945999999999999897e-03 -1.918999999999999916e-03 -6.872999999999999769e-03 -1.209299999999999958e-02 -3.789999999999999966e-03 7.777000000000000059e-03 -3.069999999999999812e-03 5.573999999999999788e-02 9.204000000000000375e-03 -1.809200000000000044e-02 7.421300000000000119e-02 -2.238000000000000059e-02 -6.437000000000000013e-03 7.798299999999999677e-02 -1.408300000000000003e-02 -4.146999999999999645e-03 7.503899999999999459e-02 -7.592999999999999923e-03 6.944999999999999785e-03 8.524900000000000533e-02 -6.067000000000000344e-03 4.748999999999999749e-03 6.994000000000000217e-02 -6.864999999999999575e-03 -8.521000000000000796e-03 6.975800000000000056e-02 1.305100000000000010e-02 -1.895999999999999899e-03 8.762499999999999456e-02 1.000200000000000047e-02 -1.025099999999999970e-02 7.423499999999999543e-02 -2.674000000000000161e-03 -1.186300000000000028e-02 -9.329800000000000593e-02 -2.014000000000000165e-03 -2.839500000000000010e-02 -9.994200000000000306e-02 -2.222199999999999870e-02 3.506399999999999795e-02 -5.449899999999999883e-02 2.541799999999999962e-02 -1.587200000000000069e-02 -7.244899999999999951e-02 -1.088300000000000031e-02 -2.627000000000000168e-02 -5.746899999999999925e-02 3.736899999999999944e-02 -7.263999999999999624e-03 -8.982800000000000507e-02 4.516000000000000049e-03 -6.317999999999999831e-03 -9.480700000000000238e-02 3.443000000000000227e-02 2.265599999999999906e-02 -1.138060000000000044e-01 1.435600000000000070e-02 9.544999999999999665e-03 -1.013850000000000029e-01 -3.552400000000000002e-02 -3.515999999999999681e-02 -3.851700000000000262e-02 1.636599999999999860e-02 -3.338499999999999801e-02 4.264000000000000429e-03 6.109999999999999980e-03 -3.228799999999999726e-02 1.327500000000000034e-02 -9.461000000000000659e-03 -1.235100000000000087e-02 -7.929000000000000284e-03 -3.133500000000000174e-02 4.072400000000000325e-02 -7.751000000000000077e-03 1.480000000000000066e-02 -2.494499999999999842e-02 2.116999999999999958e-03 -1.482400000000000037e-02 -2.132600000000000121e-02 -1.603699999999999917e-02 2.645000000000000129e-02 5.419100000000000306e-02 -8.279999999999999166e-03 -4.351999999999999966e-03 1.870199999999999987e-02 -8.703999999999999931e-03 -9.173000000000000598e-03 -4.330200000000000021e-02 -1.778100000000000167e-02 2.729300000000000129e-02 1.046599999999999961e-02 -1.453000000000000081e-03 1.160500000000000073e-02 -1.319700000000000040e-02 1.030400000000000066e-02 1.695400000000000032e-02 -4.684800000000000075e-02 -5.990600000000000092e-02 -2.389300000000000104e-02 5.020499999999999963e-02 -2.472399999999999945e-02 -3.428500000000000297e-02 -2.873200000000000059e-02 2.003900000000000126e-02 1.989799999999999902e-02 -1.409700000000000016e-02 -1.977000000000000025e-03 -3.801000000000000212e-02 -5.318999999999999943e-03 -1.680600000000000149e-02 -2.961000000000000090e-02 1.985999999999999918e-03 -1.941500000000000170e-02 6.186999999999999791e-03 7.560400000000000453e-02 1.075500000000000067e-02 1.187599999999999940e-02 4.651799999999999685e-02 8.735999999999999321e-02 -1.577999999999999976e-03 2.739999999999999923e-04 3.243800000000000155e-02 6.385000000000000051e-03 3.910000000000000172e-04 2.107499999999999998e-02 1.666600000000000026e-02 -3.745000000000000065e-03 1.142300000000000086e-02 1.885999999999999829e-02 -2.831999999999999882e-03 8.564000000000000432e-03 -1.637999999999999873e-02 5.296499999999999819e-02 4.666499999999999815e-02 -2.730799999999999894e-02 1.591700000000000059e-02 6.516500000000000070e-02 -2.586999999999999890e-03 -5.123899999999999982e-02 1.241399999999999969e-02 2.765700000000000103e-02 4.411099999999999743e-02
-2.687999999999999851e-03 1.996900000000000064e-02 1.960800000000000043e-02 -2.472799999999999998e-02 -3.770699999999999746e-02 2.639999999999999986e-03 1.380499999999999956e-02 -1.655799999999999980e-02 5.353000000000000119e-02 -1.049399999999999986e-02 3.433100000000000041e-02 5.049999999999999802e-03 -1.415699999999999945e-02 5.775999999999999884e-03 1.092100000000000015e-02 2.469199999999999867e-02 -1.959800000000000084e-02 -2.199999999999999943e-05 -2.357999999999999853e-03 -1.286400000000000043e-02 -1.113800000000000033e-02 -5.485000000000000292e-03 -1.676499999999999865e-02 -2.347600000000000034e-02 -9.051999999999999283e-03 1.246700000000000065e-02 -5.436999999999999993e-03 2.720500000000000002e-02 2.099499999999999977e-02 -3.586500000000000105e-02 6.407000000000000195e-02 -4.185200000000000031e-02 -1.233000000000000068e-02 7.163600000000000523e-02 -2.538999999999999937e-02 -7.718000000000000034e-03 6.567699999999999927e-02 -1.240699999999999963e-02 1.431200000000000007e-02 8.603399999999999936e-02 -9.320000000000000159e-03 1.005799999999999923e-02 5.542899999999999910e-02 -1.118899999999999929e-02 -1.656799999999999939e-02 5.557700000000000140e-02 2.863800000000000026e-02 -3.501999999999999905e-03 9.088699999999999557e-02 2.279799999999999882e-02 -1.989700000000000149e-02 6.408999999999999420e-02 -2.667000000000000100e-03 -2.315700000000000050e-02 -1.020500000000000018e-01 -1.317999999999999944e-03 -5.701300000000000118e-02 -1.155999999999999944e-01 -4.174400000000000333e-02 6.962200000000000333e-02 -2.545899999999999899e-02 5.314499999999999780e-02 -3.138200000000000017e-02 -6.070099999999999801e-02 -1.893500000000000044e-02 -5.273300000000000209e-02 -3.122199999999999975e-02 7.716599999999999848e-02 -1.440699999999999967e-02 -9.517000000000000459e-02 1.163499999999999951e-02 -1.307700000000000008e-02 -1.052219999999999961e-01 7.174999999999999434e-02 4.507699999999999901e-02 -1.428250000000000075e-01 3.119600000000000151e-02 1.900999999999999912e-02 -1.181439999999999990e-01 -6.761899999999999855e-02 -7.002200000000000091e-02 -7.467200000000000226e-02 2.951300000000000104e-02 -6.644999999999999518e-02 9.823999999999999400e-03 9.096999999999999184e-03 -6.464599999999999513e-02 2.808300000000000032e-02 -2.182500000000000065e-02 -2.512700000000000003e-02 -1.458600000000000001e-02 -6.581800000000000150e-02 8.133300000000000252e-02 -1.382199999999999922e-02 2.646799999999999847e-02 -5.012899999999999995e-02 5.777000000000000017e-03 -3.234399999999999775e-02 -4.298400000000000137e-02 -3.058900000000000161e-02 5.000099999999999684e-02 1.081420000000000020e-01 -1.500100000000000044e-02 -1.163199999999999998e-02 3.673099999999999976e-02 -1.574700000000000058e-02 -2.102599999999999955e-02 -8.619699999999999585e-02 -1.862099999999999866e-02 5.447899999999999965e-02 2.057300000000000101e-02 1.386700000000000085e-02 2.330799999999999886e-02 -2.639400000000000079e-02 3.737200000000000244e-02 3.381300000000000278e-02 -9.331200000000000605e-02 -1.018440000000000040e-01 -4.697599999999999693e-02 9.916899999999999327e-02 -3.231699999999999851e-02 -6.811399999999999400e-02 -5.753300000000000081e-02 5.703600000000000336e-02 4.002000000000000002e-02 -2.831399999999999889e-02 1.273900000000000032e-02 -7.564899999999999403e-02 -1.135700000000000078e-02 -1.650199999999999931e-02 -5.883100000000000135e-02 3.540000000000000178e-03 -2.171000000000000013e-02 1.243900000000000040e-02 1.493120000000000003e-01 4.676999999999999734e-03 2.383700000000000055e-02 9.258900000000000463e-02 1.566309999999999925e-01 -2.441000000000000027e-03 -7.600000000000000418e-05 4.771299999999999847e-02 1.297399999999999942e-02 6.530000000000000431e-04 2.507799999999999960e-02 3.344099999999999850e-02 -7.300000000000000065e-03 5.801999999999999866e-03 3.794700000000000156e-02 -5.584999999999999687e-03 5.000000000000000104e-04 -3.220300000000000246e-02 1.049550000000000066e-01 7.602399999999999436e-02 -5.441599999999999909e-02 3.130200000000000343e-02 1.133129999999999971e-01 -4.573999999999999941e-03 -1.022559999999999997e-01 7.939999999999999142e-03 5.497900000000000009e-02 8.749899999999999345e-02
-4.905999999999999771e-03 2.825599999999999987e-02 2.938100000000000087e-02 -3.768300000000000122e-02 -5.773600000000000260e-02 3.723999999999999880e-03 1.964799999999999880e-02 -2.579599999999999949e-02 7.984600000000000031e-02 -1.645599999999999841e-02 4.955999999999999989e-02 7.748999999999999812e-03 -2.171100000000000113e-02 7.089999999999999948e-03 1.671600000000000169e-02 3.598400000000000210e-02 -3.066999999999999935e-02 1.749999999999999982e-04 -4.290999999999999676e-03 -2.091099999999999903e-02 -1.617599999999999941e-02 -9.194000000000000783e-03 -2.662899999999999989e-02 -3.464699999999999724e-02 -1.416700000000000077e-02 1.698799999999999963e-02 -7.709999999999999840e-03 -1.221999999999999996e-03 3.255299999999999860e-02 -5.387000000000000122e-02 5.392199999999999771e-02 -6.113199999999999884e-02 -1.823299999999999921e-02 6.514699999999999658e-02 -3.649600000000000066e-02 -1.116100000000000078e-02 5.621700000000000308e-02 -1.706399999999999931e-02 2.154999999999999971e-02 8.665200000000000680e-02 -1.235999999999999946e-02 1.547699999999999944e-02 4.077499999999999875e-02 -1.572899999999999993e-02 -2.453599999999999878e-02 4.188800000000000162e-02 4.395799999999999708e-02 -5.296000000000000360e-03 9.397999999999999410e-02 3.574299999999999700e-02 -2.942499999999999977e-02 5.390500000000000153e-02 -2.674000000000000161e-03 -3.435499999999999665e-02 -1.105489999999999945e-01 -4.690000000000000158e-04 -8.517700000000000271e-02 -1.311579999999999968e-01 -6.115700000000000303e-02 1.040429999999999966e-01 2.782000000000000185e-03 8.038199999999999512e-02 -4.590500000000000136e-02 -4.906200000000000144e-02 -2.683100000000000068e-02 -7.873299999999999743e-02 -5.538999999999999653e-03 1.165569999999999939e-01 -2.081399999999999917e-02 -1.002689999999999970e-01 1.866400000000000003e-02 -1.964899999999999980e-02 -1.153829999999999995e-01 1.091929999999999984e-01 6.770400000000000029e-02 -1.710980000000000001e-01 4.784599999999999964e-02 2.882399999999999893e-02 -1.344690000000000052e-01 -9.889900000000000080e-02 -1.038339999999999957e-01 -1.099419999999999981e-01 4.245999999999999774e-02 -9.837600000000000511e-02 1.511900000000000049e-02 1.186399999999999955e-02 -9.623700000000000310e-02 4.292900000000000188e-02 -3.405400000000000094e-02 -3.765600000000000197e-02 -2.135000000000000092e-02 -1.003580000000000028e-01 1.222519999999999996e-01 -1.974499999999999866e-02 3.796000000000000069e-02 -7.470400000000000651e-02 9.416000000000000758e-03 -4.953400000000000164e-02 -6.426800000000000568e-02 -4.509099999999999914e-02 7.368299999999999850e-02 1.623140000000000138e-01 -2.165200000000000111e-02 -1.897400000000000128e-02 5.464900000000000313e-02 -2.262300000000000075e-02 -3.251300000000000023e-02 -1.277649999999999897e-01 -1.966800000000000145e-02 8.109299999999999842e-02 3.037199999999999969e-02 2.870299999999999935e-02 3.482400000000000079e-02 -3.932299999999999685e-02 6.400200000000000333e-02 5.012799999999999895e-02 -1.388709999999999944e-01 -1.425690000000000013e-01 -6.949199999999999822e-02 1.467019999999999991e-01 -3.982499999999999929e-02 -1.014980000000000049e-01 -8.609700000000000686e-02 9.362700000000000189e-02 5.988000000000000267e-02 -4.230500000000000232e-02 2.696499999999999939e-02 -1.129300000000000026e-01 -1.787100000000000147e-02 -1.612299999999999844e-02 -8.780000000000000304e-02 4.773000000000000333e-03 -2.381799999999999889e-02 1.840699999999999975e-02 2.207050000000000123e-01 -1.132999999999999893e-03 3.560499999999999776e-02 1.376799999999999968e-01 2.244539999999999869e-01 -2.932000000000000144e-03 -1.183000000000000024e-03 6.285499999999999421e-02 1.934800000000000061e-02 6.130000000000000466e-04 2.911599999999999952e-02 4.999200000000000171e-02 -1.081700000000000023e-02 3.200000000000000262e-04 5.678199999999999914e-02 -8.347000000000000253e-03 -7.127999999999999788e-03 -4.769799999999999734e-02 1.553839999999999943e-01 1.050279999999999964e-01 -8.133500000000000452e-02 4.592899999999999761e-02 1.612590000000000134e-01 -6.254000000000000010e-03 -1.527320000000000066e-01 3.782999999999999904e-03 8.156199999999999561e-02 1.297079999999999900e-01
-7.224999999999999652e-03 3.637800000000000061e-02 3.870599999999999735e-02 -5.030799999999999855e-02 -7.743800000000000683e-02 4.334000000000000179e-03 2.525000000000000161e-02 -3.455699999999999744e-02 1.054930000000000034e-01 -2.234299999999999828e-02 6.425999999999999768e-02 1.035600000000000062e-02 -2.891099999999999920e-02 8.385000000000000092e-03 2.255499999999999866e-02 4.694199999999999762e-02 -4.148999999999999910e-02 3.350000000000000113e-04 -6.171000000000000270e-03 -2.910599999999999993e-02 -2.104899999999999827e-02 -1.312699999999999978e-02 -3.643600000000000311e-02 -4.547199999999999853e-02 -1.905199999999999949e-02 2.123900000000000093e-02 -9.846999999999999850e-03 -2.939699999999999952e-02 4.378599999999999853e-02 -7.208799999999999930e-02 4.388299999999999840e-02 -8.013800000000000090e-02 -2.409999999999999989e-02 5.848799999999999832e-02 -4.732000000000000095e-02 -1.439499999999999981e-02 4.668800000000000033e-02 -2.152099999999999846e-02 2.864500000000000032e-02 8.708799999999999875e-02 -1.507499999999999986e-02 2.107499999999999998e-02 2.604000000000000065e-02 -2.056200000000000042e-02 -3.229400000000000326e-02 2.887599999999999889e-02 5.891300000000000009e-02 -7.235000000000000112e-03 9.685199999999999365e-02 4.889700000000000296e-02 -3.872899999999999954e-02 4.377199999999999841e-02 -2.697999999999999877e-03 -4.538099999999999773e-02 -1.187489999999999934e-01 5.640000000000000482e-04 -1.127559999999999951e-01 -1.464880000000000071e-01 -8.031000000000000638e-02 1.381070000000000075e-01 3.008100000000000010e-02 1.070109999999999950e-01 -5.933800000000000185e-02 -3.760600000000000054e-02 -3.454999999999999738e-02 -1.041409999999999975e-01 1.947899999999999979e-02 1.553120000000000056e-01 -2.648800000000000113e-02 -1.050959999999999950e-01 2.557299999999999851e-02 -2.597599999999999909e-02 -1.252330000000000110e-01 1.465849999999999931e-01 9.040299999999999725e-02 -1.984309999999999963e-01 6.425200000000000355e-02 3.890199999999999908e-02 -1.502749999999999919e-01 -1.292260000000000075e-01 -1.364009999999999945e-01 -1.441870000000000096e-01 5.522400000000000225e-02 -1.289790000000000103e-01 2.013900000000000065e-02 1.439299999999999954e-02 -1.268950000000000078e-01 5.781599999999999934e-02 -4.611599999999999727e-02 -4.984899999999999748e-02 -2.809800000000000145e-02 -1.347609999999999919e-01 1.632010000000000127e-01 -2.550200000000000036e-02 4.923899999999999805e-02 -9.849900000000000322e-02 1.302299999999999985e-02 -6.635299999999999532e-02 -8.507800000000000085e-02 -5.940600000000000047e-02 9.745499999999999996e-02 2.163899999999999990e-01 -2.816000000000000100e-02 -2.642200000000000104e-02 7.232500000000000040e-02 -2.930500000000000119e-02 -4.360900000000000193e-02 -1.677389999999999992e-01 -2.094000000000000028e-02 1.069429999999999964e-01 3.978199999999999792e-02 4.292800000000000088e-02 4.608700000000000296e-02 -5.184899999999999926e-02 9.000299999999999967e-02 6.579200000000000326e-02 -1.831220000000000070e-01 -1.817699999999999871e-01 -9.130399999999999627e-02 1.923989999999999867e-01 -4.718300000000000272e-02 -1.341299999999999992e-01 -1.141960000000000058e-01 1.294980000000000020e-01 7.927499999999999825e-02 -5.589999999999999830e-02 4.059000000000000108e-02 -1.495279999999999943e-01 -2.476400000000000129e-02 -1.569299999999999862e-02 -1.163249999999999978e-01 5.663999999999999764e-03 -2.565999999999999878e-02 2.403100000000000028e-02 2.891940000000000066e-01 -6.649999999999999661e-03 4.711800000000000016e-02 1.813470000000000082e-01 2.903109999999999857e-01 -3.080999999999999971e-03 -3.013000000000000053e-03 7.774899999999999867e-02 2.541200000000000056e-02 2.390000000000000089e-04 3.317200000000000010e-02 6.620399999999999896e-02 -1.429599999999999968e-02 -4.923000000000000292e-03 7.521400000000000308e-02 -1.109300000000000043e-02 -1.431800000000000087e-02 -6.278300000000000547e-02 2.037770000000000137e-01 1.334889999999999965e-01 -1.078070000000000001e-01 5.967999999999999694e-02 2.086449999999999971e-01 -7.603999999999999648e-03 -2.021519999999999984e-01 2.699999999999999899e-05 1.072410000000000030e-01 1.703629999999999867e-01
-9.678000000000000838e-03 4.431600000000000122e-02 4.745200000000000112e-02 -6.246299999999999769e-02 -9.674599999999999866e-02 4.447000000000000432e-03 3.057299999999999948e-02 -4.278099999999999958e-02 1.303930000000000089e-01 -2.814399999999999888e-02 7.825100000000000111e-02 1.290000000000000001e-02 -3.563700000000000201e-02 9.678000000000000838e-03 2.847900000000000084e-02 5.746199999999999919e-02 -5.198400000000000243e-02 5.190000000000000386e-04 -7.967000000000000123e-03 -3.751600000000000074e-02 -2.569000000000000103e-02 -1.735499999999999890e-02 -4.615799999999999764e-02 -5.579699999999999938e-02 -2.364000000000000129e-02 2.513100000000000056e-02 -1.177399999999999974e-02 -5.719599999999999684e-02 5.461400000000000282e-02 -9.048200000000000687e-02 3.404800000000000187e-02 -9.883599999999999330e-02 -2.987799999999999831e-02 5.163000000000000228e-02 -5.777600000000000097e-02 -1.731699999999999906e-02 3.709300000000000097e-02 -2.573900000000000146e-02 3.556200000000000333e-02 8.733399999999999497e-02 -1.737500000000000155e-02 2.693999999999999867e-02 1.129100000000000069e-02 -2.574200000000000099e-02 -3.969799999999999718e-02 1.674099999999999894e-02 7.339199999999999890e-02 -9.235999999999999419e-03 9.947599999999999498e-02 6.234399999999999664e-02 -4.775000000000000078e-02 3.376400000000000234e-02 -2.719000000000000063e-03 -5.615900000000000059e-02 -1.266529999999999878e-01 1.848999999999999949e-03 -1.396779999999999966e-01 -1.614879999999999927e-01 -9.907599999999999740e-02 1.715740000000000043e-01 5.634399999999999825e-02 1.329160000000000064e-01 -7.164199999999999735e-02 -2.639999999999999986e-02 -4.207099999999999729e-02 -1.288819999999999966e-01 4.376499999999999835e-02 1.932260000000000089e-01 -3.144299999999999873e-02 -1.096239999999999992e-01 3.233599999999999669e-02 -3.200999999999999679e-02 -1.346970000000000112e-01 1.837590000000000057e-01 1.129980000000000012e-01 -2.246309999999999973e-01 8.039100000000000412e-02 4.909399999999999875e-02 -1.655149999999999955e-01 -1.585100000000000120e-01 -1.675729999999999997e-01 -1.773099999999999954e-01 6.783400000000000540e-02 -1.581239999999999868e-01 2.486400000000000068e-02 1.663900000000000101e-02 -1.564859999999999862e-01 7.276699999999999835e-02 -5.798400000000000082e-02 -6.165099999999999747e-02 -3.471400000000000180e-02 -1.688479999999999981e-01 2.039050000000000029e-01 -3.107800000000000146e-02 6.026000000000000106e-02 -1.213169999999999943e-01 1.660000000000000017e-02 -8.275000000000000411e-02 -1.053410000000000041e-01 -7.337000000000000466e-02 1.212649999999999978e-01 2.700960000000000027e-01 -3.444799999999999945e-02 -3.402600000000000069e-02 8.966100000000000458e-02 -3.577299999999999924e-02 -5.426799999999999680e-02 -2.058619999999999894e-01 -2.247000000000000039e-02 1.318380000000000107e-01 4.871600000000000236e-02 5.640699999999999881e-02 5.704300000000000342e-02 -6.386100000000000110e-02 1.151760000000000006e-01 8.068400000000000571e-02 -2.256799999999999917e-01 -2.191379999999999995e-01 -1.123009999999999980e-01 2.358889999999999876e-01 -5.434300000000000241e-02 -1.656999999999999862e-01 -1.416010000000000046e-01 1.643209999999999948e-01 9.801500000000000490e-02 -6.894300000000000428e-02 5.350300000000000195e-02 -1.851009999999999878e-01 -3.194000000000000311e-02 -1.520499999999999977e-02 -1.442009999999999958e-01 6.204000000000000313e-03 -2.716800000000000118e-02 2.926000000000000129e-02 3.542420000000000013e-01 -1.185399999999999995e-02 5.833399999999999697e-02 2.231869999999999965e-01 3.537150000000000016e-01 -2.941000000000000038e-03 -5.511000000000000273e-03 9.231200000000000516e-02 3.108700000000000005e-02 -4.879999999999999898e-04 3.723100000000000021e-02 8.196799999999999919e-02 -1.774799999999999989e-02 -9.867000000000000770e-03 9.306899999999999895e-02 -1.379900000000000050e-02 -2.109000000000000111e-02 -7.736200000000000021e-02 2.496859999999999913e-01 1.612200000000000022e-01 -1.335679999999999923e-01 7.245400000000000451e-02 2.551129999999999787e-01 -8.647000000000000172e-03 -2.500430000000000152e-01 -3.268000000000000071e-03 1.318670000000000120e-01 2.091310000000000113e-01
-1.228899999999999958e-02 5.204700000000000298e-02 5.549300000000000066e-02 -7.401599999999999846e-02 -1.156110000000000054e-01 4.029999999999999728e-03 3.558200000000000252e-02 -5.040499999999999842e-02 1.544800000000000062e-01 -3.384899999999999715e-02 9.136500000000000177e-02 1.540000000000000049e-02 -4.177700000000000163e-02 1.098900000000000050e-02 3.453599999999999726e-02 6.743300000000000682e-02 -6.208799999999999736e-02 7.609999999999999577e-04 -9.646999999999999326e-03 -4.619800000000000295e-02 -3.006500000000000145e-02 -2.196000000000000035e-02 -5.576899999999999913e-02 -6.547699999999999354e-02 -2.785999999999999935e-02 2.856699999999999864e-02 -1.343399999999999976e-02 -8.448700000000000654e-02 6.496399999999999397e-02 -1.089969999999999967e-01 2.451100000000000154e-02 -1.171859999999999985e-01 -3.551100000000000090e-02 4.454500000000000126e-02 -6.779100000000000403e-02 -1.985500000000000112e-02 2.742599999999999899e-02 -2.966699999999999893e-02 4.228699999999999820e-02 8.739500000000000046e-02 -1.918500000000000066e-02 3.315499999999999697e-02 -3.399000000000000112e-03 -3.132000000000000062e-02 -4.662100000000000272e-02 5.667000000000000162e-03 8.728299999999999947e-02 -1.122300000000000034e-02 1.018219999999999958e-01 7.616399999999999559e-02 -5.643299999999999705e-02 2.395200000000000107e-02 -2.726999999999999823e-03 -6.660800000000000054e-02 -1.342599999999999905e-01 3.432999999999999854e-03 -1.658669999999999867e-01 -1.760460000000000080e-01 -1.173249999999999987e-01 2.042249999999999899e-01 8.149800000000000100e-02 1.580100000000000116e-01 -8.280500000000000360e-02 -1.550600000000000069e-02 -4.939299999999999941e-02 -1.528879999999999961e-01 6.727500000000000147e-02 2.301090000000000080e-01 -3.571499999999999675e-02 -1.138369999999999937e-01 3.893599999999999839e-02 -3.769299999999999734e-02 -1.437039999999999984e-01 2.205459999999999920e-01 1.353310000000000068e-01 -2.495290000000000008e-01 9.624699999999999922e-02 5.926399999999999724e-02 -1.801300000000000123e-01 -1.866849999999999898e-01 -1.972379999999999967e-01 -2.092169999999999863e-01 8.033700000000000563e-02 -1.857040000000000080e-01 2.928199999999999900e-02 1.857500000000000123e-02 -1.848940000000000028e-01 8.780200000000000504e-02 -6.964299999999999657e-02 -7.299799999999999345e-02 -4.107000000000000234e-02 -2.024299999999999988e-01 2.440779999999999894e-01 -3.644900000000000223e-02 7.097399999999999542e-02 -1.430089999999999972e-01 2.014799999999999924e-02 -9.867700000000000082e-02 -1.249819999999999959e-01 -8.681999999999999440e-02 1.450579999999999925e-01 3.231249999999999956e-01 -4.043700000000000072e-02 -4.182199999999999807e-02 1.065529999999999949e-01 -4.201200000000000073e-02 -6.446200000000000541e-02 -2.419330000000000092e-01 -2.427500000000000144e-02 1.556049999999999933e-01 5.709700000000000192e-02 6.903700000000000114e-02 6.763700000000000268e-02 -7.524400000000000532e-02 1.393479999999999996e-01 9.470099999999999352e-02 -2.661669999999999869e-01 -2.544150000000000023e-01 -1.323769999999999947e-01 2.768550000000000177e-01 -6.124999999999999889e-02 -1.959190000000000098e-01 -1.680879999999999874e-01 1.977839999999999876e-01 1.159079999999999971e-01 -8.128100000000000602e-02 6.561599999999999377e-02 -2.193229999999999902e-01 -3.927400000000000335e-02 -1.466899999999999975e-02 -1.712299999999999933e-01 6.401999999999999705e-03 -2.827700000000000005e-02 3.404299999999999687e-02 4.153640000000000110e-01 -1.674499999999999947e-02 6.922000000000000375e-02 2.628190000000000248e-01 4.142199999999999771e-01 -2.579999999999999828e-03 -8.614000000000000129e-03 1.064490000000000020e-01 3.629099999999999687e-02 -1.572000000000000047e-03 4.127700000000000119e-02 9.718799999999999661e-02 -2.117899999999999991e-02 -1.444900000000000004e-02 1.101919999999999983e-01 -1.643000000000000016e-02 -2.746600000000000083e-02 -9.135799999999999477e-02 2.927139999999999742e-01 1.880560000000000009e-01 -1.583620000000000028e-01 8.416800000000000670e-02 3.002960000000000074e-01 -9.410999999999999227e-03 -2.959300000000000264e-01 -6.048999999999999690e-03 1.552979999999999916e-01 2.456990000000000007e-01